 Entering Gaussian System, Link 0=g09
 Initial command:
 /opt/gridware/applications/gaussian/g09/l1.exe "/lustre/SCRATCH5/gau/mlawal/919178.sched01/Gau-31065.inp" -scrdir="/lustre/SCRATCH5/gau/mlawal/919178.sched01/"
 Entering Link 1 = /opt/gridware/applications/gaussian/g09/l1.exe PID=     31066.
  
 Copyright (c) 1988,1990,1992,1993,1995,1998,2003,2009,2013,
            Gaussian, Inc.  All Rights Reserved.
  
 This is part of the Gaussian(R) 09 program.  It is based on
 the Gaussian(R) 03 system (copyright 2003, Gaussian, Inc.),
 the Gaussian(R) 98 system (copyright 1998, Gaussian, Inc.),
 the Gaussian(R) 94 system (copyright 1995, Gaussian, Inc.),
 the Gaussian 92(TM) system (copyright 1992, Gaussian, Inc.),
 the Gaussian 90(TM) system (copyright 1990, Gaussian, Inc.),
 the Gaussian 88(TM) system (copyright 1988, Gaussian, Inc.),
 the Gaussian 86(TM) system (copyright 1986, Carnegie Mellon
 University), and the Gaussian 82(TM) system (copyright 1983,
 Carnegie Mellon University). Gaussian is a federally registered
 trademark of Gaussian, Inc.
  
 This software contains proprietary and confidential information,
 including trade secrets, belonging to Gaussian, Inc.
  
 This software is provided under written license and may be
 used, copied, transmitted, or stored only in accord with that
 written license.
  
 The following legend is applicable only to US Government
 contracts under FAR:
  
                    RESTRICTED RIGHTS LEGEND
  
 Use, reproduction and disclosure by the US Government is
 subject to restrictions as set forth in subparagraphs (a)
 and (c) of the Commercial Computer Software - Restricted
 Rights clause in FAR 52.227-19.
  
 Gaussian, Inc.
 340 Quinnipiac St., Bldg. 40, Wallingford CT 06492
  
  
 ---------------------------------------------------------------
 Warning -- This program may not be used in any manner that
 competes with the business of Gaussian, Inc. or will provide
 assistance to any competitor of Gaussian, Inc.  The licensee
 of this program is prohibited from giving any competitor of
 Gaussian, Inc. access to this program.  By using this program,
 the user acknowledges that Gaussian, Inc. is engaged in the
 business of creating and licensing software in the field of
 computational chemistry and represents and warrants to the
 licensee that it is not a competitor of Gaussian, Inc. and that
 it will not use this program in any manner prohibited above.
 ---------------------------------------------------------------
  

 Cite this work as:
 Gaussian 09, Revision D.01,
 M. J. Frisch, G. W. Trucks, H. B. Schlegel, G. E. Scuseria, 
 M. A. Robb, J. R. Cheeseman, G. Scalmani, V. Barone, B. Mennucci, 
 G. A. Petersson, H. Nakatsuji, M. Caricato, X. Li, H. P. Hratchian, 
 A. F. Izmaylov, J. Bloino, G. Zheng, J. L. Sonnenberg, M. Hada, 
 M. Ehara, K. Toyota, R. Fukuda, J. Hasegawa, M. Ishida, T. Nakajima, 
 Y. Honda, O. Kitao, H. Nakai, T. Vreven, J. A. Montgomery, Jr., 
 J. E. Peralta, F. Ogliaro, M. Bearpark, J. J. Heyd, E. Brothers, 
 K. N. Kudin, V. N. Staroverov, T. Keith, R. Kobayashi, J. Normand, 
 K. Raghavachari, A. Rendell, J. C. Burant, S. S. Iyengar, J. Tomasi, 
 M. Cossi, N. Rega, J. M. Millam, M. Klene, J. E. Knox, J. B. Cross, 
 V. Bakken, C. Adamo, J. Jaramillo, R. Gomperts, R. E. Stratmann, 
 O. Yazyev, A. J. Austin, R. Cammi, C. Pomelli, J. W. Ochterski, 
 R. L. Martin, K. Morokuma, V. G. Zakrzewski, G. A. Voth, 
 P. Salvador, J. J. Dannenberg, S. Dapprich, A. D. Daniels, 
 O. Farkas, J. B. Foresman, J. V. Ortiz, J. Cioslowski, 
 and D. J. Fox, Gaussian, Inc., Wallingford CT, 2013.
 
 ******************************************
 Gaussian 09:  EM64L-G09RevD.01 24-Apr-2013
                 7-Jun-2015 
 ******************************************
 %nprocshared=8
 Will use up to    8 processors via shared memory.
 %nprocl=1
 Will use up to    1 processors via Linda.
 ---------------------------------------
 # freq b3lyp/def2tzvp geom=connectivity
 ---------------------------------------
 1/10=4,30=1,38=1,57=2/1,3;
 2/12=2,17=6,18=5,40=1/2;
 3/5=44,7=101,11=2,16=1,25=1,30=1,71=2,74=-5,140=1/1,2,3;
 4//1;
 5/5=2,38=5,98=1/2;
 8/6=4,10=90,11=11/1;
 11/6=1,8=1,9=11,15=111,16=1/1,2,10;
 10/6=1/2;
 6/7=2,8=2,9=2,10=2,18=1,28=1/1;
 7/8=1,10=1,25=1/1,2,3,16;
 1/10=4,30=1/3;
 99//99;
 --------
 freq-s12
 --------
 Symbolic Z-matrix:
 Charge =  0 Multiplicity = 1
 C                     1.42976  -0.80581  -0.0495 
 C                     2.67314   0.04478  -0.17207 
 H                     3.53273  -0.52765   0.19955 
 H                     2.83597   0.29251  -1.22157 
 H                     2.59398   0.97185   0.40406 
 O                     0.92723  -1.44343  -0.93683 
 O                    -0.25665   1.55563  -0.5347 
 O                    -2.02275  -0.42634   0.57618 
 C                    -2.59356  -1.32542  -0.38315 
 H                    -3.40017  -0.77931  -0.87815 
 H                    -1.84972  -1.63922  -1.12442 
 H                    -3.01694  -2.21084   0.10921 
 H                    -1.27289  -0.86582   1.01395 
 H                    -0.95299   0.91203  -0.28889 
 C                    -0.54685   2.80948   0.06728 
 H                    -0.62714   2.73705   1.16302 
 H                     0.27883   3.48314  -0.18091 
 H                    -1.47891   3.24603  -0.32006 
 O                     0.89591  -0.90603   1.21553 
 H                     1.23234  -0.19656   1.78747 
 

 GradGradGradGradGradGradGradGradGradGradGradGradGradGradGradGradGradGrad
 Berny optimization.
 Initialization pass.
 Trust Radius=3.00D-01 FncErr=1.00D-07 GrdErr=1.00D-07
 Number of steps in this run=      2 maximum allowed number of steps=      2.
 GradGradGradGradGradGradGradGradGradGradGradGradGradGradGradGradGradGrad

                          Input orientation:                          
 ---------------------------------------------------------------------
 Center     Atomic      Atomic             Coordinates (Angstroms)
 Number     Number       Type             X           Y           Z
 ---------------------------------------------------------------------
      1          6           0        1.429760   -0.805807   -0.049501
      2          6           0        2.673140    0.044779   -0.172067
      3          1           0        3.532733   -0.527650    0.199549
      4          1           0        2.835968    0.292508   -1.221568
      5          1           0        2.593983    0.971849    0.404061
      6          8           0        0.927232   -1.443434   -0.936832
      7          8           0       -0.256647    1.555625   -0.534696
      8          8           0       -2.022754   -0.426340    0.576176
      9          6           0       -2.593557   -1.325418   -0.383152
     10          1           0       -3.400165   -0.779308   -0.878151
     11          1           0       -1.849718   -1.639222   -1.124424
     12          1           0       -3.016942   -2.210835    0.109211
     13          1           0       -1.272890   -0.865822    1.013953
     14          1           0       -0.952991    0.912029   -0.288891
     15          6           0       -0.546847    2.809476    0.067278
     16          1           0       -0.627136    2.737053    1.163015
     17          1           0        0.278830    3.483142   -0.180913
     18          1           0       -1.478905    3.246026   -0.320062
     19          8           0        0.895910   -0.906026    1.215527
     20          1           0        1.232337   -0.196556    1.787467
 ---------------------------------------------------------------------
                    Distance matrix (angstroms):
                    1          2          3          4          5
     1  C    0.000000
     2  C    1.511460   0.000000
     3  H    2.135859   1.097576   0.000000
     4  H    2.134820   1.090566   1.782614   0.000000
     5  H    2.172831   1.094371   1.780891   1.778407   0.000000
     6  O    1.202688   2.418230   2.986412   2.595735   3.226398
     7  O    2.942065   3.316294   4.386177   3.410502   3.057475
     8  O    3.529210   4.778414   5.569160   5.230278   4.826885
     9  C    4.070430   5.446108   6.205433   5.727161   5.727802
    10  H    4.900565   6.169498   7.020673   6.336882   6.374985
    11  H    3.550354   4.919257   5.653254   5.069188   5.375913
    12  H    4.666096   6.127311   6.763100   6.503403   6.457468
    13  H    2.904970   4.219833   4.885860   4.818921   4.324547
    14  H    2.947163   3.730227   4.736346   3.950937   3.614524
    15  C    4.122000   4.250782   5.272275   4.409046   3.654464
    16  H    4.272338   4.463475   5.375041   4.863654   3.750675
    17  H    4.442634   4.189885   5.178715   4.219249   3.465360
    18  H    4.995086   5.244937   6.295009   5.306045   4.720662
    19  O    1.376712   2.447038   2.851002   3.337625   2.658636
    20  H    1.945408   2.444162   2.814770   3.444577   2.265626
                    6          7          8          9         10
     6  O    0.000000
     7  O    3.249252   0.000000
     8  O    3.467865   2.877734   0.000000
     9  C    3.566012   3.712751   1.433341   0.000000
    10  H    4.378455   3.930850   2.033941   1.092647   0.000000
    11  H    2.790157   3.618384   2.095964   1.096017   1.789969
    12  H    4.152062   4.713816   2.095445   1.098016   1.780734
    13  H    2.996621   3.048683   0.973185   1.976687   2.848305
    14  H    3.082738   0.979556   1.919366   2.776060   3.032575
    15  C    4.611766   1.420821   3.592740   4.635651   4.681306
    16  H    4.929695   2.101251   3.507019   4.770861   4.921468
    17  H    5.026230   2.031556   4.599405   5.604798   5.673590
    18  H    5.306688   2.097007   3.819069   4.705797   4.495110
    19  O    2.218657   3.232862   3.026131   3.861094   4.780775
    20  H    3.011577   3.267974   3.480753   4.541297   5.376355
                   11         12         13         14         15
    11  H    0.000000
    12  H    1.791929   0.000000
    13  H    2.345961   2.381037   0.000000
    14  H    2.830392   3.764394   2.227216   0.000000
    15  C    4.786287   5.595235   3.864084   1.972844   0.000000
    16  H    5.087128   5.594933   3.663322   2.354766   1.101059
    17  H    5.626681   6.585413   4.769594   2.853010   1.094151
    18  H    4.964892   5.685698   4.327740   2.392718   1.099700
    19  O    3.681225   4.270465   2.178518   2.997838   4.147888
    20  H    4.478779   4.993019   2.705994   3.211835   3.893684
                   16         17         18         19         20
    16  H    0.000000
    17  H    1.784255   0.000000
    18  H    1.784399   1.779106   0.000000
    19  O    3.948981   4.647110   5.023676   0.000000
    20  H    3.528972   4.280639   4.862498   0.971415   0.000000
 Stoichiometry    C4H12O4
 Framework group  C1[X(C4H12O4)]
 Deg. of freedom    54
 Full point group                 C1      NOp   1
 Largest Abelian subgroup         C1      NOp   1
 Largest concise Abelian subgroup C1      NOp   1
                         Standard orientation:                         
 ---------------------------------------------------------------------
 Center     Atomic      Atomic             Coordinates (Angstroms)
 Number     Number       Type             X           Y           Z
 ---------------------------------------------------------------------
      1          6           0        1.429760   -0.805807   -0.049501
      2          6           0        2.673140    0.044779   -0.172067
      3          1           0        3.532733   -0.527650    0.199549
      4          1           0        2.835968    0.292508   -1.221568
      5          1           0        2.593983    0.971849    0.404061
      6          8           0        0.927232   -1.443434   -0.936832
      7          8           0       -0.256647    1.555625   -0.534696
      8          8           0       -2.022754   -0.426340    0.576176
      9          6           0       -2.593557   -1.325418   -0.383152
     10          1           0       -3.400165   -0.779308   -0.878151
     11          1           0       -1.849718   -1.639222   -1.124424
     12          1           0       -3.016942   -2.210835    0.109211
     13          1           0       -1.272890   -0.865822    1.013953
     14          1           0       -0.952991    0.912029   -0.288891
     15          6           0       -0.546847    2.809476    0.067278
     16          1           0       -0.627136    2.737053    1.163015
     17          1           0        0.278830    3.483142   -0.180913
     18          1           0       -1.478905    3.246026   -0.320062
     19          8           0        0.895910   -0.906026    1.215527
     20          1           0        1.232337   -0.196556    1.787467
 ---------------------------------------------------------------------
 Rotational constants (GHZ):      1.6215765      1.2442739      0.8433396
 Standard basis: def2TZVP (5D, 7F)
 There are   360 symmetry adapted cartesian basis functions of A   symmetry.
 There are   320 symmetry adapted basis functions of A   symmetry.
   320 basis functions,   504 primitive gaussians,   360 cartesian basis functions
    34 alpha electrons       34 beta electrons
       nuclear repulsion energy       408.6149851066 Hartrees.
 NAtoms=   20 NActive=   20 NUniq=   20 SFac= 1.00D+00 NAtFMM=   60 NAOKFM=F Big=F
 Integral buffers will be    131072 words long.
 Raffenetti 2 integral format.
 Two-electron integral symmetry is turned on.
 One-electron integrals computed using PRISM.
 PrsmSu:  requested number of processors reduced to:   4 ShMem   1 Linda.
   1 Symmetry operations used in ECPInt.
 ECPInt:  NShTT=    9316 NPrTT=   27240 LenC2=    8948 LenP2D=   20036.
 LDataN:  DoStor=T MaxTD1= 6 Len=  172
 NBasis=   320 RedAO= T EigKep=  3.97D-04  NBF=   320
 NBsUse=   320 1.00D-06 EigRej= -1.00D+00 NBFU=   320
 ExpMin= 9.52D-02 ExpMax= 2.70D+04 ExpMxC= 9.22D+02 IAcc=2 IRadAn=         4 AccDes= 0.00D+00
 Harris functional with IExCor=  402 and IRadAn=       4 diagonalized for initial guess.
 HarFok:  IExCor=  402 AccDes= 0.00D+00 IRadAn=         4 IDoV= 1 UseB2=F ITyADJ=14
 ICtDFT=  3500011 ScaDFX=  1.000000  1.000000  1.000000  1.000000
 FoFCou: FMM=F IPFlag=           0 FMFlag=      100000 FMFlg1=           0
         NFxFlg=           0 DoJE=T BraDBF=F KetDBF=T FulRan=T
         wScrn=  0.000000 ICntrl=     500 IOpCl=  0 I1Cent=   200000004 NGrid=           0
         NMat0=    1 NMatS0=      1 NMatT0=    0 NMatD0=    1 NMtDS0=    0 NMtDT0=    0
 Petite list used in FoFCou.
 Requested convergence on RMS density matrix=1.00D-08 within 128 cycles.
 Requested convergence on MAX density matrix=1.00D-06.
 Requested convergence on             energy=1.00D-06.
 No special actions if energy rises.
 Integral accuracy reduced to 1.0D-05 until final iterations.
 Initial convergence to 1.0D-05 achieved.  Increase integral accuracy.
 SCF Done:  E(RB3LYP) =  -460.749249574     A.U. after   13 cycles
            NFock= 13  Conv=0.44D-08     -V/T= 2.0050
 DoSCS=F DFT=T ScalE2(SS,OS)=  1.000000  1.000000
 Range of M.O.s used for correlation:     1   320
 NBasis=   320 NAE=    34 NBE=    34 NFC=     0 NFV=     0
 NROrb=    320 NOA=    34 NOB=    34 NVA=   286 NVB=   286

 **** Warning!!: The largest alpha MO coefficient is  0.16466472D+02

 PrsmSu:  requested number of processors reduced to:   4 ShMem   1 Linda.
 PrsmSu:  requested number of processors reduced to:   4 ShMem   1 Linda.
   1 Symmetry operations used in ECPInt.
 ECPInt:  NShTT=    9316 NPrTT=   27240 LenC2=    8948 LenP2D=   20036.
 LDataN:  DoStor=T MaxTD1= 7 Len=  274
 Number of processors reduced to   2 by ecpmxn.
 Symmetrizing basis deriv contribution to polar:
 IMax=3 JMax=2 DiffMx= 0.00D+00
 G2DrvN: will do     1 centers at a time, making   21 passes.
 Calling FoFCou, ICntrl=  3107 FMM=F I1Cent=   0 AccDes= 0.00D+00.
 Calling FoFCou, ICntrl=  3107 FMM=F I1Cent=   0 AccDes= 0.00D+00.
 Calling FoFCou, ICntrl=  3107 FMM=F I1Cent=   0 AccDes= 0.00D+00.
 Calling FoFCou, ICntrl=  3107 FMM=F I1Cent=   0 AccDes= 0.00D+00.
 Calling FoFCou, ICntrl=  3107 FMM=F I1Cent=   0 AccDes= 0.00D+00.
 Calling FoFCou, ICntrl=  3107 FMM=F I1Cent=   0 AccDes= 0.00D+00.
 Calling FoFCou, ICntrl=  3107 FMM=F I1Cent=   0 AccDes= 0.00D+00.
 Calling FoFCou, ICntrl=  3107 FMM=F I1Cent=   0 AccDes= 0.00D+00.
 Calling FoFCou, ICntrl=  3107 FMM=F I1Cent=   0 AccDes= 0.00D+00.
 Calling FoFCou, ICntrl=  3107 FMM=F I1Cent=   0 AccDes= 0.00D+00.
 Calling FoFCou, ICntrl=  3107 FMM=F I1Cent=   0 AccDes= 0.00D+00.
 Calling FoFCou, ICntrl=  3107 FMM=F I1Cent=   0 AccDes= 0.00D+00.
 Calling FoFCou, ICntrl=  3107 FMM=F I1Cent=   0 AccDes= 0.00D+00.
 Calling FoFCou, ICntrl=  3107 FMM=F I1Cent=   0 AccDes= 0.00D+00.
 Calling FoFCou, ICntrl=  3107 FMM=F I1Cent=   0 AccDes= 0.00D+00.
 Calling FoFCou, ICntrl=  3107 FMM=F I1Cent=   0 AccDes= 0.00D+00.
 Calling FoFCou, ICntrl=  3107 FMM=F I1Cent=   0 AccDes= 0.00D+00.
 Calling FoFCou, ICntrl=  3107 FMM=F I1Cent=   0 AccDes= 0.00D+00.
 Calling FoFCou, ICntrl=  3107 FMM=F I1Cent=   0 AccDes= 0.00D+00.
 Calling FoFCou, ICntrl=  3107 FMM=F I1Cent=   0 AccDes= 0.00D+00.
 Calling FoFCou, ICntrl=  3107 FMM=F I1Cent=   0 AccDes= 0.00D+00.
 End of G2Drv F.D. properties file   721 does not exist.
 End of G2Drv F.D. properties file   722 does not exist.
 End of G2Drv F.D. properties file   788 does not exist.
          IDoAtm=11111111111111111111
          Differentiating once with respect to electric field.
                with respect to dipole field.
          Differentiating once with respect to nuclear coordinates.
 PrRfSu:  requested number of processors reduced to:   5 ShMem   1 Linda.
 PrRfSu:  requested number of processors reduced to:   5 ShMem   1 Linda.
 PrRfSu:  requested number of processors reduced to:   5 ShMem   1 Linda.
          There are    63 degrees of freedom in the 1st order CPHF.  IDoFFX=6 NUNeed=     3.
     63 vectors produced by pass  0 Test12= 1.54D-14 1.59D-09 XBig12= 4.54D+01 2.02D+00.
 AX will form    24 AO Fock derivatives at one time.
 PrRfSu:  requested number of processors reduced to:   5 ShMem   1 Linda.
 PrRfSu:  requested number of processors reduced to:   5 ShMem   1 Linda.
 PrRfSu:  requested number of processors reduced to:   5 ShMem   1 Linda.
     60 vectors produced by pass  1 Test12= 1.54D-14 1.59D-09 XBig12= 6.39D+00 5.03D-01.
 PrRfSu:  requested number of processors reduced to:   5 ShMem   1 Linda.
 PrRfSu:  requested number of processors reduced to:   5 ShMem   1 Linda.
 PrRfSu:  requested number of processors reduced to:   6 ShMem   1 Linda.
     60 vectors produced by pass  2 Test12= 1.54D-14 1.59D-09 XBig12= 7.45D-02 3.47D-02.
 PrRfSu:  requested number of processors reduced to:   5 ShMem   1 Linda.
 PrRfSu:  requested number of processors reduced to:   5 ShMem   1 Linda.
 PrRfSu:  requested number of processors reduced to:   6 ShMem   1 Linda.
     60 vectors produced by pass  3 Test12= 1.54D-14 1.59D-09 XBig12= 2.22D-04 1.64D-03.
 PrRfSu:  requested number of processors reduced to:   5 ShMem   1 Linda.
 PrRfSu:  requested number of processors reduced to:   5 ShMem   1 Linda.
 PrRfSu:  requested number of processors reduced to:   6 ShMem   1 Linda.
     60 vectors produced by pass  4 Test12= 1.54D-14 1.59D-09 XBig12= 4.18D-07 7.23D-05.
 PrRfSu:  requested number of processors reduced to:   5 ShMem   1 Linda.
 PrRfSu:  requested number of processors reduced to:   5 ShMem   1 Linda.
 PrRfSu:  requested number of processors reduced to:   6 ShMem   1 Linda.
     44 vectors produced by pass  5 Test12= 1.54D-14 1.59D-09 XBig12= 5.54D-10 2.34D-06.
 PrRfSu:  requested number of processors reduced to:   5 ShMem   1 Linda.
 PrRfSu:  requested number of processors reduced to:   5 ShMem   1 Linda.
      6 vectors produced by pass  6 Test12= 1.54D-14 1.59D-09 XBig12= 5.60D-13 1.17D-07.
      3 vectors produced by pass  7 Test12= 1.54D-14 1.59D-09 XBig12= 1.01D-15 4.69D-09.
 InvSVY:  IOpt=1 It=  1 EMax= 2.66D-15
 Solved reduced A of dimension   356 with    63 vectors.
 Isotropic polarizability for W=    0.000000       71.71 Bohr**3.
 End of Minotr F.D. properties file   721 does not exist.
 End of Minotr F.D. properties file   722 does not exist.
 End of Minotr F.D. properties file   788 does not exist.

 **********************************************************************

            Population analysis using the SCF density.

 **********************************************************************

 Orbital symmetries:
       Occupied  (A) (A) (A) (A) (A) (A) (A) (A) (A) (A) (A) (A)
                 (A) (A) (A) (A) (A) (A) (A) (A) (A) (A) (A) (A)
                 (A) (A) (A) (A) (A) (A) (A) (A) (A) (A)
       Virtual   (A) (A) (A) (A) (A) (A) (A) (A) (A) (A) (A) (A)
                 (A) (A) (A) (A) (A) (A) (A) (A) (A) (A) (A) (A)
                 (A) (A) (A) (A) (A) (A) (A) (A) (A) (A) (A) (A)
                 (A) (A) (A) (A) (A) (A) (A) (A) (A) (A) (A) (A)
                 (A) (A) (A) (A) (A) (A) (A) (A) (A) (A) (A) (A)
                 (A) (A) (A) (A) (A) (A) (A) (A) (A) (A) (A) (A)
                 (A) (A) (A) (A) (A) (A) (A) (A) (A) (A) (A) (A)
                 (A) (A) (A) (A) (A) (A) (A) (A) (A) (A) (A) (A)
                 (A) (A) (A) (A) (A) (A) (A) (A) (A) (A) (A) (A)
                 (A) (A) (A) (A) (A) (A) (A) (A) (A) (A) (A) (A)
                 (A) (A) (A) (A) (A) (A) (A) (A) (A) (A) (A) (A)
                 (A) (A) (A) (A) (A) (A) (A) (A) (A) (A) (A) (A)
                 (A) (A) (A) (A) (A) (A) (A) (A) (A) (A) (A) (A)
                 (A) (A) (A) (A) (A) (A) (A) (A) (A) (A) (A) (A)
                 (A) (A) (A) (A) (A) (A) (A) (A) (A) (A) (A) (A)
                 (A) (A) (A) (A) (A) (A) (A) (A) (A) (A) (A) (A)
                 (A) (A) (A) (A) (A) (A) (A) (A) (A) (A) (A) (A)
                 (A) (A) (A) (A) (A) (A) (A) (A) (A) (A) (A) (A)
                 (A) (A) (A) (A) (A) (A) (A) (A) (A) (A) (A) (A)
                 (A) (A) (A) (A) (A) (A) (A) (A) (A) (A) (A) (A)
                 (A) (A) (A) (A) (A) (A) (A) (A) (A) (A) (A) (A)
                 (A) (A) (A) (A) (A) (A) (A) (A) (A) (A) (A) (A)
                 (A) (A) (A) (A) (A) (A) (A) (A) (A) (A) (A) (A)
                 (A) (A) (A) (A) (A) (A) (A) (A) (A) (A)
 The electronic state is 1-A.
 Alpha  occ. eigenvalues --  -19.18591 -19.13126 -19.12045 -19.10779 -10.31645
 Alpha  occ. eigenvalues --  -10.20918 -10.20673 -10.19588  -1.10991  -1.02981
 Alpha  occ. eigenvalues --   -1.02083  -1.00013  -0.76073  -0.68203  -0.67345
 Alpha  occ. eigenvalues --   -0.62764  -0.52692  -0.50761  -0.49952  -0.48046
 Alpha  occ. eigenvalues --   -0.47392  -0.43917  -0.43323  -0.42854  -0.42753
 Alpha  occ. eigenvalues --   -0.41848  -0.40759  -0.39011  -0.34724  -0.33798
 Alpha  occ. eigenvalues --   -0.32590  -0.29041  -0.28421  -0.26782
 Alpha virt. eigenvalues --   -0.01227   0.00305   0.05140   0.05738   0.06095
 Alpha virt. eigenvalues --    0.07710   0.09456   0.10461   0.10723   0.11593
 Alpha virt. eigenvalues --    0.12232   0.12378   0.13483   0.13739   0.15618
 Alpha virt. eigenvalues --    0.17650   0.19512   0.20125   0.21400   0.22583
 Alpha virt. eigenvalues --    0.23298   0.24692   0.25893   0.26990   0.28984
 Alpha virt. eigenvalues --    0.30316   0.31997   0.33803   0.34975   0.36818
 Alpha virt. eigenvalues --    0.37215   0.38155   0.39153   0.40232   0.40606
 Alpha virt. eigenvalues --    0.42468   0.42594   0.43366   0.44525   0.45320
 Alpha virt. eigenvalues --    0.46066   0.46995   0.47110   0.49337   0.50729
 Alpha virt. eigenvalues --    0.52103   0.52387   0.53448   0.55815   0.57193
 Alpha virt. eigenvalues --    0.58041   0.59722   0.61090   0.64843   0.65596
 Alpha virt. eigenvalues --    0.66731   0.68255   0.71723   0.72914   0.75508
 Alpha virt. eigenvalues --    0.75796   0.77754   0.78732   0.81393   0.81761
 Alpha virt. eigenvalues --    0.85079   0.87665   0.89203   0.91834   0.92731
 Alpha virt. eigenvalues --    0.93714   0.94178   0.96437   0.97859   0.98565
 Alpha virt. eigenvalues --    1.03417   1.03691   1.04080   1.06892   1.08931
 Alpha virt. eigenvalues --    1.18398   1.25892   1.30152   1.32458   1.36465
 Alpha virt. eigenvalues --    1.39633   1.41500   1.42771   1.45839   1.46776
 Alpha virt. eigenvalues --    1.47519   1.49140   1.49451   1.50347   1.50699
 Alpha virt. eigenvalues --    1.52015   1.52315   1.52671   1.52874   1.55255
 Alpha virt. eigenvalues --    1.56201   1.57119   1.58261   1.60042   1.61514
 Alpha virt. eigenvalues --    1.62670   1.66894   1.67756   1.68390   1.76094
 Alpha virt. eigenvalues --    1.80040   1.84098   1.85070   1.86509   1.87232
 Alpha virt. eigenvalues --    1.88138   1.91328   1.92058   1.94209   1.95241
 Alpha virt. eigenvalues --    1.97036   1.98161   2.00490   2.02128   2.04436
 Alpha virt. eigenvalues --    2.04876   2.06850   2.09829   2.10918   2.13744
 Alpha virt. eigenvalues --    2.14019   2.14966   2.17542   2.21049   2.23257
 Alpha virt. eigenvalues --    2.24708   2.25254   2.26029   2.28801   2.29916
 Alpha virt. eigenvalues --    2.30763   2.31371   2.32951   2.33976   2.35608
 Alpha virt. eigenvalues --    2.38082   2.40022   2.42160   2.43351   2.43821
 Alpha virt. eigenvalues --    2.50266   2.51441   2.51910   2.52619   2.53814
 Alpha virt. eigenvalues --    2.54886   2.56074   2.58679   2.63957   2.65329
 Alpha virt. eigenvalues --    2.68694   2.72621   2.74156   2.75294   2.76839
 Alpha virt. eigenvalues --    2.79070   2.82192   2.82873   2.84296   2.87181
 Alpha virt. eigenvalues --    2.88562   2.92336   2.93627   2.96049   2.98847
 Alpha virt. eigenvalues --    3.00160   3.01362   3.05737   3.07365   3.07747
 Alpha virt. eigenvalues --    3.08898   3.12969   3.13296   3.16068   3.17796
 Alpha virt. eigenvalues --    3.19871   3.20733   3.21334   3.23526   3.28256
 Alpha virt. eigenvalues --    3.30033   3.31528   3.32952   3.34099   3.37588
 Alpha virt. eigenvalues --    3.39064   3.40451   3.42626   3.47016   3.48192
 Alpha virt. eigenvalues --    3.51110   3.51757   3.52123   3.55431   3.55788
 Alpha virt. eigenvalues --    3.56584   3.56968   3.59664   3.74278   3.80532
 Alpha virt. eigenvalues --    3.86499   3.87483   3.90532   3.95062   3.97977
 Alpha virt. eigenvalues --    4.03722   4.13741   4.14538   4.18159   4.21627
 Alpha virt. eigenvalues --    4.29994   4.33540   4.36399   4.38068   4.39198
 Alpha virt. eigenvalues --    4.45060   4.50627   4.53594   4.54682   4.67963
 Alpha virt. eigenvalues --    5.14454   5.17856   5.18897   5.22733   5.25645
 Alpha virt. eigenvalues --    5.27889   5.31000   5.33059   5.36100   5.44575
 Alpha virt. eigenvalues --    5.46412   5.51458   5.56451   5.65869   5.68180
 Alpha virt. eigenvalues --    5.71246   5.74311   5.75268   5.81611   5.85240
 Alpha virt. eigenvalues --    5.88420   5.94820   6.15322   6.17892   6.19093
 Alpha virt. eigenvalues --    6.29237   6.33569   6.35830   6.41289   6.43986
 Alpha virt. eigenvalues --    6.45911   6.47477   6.64091   6.64717   6.66083
 Alpha virt. eigenvalues --    6.68040   6.70943   6.74089   6.75417   6.81926
 Alpha virt. eigenvalues --    6.90564   6.95289   7.00471   7.03514   7.09797
 Alpha virt. eigenvalues --    7.12579   7.19823   7.23315  22.26168  22.27645
 Alpha virt. eigenvalues --   22.29047  23.10619  43.61312  43.71223  43.76163
 Alpha virt. eigenvalues --   43.90127
          Condensed to atoms (all electrons):
               1          2          3          4          5          6
     1  C    4.504070   0.278168  -0.021699  -0.035892  -0.014606   0.665962
     2  C    0.278168   5.122304   0.374365   0.399484   0.357891  -0.081911
     3  H   -0.021699   0.374365   0.554901  -0.017252  -0.029537   0.000961
     4  H   -0.035892   0.399484  -0.017252   0.512625  -0.013747   0.007517
     5  H   -0.014606   0.357891  -0.029537  -0.013747   0.574846   0.002790
     6  O    0.665962  -0.081911   0.000961   0.007517   0.002790   7.798764
     7  O    0.016559  -0.005056   0.000919   0.000219   0.005535  -0.002848
     8  O    0.005933   0.000740  -0.000005   0.000017   0.000039  -0.001433
     9  C   -0.000194  -0.000184  -0.000004  -0.000005   0.000006  -0.002840
    10  H    0.000143   0.000038   0.000000   0.000000  -0.000003   0.000316
    11  H   -0.002734  -0.000155   0.000006  -0.000010  -0.000016   0.007019
    12  H    0.000300   0.000029   0.000000   0.000000  -0.000001   0.000041
    13  H   -0.001766   0.000649  -0.000010  -0.000068  -0.000053   0.000864
    14  H   -0.003953  -0.000424  -0.000099   0.000146  -0.000356   0.000347
    15  C   -0.000082  -0.000916  -0.000018  -0.000021  -0.000745  -0.000008
    16  H   -0.001387   0.001104  -0.000007   0.000032  -0.000749  -0.000017
    17  H   -0.000094  -0.000618  -0.000048  -0.000011   0.000117   0.000028
    18  H    0.000393  -0.000068   0.000006  -0.000015   0.000169  -0.000026
    19  O    0.284919  -0.104376   0.001723   0.006150   0.003585  -0.098394
    20  H   -0.021803   0.007621  -0.001075   0.000009  -0.000308   0.006754
               7          8          9         10         11         12
     1  C    0.016559   0.005933  -0.000194   0.000143  -0.002734   0.000300
     2  C   -0.005056   0.000740  -0.000184   0.000038  -0.000155   0.000029
     3  H    0.000919  -0.000005  -0.000004   0.000000   0.000006   0.000000
     4  H    0.000219   0.000017  -0.000005   0.000000  -0.000010   0.000000
     5  H    0.005535   0.000039   0.000006  -0.000003  -0.000016  -0.000001
     6  O   -0.002848  -0.001433  -0.002840   0.000316   0.007019   0.000041
     7  O    8.099199  -0.025309   0.001431   0.000554   0.000686  -0.000202
     8  O   -0.025309   8.111333   0.223220  -0.039099  -0.048479  -0.033930
     9  C    0.001431   0.223220   4.750311   0.394787   0.419197   0.403481
    10  H    0.000554  -0.039099   0.394787   0.587200  -0.035918  -0.027695
    11  H    0.000686  -0.048479   0.419197  -0.035918   0.563910  -0.041614
    12  H   -0.000202  -0.033930   0.403481  -0.027695  -0.041614   0.604084
    13  H    0.002701   0.286540  -0.028885   0.009295  -0.000654  -0.011560
    14  H    0.286128   0.042729  -0.008113  -0.001963  -0.003169   0.001911
    15  C    0.258771   0.001873   0.000426  -0.000114   0.000166  -0.000038
    16  H   -0.054204   0.000798  -0.000072  -0.000001  -0.000022   0.000026
    17  H   -0.044989   0.000001  -0.000012  -0.000005   0.000012  -0.000001
    18  H   -0.038405   0.000724   0.000005  -0.000050   0.000003  -0.000002
    19  O   -0.003460  -0.008961   0.000452  -0.000058   0.000168   0.000044
    20  H    0.001068   0.000586   0.000115   0.000003  -0.000031  -0.000006
              13         14         15         16         17         18
     1  C   -0.001766  -0.003953  -0.000082  -0.001387  -0.000094   0.000393
     2  C    0.000649  -0.000424  -0.000916   0.001104  -0.000618  -0.000068
     3  H   -0.000010  -0.000099  -0.000018  -0.000007  -0.000048   0.000006
     4  H   -0.000068   0.000146  -0.000021   0.000032  -0.000011  -0.000015
     5  H   -0.000053  -0.000356  -0.000745  -0.000749   0.000117   0.000169
     6  O    0.000864   0.000347  -0.000008  -0.000017   0.000028  -0.000026
     7  O    0.002701   0.286128   0.258771  -0.054204  -0.044989  -0.038405
     8  O    0.286540   0.042729   0.001873   0.000798   0.000001   0.000724
     9  C   -0.028885  -0.008113   0.000426  -0.000072  -0.000012   0.000005
    10  H    0.009295  -0.001963  -0.000114  -0.000001  -0.000005  -0.000050
    11  H   -0.000654  -0.003169   0.000166  -0.000022   0.000012   0.000003
    12  H   -0.011560   0.001911  -0.000038   0.000026  -0.000001  -0.000002
    13  H    0.412083  -0.007472   0.000003  -0.000296   0.000013  -0.000057
    14  H   -0.007472   0.398182  -0.035457   0.000605   0.010135  -0.013300
    15  C    0.000003  -0.035457   4.701612   0.399517   0.397039   0.415589
    16  H   -0.000296   0.000605   0.399517   0.665049  -0.043908  -0.052070
    17  H    0.000013   0.010135   0.397039  -0.043908   0.611349  -0.033931
    18  H   -0.000057  -0.013300   0.415589  -0.052070  -0.033931   0.619324
    19  O    0.012907   0.000808   0.000536   0.000542  -0.000057   0.000014
    20  H   -0.001580  -0.000221   0.000239  -0.000094  -0.000014   0.000025
              19         20
     1  C    0.284919  -0.021803
     2  C   -0.104376   0.007621
     3  H    0.001723  -0.001075
     4  H    0.006150   0.000009
     5  H    0.003585  -0.000308
     6  O   -0.098394   0.006754
     7  O   -0.003460   0.001068
     8  O   -0.008961   0.000586
     9  C    0.000452   0.000115
    10  H   -0.000058   0.000003
    11  H    0.000168  -0.000031
    12  H    0.000044  -0.000006
    13  H    0.012907  -0.001580
    14  H    0.000808  -0.000221
    15  C    0.000536   0.000239
    16  H    0.000542  -0.000094
    17  H   -0.000057  -0.000014
    18  H    0.000014   0.000025
    19  O    8.040646   0.273823
    20  H    0.273823   0.415846
 Mulliken charges:
               1
     1  C    0.347763
     2  C   -0.348684
     3  H    0.136872
     4  H    0.140823
     5  H    0.115141
     6  O   -0.303885
     7  O   -0.499295
     8  O   -0.517315
     9  C   -0.153123
    10  H    0.112569
    11  H    0.141633
    12  H    0.105134
    13  H    0.327346
    14  H    0.333538
    15  C   -0.138371
    16  H    0.085154
    17  H    0.104993
    18  H    0.101673
    19  O   -0.411011
    20  H    0.319043
 Sum of Mulliken charges =   0.00000
 Mulliken charges with hydrogens summed into heavy atoms:
               1
     1  C    0.347763
     2  C    0.044152
     6  O   -0.303885
     7  O   -0.165757
     8  O   -0.189969
     9  C    0.206214
    15  C    0.153450
    19  O   -0.091968
 APT charges:
               1
     1  C    1.143529
     2  C   -0.069572
     3  H    0.020631
     4  H    0.039882
     5  H    0.015764
     6  O   -0.715530
     7  O   -0.724528
     8  O   -0.697679
     9  C    0.463489
    10  H   -0.014353
    11  H   -0.008942
    12  H   -0.054768
    13  H    0.314613
    14  H    0.389158
    15  C    0.512428
    16  H   -0.070074
    17  H   -0.031082
    18  H   -0.066756
    19  O   -0.726418
    20  H    0.280209
 Sum of APT charges =   0.00000
 APT charges with hydrogens summed into heavy atoms:
               1
     1  C    1.143529
     2  C    0.006704
     6  O   -0.715530
     7  O   -0.335370
     8  O   -0.383066
     9  C    0.385425
    15  C    0.344517
    19  O   -0.446209
 Electronic spatial extent (au):  <R**2>=           1476.9597
 Charge=              0.0000 electrons
 Dipole moment (field-independent basis, Debye):
    X=              1.7122    Y=              1.1703    Z=              2.4644  Tot=              3.2209
 Quadrupole moment (field-independent basis, Debye-Ang):
   XX=            -42.8041   YY=            -51.1917   ZZ=            -50.8155
   XY=              3.2891   XZ=              5.0294   YZ=              0.1896
 Traceless Quadrupole moment (field-independent basis, Debye-Ang):
   XX=              5.4663   YY=             -2.9212   ZZ=             -2.5451
   XY=              3.2891   XZ=              5.0294   YZ=              0.1896
 Octapole moment (field-independent basis, Debye-Ang**2):
  XXX=             14.7474  YYY=              8.1563  ZZZ=             12.2875  XYY=             -9.2096
  XXY=             -6.4692  XXZ=             -5.2461  XZZ=              3.3392  YZZ=              1.1666
  YYZ=              5.1199  XYZ=             -1.2551
 Hexadecapole moment (field-independent basis, Debye-Ang**3):
 XXXX=           -933.4712 YYYY=           -714.4457 ZZZZ=           -177.7234 XXXY=             -1.8228
 XXXZ=             24.0104 YYYX=              4.6562 YYYZ=             -9.4165 ZZZX=              7.3702
 ZZZY=             -2.0029 XXYY=           -273.3950 XXZZ=           -193.4360 YYZZ=           -164.9395
 XXYZ=             -5.0194 YYXZ=              0.6489 ZZXY=              6.6862
 N-N= 4.086149851066D+02 E-N=-1.898661272585D+03  KE= 4.584666339818D+02
  Exact polarizability:  75.795   5.249  72.336   1.175   3.157  66.997
 Approx polarizability:  92.449   6.114  92.882   3.574   7.750 100.575
 PrsmSu:  requested number of processors reduced to:   4 ShMem   1 Linda.
 PrsmSu:  requested number of processors reduced to:   4 ShMem   1 Linda.
   1 Symmetry operations used in ECPInt.
 ECPInt:  NShTT=    9316 NPrTT=   27240 LenC2=    8948 LenP2D=   20036.
 LDataN:  DoStor=T MaxTD1= 8 Len=  415
 Calling FoFJK, ICntrl=    100127 FMM=F ISym2X=0 I1Cent= 0 IOpClX= 0 NMat=1 NMatS=1 NMatT=0.
 CoulSu:  requested number of processors reduced to:   4 ShMem   1 Linda.
 Full mass-weighted force constant matrix:
 Low frequencies ---   -0.0006   -0.0001    0.0007   21.3128   27.5012   36.8924
 Low frequencies ---   67.5879   78.4486   87.1136
 Diagonal vibrational polarizability:
       74.2439117      51.7022641      53.8523200
 Harmonic frequencies (cm**-1), IR intensities (KM/Mole), Raman scattering
 activities (A**4/AMU), depolarization ratios for plane and unpolarized
 incident light, reduced masses (AMU), force constants (mDyne/A),
 and normal coordinates:
                      1                      2                      3
                      A                      A                      A
 Frequencies --     67.1621                75.2878                86.1935
 Red. masses --      3.8194                 5.0372                 4.2367
 Frc consts  --      0.0102                 0.0168                 0.0185
 IR Inten    --      0.3911                 4.3519                 0.6988
  Atom  AN      X      Y      Z        X      Y      Z        X      Y      Z
     1   6     0.05  -0.11  -0.01     0.11   0.02  -0.04    -0.12   0.03  -0.01
     2   6     0.05  -0.12   0.02     0.11   0.06   0.20    -0.18   0.13   0.10
     3   1     0.04  -0.11   0.07     0.08   0.05   0.27    -0.15   0.16   0.08
     4   1     0.09  -0.14   0.02     0.25   0.14   0.24    -0.17   0.23   0.13
     5   1     0.02  -0.11   0.00     0.01   0.01   0.26    -0.28   0.07   0.18
     6   8     0.05  -0.09  -0.03     0.24   0.08  -0.16    -0.11   0.13  -0.09
     7   8    -0.05   0.12   0.12    -0.03  -0.09  -0.06     0.08  -0.01   0.01
     8   8     0.05   0.03   0.05    -0.11   0.05   0.10     0.09  -0.04   0.06
     9   6     0.08   0.08  -0.01    -0.23   0.07   0.15     0.15  -0.08   0.06
    10   1     0.10   0.10  -0.01    -0.24   0.11   0.20     0.13  -0.12   0.04
    11   1     0.10   0.12  -0.01    -0.30   0.03   0.09     0.18  -0.06   0.09
    12   1     0.07   0.06  -0.07    -0.24   0.10   0.18     0.18  -0.09   0.07
    13   1     0.05   0.01   0.03    -0.10   0.01   0.05     0.11   0.00   0.07
    14   1    -0.03   0.10   0.14    -0.03  -0.07  -0.03     0.04   0.04   0.04
    15   6    -0.25   0.20  -0.13    -0.01  -0.07  -0.09     0.13   0.08  -0.16
    16   1    -0.35   0.38  -0.12    -0.01  -0.05  -0.08     0.11   0.22  -0.15
    17   1    -0.30   0.24  -0.16     0.00  -0.08  -0.10     0.17   0.00  -0.22
    18   1    -0.26   0.03  -0.29    -0.01  -0.07  -0.09     0.16   0.07  -0.23
    19   8     0.03  -0.13  -0.02    -0.04  -0.11  -0.11    -0.07  -0.21   0.00
    20   1     0.03  -0.14  -0.01    -0.10  -0.16  -0.01    -0.08  -0.29   0.10
                      4                      5                      6
                      A                      A                      A
 Frequencies --     95.7413                97.9238               108.5542
 Red. masses --      3.3827                 4.9721                 3.5590
 Frc consts  --      0.0183                 0.0281                 0.0247
 IR Inten    --      6.6113                 9.7637                 5.3889
  Atom  AN      X      Y      Z        X      Y      Z        X      Y      Z
     1   6     0.02   0.00   0.02     0.00   0.06  -0.05    -0.01  -0.02  -0.04
     2   6    -0.09   0.15  -0.08     0.05  -0.02  -0.06     0.01  -0.03   0.01
     3   1     0.00   0.25  -0.14     0.02  -0.08  -0.06    -0.02  -0.04   0.06
     4   1    -0.20   0.17  -0.09     0.07  -0.05  -0.07     0.07  -0.04   0.02
     5   1    -0.15   0.14  -0.07     0.12  -0.01  -0.07     0.00  -0.02   0.00
     6   8     0.02  -0.05   0.06     0.00   0.03  -0.03     0.09  -0.09  -0.05
     7   8    -0.02  -0.16   0.06     0.19  -0.11   0.33    -0.15  -0.02  -0.01
     8   8    -0.04   0.00   0.09    -0.15  -0.10   0.00    -0.12   0.03   0.16
     9   6     0.00   0.22  -0.15    -0.08  -0.11  -0.02     0.23   0.00  -0.04
    10   1     0.07   0.37  -0.11    -0.09  -0.14  -0.05     0.26  -0.09  -0.18
    11   1     0.05   0.33  -0.14    -0.05  -0.09   0.00     0.45   0.17   0.11
    12   1    -0.10   0.15  -0.36    -0.07  -0.13  -0.04     0.26  -0.09  -0.19
    13   1    -0.10  -0.12   0.07    -0.14  -0.07   0.01    -0.10   0.13   0.21
    14   1    -0.02  -0.12   0.16     0.06  -0.01   0.24    -0.18   0.05   0.13
    15   6     0.00  -0.09  -0.07     0.05   0.08  -0.12     0.11   0.02   0.03
    16   1     0.01   0.03  -0.06    -0.13   0.43  -0.11     0.23   0.03   0.04
    17   1     0.01  -0.13  -0.15     0.08   0.02  -0.20     0.18  -0.11  -0.06
    18   1     0.01  -0.12  -0.11     0.11  -0.06  -0.42     0.13   0.16   0.14
    19   8     0.13  -0.06   0.06    -0.05   0.16  -0.06    -0.14   0.09  -0.09
    20   1     0.11  -0.04   0.04    -0.10   0.23  -0.12    -0.17   0.12  -0.11
                      7                      8                      9
                      A                      A                      A
 Frequencies --    110.5461               128.9338               142.7258
 Red. masses --      4.3691                 4.2944                 3.2773
 Frc consts  --      0.0315                 0.0421                 0.0393
 IR Inten    --     11.7954                 4.4789                 1.6728
  Atom  AN      X      Y      Z        X      Y      Z        X      Y      Z
     1   6    -0.02   0.08   0.01    -0.06   0.00  -0.04     0.03  -0.02   0.00
     2   6     0.16  -0.18   0.05    -0.09   0.05   0.01    -0.02   0.04  -0.05
     3   1     0.04  -0.36   0.06    -0.09   0.08   0.05     0.03   0.08  -0.09
     4   1     0.23  -0.19   0.06    -0.06   0.04   0.01    -0.07   0.06  -0.05
     5   1     0.34  -0.18   0.07    -0.16   0.05  -0.01    -0.04   0.03  -0.04
     6   8    -0.18   0.27  -0.04     0.05  -0.10  -0.04    -0.01   0.01  -0.01
     7   8     0.00  -0.11  -0.05     0.17  -0.10   0.06     0.09   0.00   0.01
     8   8     0.00   0.01   0.09     0.17   0.14  -0.02    -0.23   0.21  -0.06
     9   6     0.12   0.07  -0.04     0.09   0.09   0.07     0.08  -0.10   0.04
    10   1     0.15   0.09  -0.07     0.10   0.09   0.06     0.11  -0.32  -0.25
    11   1     0.21   0.16   0.00     0.05   0.00   0.07     0.27  -0.19   0.27
    12   1     0.10   0.01  -0.16     0.07   0.15   0.16     0.09  -0.03   0.17
    13   1    -0.02   0.01   0.11     0.16   0.13   0.00    -0.31   0.35   0.21
    14   1     0.06  -0.16  -0.02     0.20  -0.18  -0.07     0.05  -0.01  -0.14
    15   6    -0.12  -0.14  -0.05    -0.15  -0.17   0.05    -0.05  -0.04   0.04
    16   1    -0.13  -0.15  -0.05    -0.31  -0.22   0.04    -0.17  -0.10   0.03
    17   1    -0.17  -0.07  -0.03    -0.25   0.00   0.20    -0.07   0.02   0.16
    18   1    -0.15  -0.22  -0.07    -0.18  -0.34  -0.07    -0.04  -0.09  -0.04
    19   8     0.02   0.04   0.02    -0.18   0.08  -0.08     0.11  -0.10   0.02
    20   1     0.14  -0.05   0.07    -0.27   0.15  -0.12     0.18  -0.15   0.04
                     10                     11                     12
                      A                      A                      A
 Frequencies --    189.5145               199.8460               214.0844
 Red. masses --      4.7253                 1.0295                 1.0218
 Frc consts  --      0.1000                 0.0242                 0.0276
 IR Inten    --      3.6323                 0.0255                 0.7206
  Atom  AN      X      Y      Z        X      Y      Z        X      Y      Z
     1   6    -0.01  -0.01   0.00     0.00  -0.01  -0.01     0.00   0.00   0.00
     2   6    -0.03   0.02  -0.01     0.00   0.00   0.00     0.00   0.00   0.01
     3   1    -0.02   0.04  -0.02    -0.07   0.25   0.55     0.00  -0.01  -0.02
     4   1    -0.05   0.02  -0.02     0.32  -0.43  -0.05    -0.01   0.02   0.01
     5   1    -0.05   0.02  -0.02    -0.30   0.25  -0.43     0.01  -0.01   0.03
     6   8     0.01  -0.05   0.01    -0.02   0.01  -0.01     0.00   0.00   0.00
     7   8     0.27   0.18  -0.17     0.00   0.00   0.01     0.01   0.00   0.01
     8   8    -0.14  -0.19   0.22     0.00   0.00   0.00     0.00   0.01  -0.02
     9   6    -0.01   0.02  -0.05     0.00   0.00   0.00     0.00  -0.01  -0.01
    10   1     0.05   0.12  -0.03     0.01   0.01  -0.01     0.09   0.03  -0.11
    11   1     0.07   0.17  -0.03     0.00   0.00   0.00     0.03  -0.12   0.08
    12   1    -0.08  -0.10  -0.30    -0.01   0.00  -0.01    -0.13   0.07   0.02
    13   1    -0.16  -0.25   0.18     0.00  -0.01   0.00    -0.03  -0.01   0.02
    14   1     0.39   0.03  -0.26     0.01   0.00   0.01     0.04  -0.02   0.06
    15   6    -0.06   0.03   0.03     0.01   0.00   0.01     0.00   0.00   0.00
    16   1    -0.08  -0.18   0.01     0.03   0.00   0.01     0.53   0.12   0.05
    17   1    -0.22   0.26   0.16     0.00   0.00  -0.01    -0.28   0.16  -0.47
    18   1    -0.16  -0.15   0.06     0.00  -0.01   0.03    -0.29  -0.26   0.39
    19   8    -0.03   0.02  -0.01     0.02   0.00  -0.01    -0.01   0.00   0.00
    20   1    -0.04   0.02  -0.02     0.04  -0.01  -0.01     0.00  -0.01   0.00
                     13                     14                     15
                      A                      A                      A
 Frequencies --    222.8497               442.3255               532.5729
 Red. masses --      1.0393                 2.7774                 1.2847
 Frc consts  --      0.0304                 0.3202                 0.2147
 IR Inten    --      0.5823                 0.6407               160.8490
  Atom  AN      X      Y      Z        X      Y      Z        X      Y      Z
     1   6     0.00  -0.01   0.01    -0.03  -0.04  -0.13    -0.05   0.06  -0.02
     2   6     0.00   0.00   0.00    -0.04   0.02   0.19    -0.02  -0.02  -0.01
     3   1     0.00   0.00   0.01    -0.12  -0.05   0.27    -0.13  -0.15   0.06
     4   1     0.00  -0.01   0.00     0.24   0.38   0.32     0.07  -0.06   0.00
     5   1    -0.01   0.00   0.00    -0.25  -0.17   0.46     0.11  -0.01   0.00
     6   8     0.00  -0.01   0.01    -0.13  -0.11  -0.04     0.02   0.00  -0.02
     7   8     0.02  -0.01   0.00     0.00   0.00   0.00     0.00   0.00   0.00
     8   8    -0.02   0.03  -0.01     0.00   0.00   0.00    -0.01   0.01   0.01
     9   6     0.01   0.00   0.00     0.00   0.00   0.00     0.00   0.00   0.00
    10   1    -0.36  -0.21   0.37    -0.01   0.00   0.01     0.00  -0.01  -0.01
    11   1    -0.11   0.42  -0.31    -0.01   0.00  -0.01     0.01   0.00   0.01
    12   1     0.51  -0.26  -0.05     0.01   0.00   0.00     0.00   0.00   0.00
    13   1     0.03   0.07  -0.06    -0.05  -0.02   0.05     0.02   0.00  -0.04
    14   1     0.00   0.00  -0.02     0.01  -0.01   0.02    -0.06   0.03  -0.11
    15   6     0.00  -0.01   0.00     0.00   0.00   0.00     0.00   0.00   0.00
    16   1     0.13   0.02   0.01     0.00   0.00   0.00     0.01   0.00   0.01
    17   1    -0.08   0.04  -0.12     0.00   0.00   0.00    -0.01   0.00   0.00
    18   1    -0.08  -0.09   0.09     0.00   0.00   0.00    -0.01  -0.01   0.02
    19   8     0.00  -0.01   0.01     0.17   0.11  -0.06     0.07  -0.06   0.05
    20   1     0.00  -0.01   0.01     0.26   0.20  -0.24    -0.70   0.58  -0.28
                     16                     17                     18
                      A                      A                      A
 Frequencies --    564.5551               610.7881               613.5245
 Red. masses --      1.2177                 2.7893                 2.4384
 Frc consts  --      0.2287                 0.6131                 0.5408
 IR Inten    --    206.3098                13.7530                 6.0372
  Atom  AN      X      Y      Z        X      Y      Z        X      Y      Z
     1   6     0.05  -0.02   0.00     0.09   0.00  -0.03    -0.15   0.25  -0.07
     2   6     0.04   0.03   0.00     0.19   0.12  -0.01     0.03   0.04   0.00
     3   1     0.09   0.10  -0.01     0.25   0.22  -0.01    -0.31  -0.40   0.13
     4   1     0.02   0.08   0.01     0.19   0.21   0.01     0.34  -0.09   0.01
     5   1    -0.04   0.01   0.03     0.07   0.09   0.03     0.42   0.07   0.00
     6   8    -0.05  -0.01   0.04    -0.15  -0.04   0.15     0.03  -0.11   0.09
     7   8     0.01  -0.01   0.01    -0.01   0.01  -0.01     0.01   0.00   0.00
     8   8    -0.04  -0.01   0.04     0.02   0.01  -0.02    -0.01   0.00   0.01
     9   6     0.00   0.00   0.00     0.00   0.00   0.00     0.00   0.00   0.00
    10   1     0.05   0.01  -0.07    -0.03  -0.02   0.03     0.01   0.00  -0.01
    11   1     0.05  -0.02   0.05    -0.01   0.01  -0.02     0.00   0.00   0.01
    12   1    -0.05   0.01  -0.03     0.04   0.00   0.03    -0.01   0.00  -0.01
    13   1     0.54   0.31  -0.62    -0.34  -0.21   0.36     0.08   0.05  -0.09
    14   1    -0.21   0.12  -0.30     0.16  -0.10   0.22    -0.04   0.03  -0.05
    15   6     0.00   0.00   0.00     0.00   0.00   0.00     0.00   0.00   0.00
    16   1     0.02   0.00   0.00    -0.01   0.00   0.00     0.00   0.00   0.00
    17   1    -0.02   0.01  -0.02     0.02  -0.01   0.02    -0.01   0.01   0.00
    18   1    -0.02  -0.03   0.01     0.01   0.03   0.00    -0.01  -0.01   0.00
    19   8    -0.01  -0.02  -0.03    -0.06  -0.09  -0.12     0.01  -0.06  -0.05
    20   1    -0.10   0.00   0.00    -0.52   0.09  -0.08     0.24  -0.40   0.23
                     19                     20                     21
                      A                      A                      A
 Frequencies --    788.2799               842.5350               996.1204
 Red. masses --      1.0589                 6.1833                 1.5929
 Frc consts  --      0.3877                 2.5861                 0.9313
 IR Inten    --     63.9816                31.1678                14.6933
  Atom  AN      X      Y      Z        X      Y      Z        X      Y      Z
     1   6     0.00   0.01  -0.01     0.14   0.08   0.14    -0.10  -0.05   0.07
     2   6    -0.01   0.00   0.00    -0.28  -0.18   0.07     0.05   0.08   0.13
     3   1    -0.03  -0.03   0.01    -0.24  -0.18  -0.02     0.17   0.04  -0.22
     4   1     0.01   0.00   0.00    -0.50  -0.36   0.00    -0.38  -0.37  -0.05
     5   1     0.00  -0.01   0.01    -0.19  -0.12  -0.02     0.49   0.36  -0.26
     6   8     0.00   0.00   0.00     0.05   0.12   0.23    -0.02  -0.03  -0.04
     7   8    -0.01   0.01  -0.03     0.00   0.00   0.00     0.00   0.00   0.00
     8   8    -0.02   0.02   0.01     0.00   0.01   0.00     0.01   0.01   0.01
     9   6    -0.01  -0.02  -0.01     0.00   0.00   0.00    -0.01  -0.01  -0.02
    10   1    -0.01  -0.06  -0.06    -0.01  -0.03  -0.01    -0.01  -0.02  -0.02
    11   1     0.02  -0.02   0.03     0.02   0.00   0.02     0.00  -0.01   0.00
    12   1     0.02   0.00   0.03     0.02   0.00   0.02     0.00  -0.01   0.00
    13   1     0.23   0.10  -0.32    -0.04  -0.08  -0.03     0.03   0.00  -0.04
    14   1     0.45  -0.21   0.75     0.05  -0.03   0.05     0.01   0.00   0.04
    15   6     0.00   0.00   0.00     0.00   0.00   0.00     0.00   0.00   0.00
    16   1    -0.03  -0.04  -0.01     0.00   0.00   0.00     0.00   0.00   0.00
    17   1     0.00   0.02   0.06     0.01  -0.01   0.00     0.00   0.01   0.01
    18   1     0.00   0.01   0.00     0.00   0.01   0.00     0.00   0.00   0.00
    19   8     0.00   0.00   0.02     0.13   0.00  -0.38     0.03   0.00  -0.06
    20   1    -0.05   0.03   0.01    -0.24  -0.05  -0.11     0.18   0.13  -0.30
                     22                     23                     24
                      A                      A                      A
 Frequencies --   1027.7092              1048.3790              1070.3833
 Red. masses --      7.4465                 6.6899                 1.7799
 Frc consts  --      4.6339                 4.3322                 1.2015
 IR Inten    --    116.7026                94.7101                 7.3776
  Atom  AN      X      Y      Z        X      Y      Z        X      Y      Z
     1   6     0.00   0.01   0.00     0.04  -0.06   0.02    -0.11   0.14  -0.04
     2   6     0.01  -0.02  -0.03    -0.04   0.06  -0.01     0.09  -0.13   0.05
     3   1     0.01   0.04   0.04    -0.21  -0.19   0.03     0.51   0.45  -0.10
     4   1     0.07   0.10   0.01     0.15  -0.08  -0.01    -0.41   0.13   0.02
     5   1    -0.13  -0.08   0.05     0.24   0.05   0.04    -0.49  -0.06  -0.13
     6   8     0.01   0.00   0.00    -0.01   0.01  -0.01     0.02  -0.03   0.00
     7   8    -0.01   0.05   0.03    -0.08   0.38   0.18    -0.01   0.04   0.02
     8   8     0.20   0.28   0.31    -0.03  -0.03  -0.03    -0.01  -0.01  -0.01
     9   6    -0.23  -0.32  -0.36     0.02   0.03   0.04     0.00   0.01   0.01
    10   1    -0.19  -0.23  -0.28     0.02   0.01   0.02     0.00  -0.01  -0.01
    11   1    -0.06  -0.20  -0.20     0.02   0.02   0.03     0.01   0.01   0.02
    12   1    -0.10  -0.24  -0.18     0.02   0.02   0.02     0.02   0.01   0.02
    13   1     0.09  -0.09   0.15     0.01   0.00  -0.06     0.00  -0.02  -0.03
    14   1    -0.12   0.07  -0.18     0.16   0.08   0.00     0.01   0.03   0.03
    15   6     0.01  -0.06  -0.03     0.08  -0.44  -0.21     0.01  -0.05  -0.02
    16   1     0.01  -0.03  -0.02     0.10  -0.27  -0.16     0.00  -0.05  -0.02
    17   1     0.00  -0.03  -0.02     0.07  -0.37  -0.15     0.00  -0.01   0.00
    18   1     0.01  -0.04  -0.01     0.10  -0.22  -0.11     0.01  -0.05  -0.02
    19   8    -0.01   0.00   0.01     0.00   0.00   0.00     0.03  -0.01   0.00
    20   1    -0.02  -0.04   0.08    -0.01   0.02  -0.02    -0.05  -0.03   0.07
                     25                     26                     27
                      A                      A                      A
 Frequencies --   1119.4376              1131.9987              1179.6493
 Red. masses --      1.1122                 1.1375                 1.2643
 Frc consts  --      0.8211                 0.8588                 1.0366
 IR Inten    --     12.2289                14.6884                 0.5485
  Atom  AN      X      Y      Z        X      Y      Z        X      Y      Z
     1   6     0.01   0.01  -0.01     0.00  -0.01   0.00     0.00   0.00   0.00
     2   6     0.00   0.00   0.01     0.00   0.00   0.00     0.00   0.00   0.00
     3   1     0.01   0.00  -0.01    -0.01  -0.01   0.01     0.00   0.00   0.00
     4   1    -0.03  -0.01   0.00     0.02   0.00   0.00     0.00   0.00   0.00
     5   1    -0.01   0.01  -0.01     0.01   0.00   0.01     0.00   0.00   0.00
     6   8     0.00   0.00   0.01     0.00   0.00   0.00     0.00   0.00   0.00
     7   8     0.00   0.00   0.00    -0.02  -0.02   0.01    -0.03   0.02  -0.05
     8   8    -0.02   0.01  -0.01     0.00   0.00   0.00     0.00   0.00   0.00
     9   6     0.05  -0.08   0.00     0.01   0.00   0.00     0.00   0.00   0.00
    10   1     0.17   0.44   0.37     0.00   0.02   0.03     0.00   0.00   0.00
    11   1    -0.24  -0.03  -0.31    -0.03  -0.02  -0.03     0.00   0.00   0.00
    12   1    -0.30  -0.04  -0.23    -0.02   0.02   0.02     0.00   0.00   0.00
    13   1     0.11   0.49   0.26    -0.02   0.01   0.05     0.00   0.00   0.00
    14   1     0.06  -0.04   0.05    -0.28   0.34   0.24     0.00   0.01   0.01
    15   6     0.00   0.00   0.00     0.09   0.02  -0.05     0.07  -0.04   0.11
    16   1     0.01   0.02   0.00    -0.15  -0.39  -0.10    -0.28   0.58   0.13
    17   1     0.01  -0.03  -0.01    -0.21   0.51   0.31    -0.14   0.11  -0.20
    18   1     0.01   0.02   0.00    -0.12  -0.36   0.02     0.08  -0.53  -0.45
    19   8     0.00  -0.01   0.00     0.00   0.00   0.00     0.00   0.00   0.00
    20   1     0.00   0.02  -0.03     0.01   0.01  -0.02     0.00   0.00   0.00
                     28                     29                     30
                      A                      A                      A
 Frequencies --   1186.5158              1195.2470              1287.8706
 Red. masses --      1.2568                 2.0046                 1.7035
 Frc consts  --      1.0425                 1.6873                 1.6647
 IR Inten    --      0.4819                22.7444               315.3735
  Atom  AN      X      Y      Z        X      Y      Z        X      Y      Z
     1   6     0.00   0.00   0.00    -0.17  -0.05   0.17     0.10   0.06  -0.14
     2   6     0.00   0.00   0.00     0.05  -0.01  -0.11    -0.02  -0.02   0.03
     3   1     0.00   0.00   0.00     0.01   0.14   0.21    -0.05  -0.11  -0.06
     4   1    -0.01  -0.01   0.00     0.38   0.39   0.04    -0.16  -0.07   0.00
     5   1     0.00   0.00   0.00    -0.11  -0.15   0.13    -0.10   0.03  -0.07
     6   8     0.00   0.00   0.00     0.05   0.04   0.04     0.01   0.02   0.07
     7   8     0.00   0.00   0.00     0.00   0.00   0.00     0.00   0.00   0.00
     8   8     0.04   0.02  -0.04     0.00   0.00   0.00     0.01  -0.01   0.00
     9   6    -0.08  -0.04   0.09     0.00   0.00   0.01    -0.02   0.01  -0.01
    10   1     0.18   0.10  -0.18     0.02   0.03   0.02    -0.03  -0.08  -0.08
    11   1     0.32   0.49   0.28     0.01   0.02   0.00     0.02  -0.01   0.04
    12   1    -0.11  -0.40  -0.55    -0.01  -0.01  -0.01     0.05  -0.01   0.01
    13   1     0.00   0.00   0.00     0.03   0.02  -0.05     0.02   0.06   0.06
    14   1     0.01   0.00   0.02     0.03  -0.01   0.04    -0.01   0.00  -0.02
    15   6     0.01   0.00   0.00     0.00   0.00   0.00     0.00   0.00   0.00
    16   1    -0.01  -0.02  -0.01     0.01   0.01   0.00     0.00  -0.01   0.00
    17   1    -0.01   0.03   0.02     0.01  -0.02  -0.01     0.00  -0.01  -0.01
    18   1    -0.01  -0.02   0.00     0.00   0.01   0.00     0.01   0.00  -0.01
    19   8     0.00   0.00   0.00    -0.01  -0.04  -0.07    -0.08  -0.06   0.06
    20   1    -0.01   0.00   0.01     0.37   0.19  -0.56     0.54   0.27  -0.70
                     31                     32                     33
                      A                      A                      A
 Frequencies --   1404.8996              1411.6468              1444.8290
 Red. masses --      1.2566                 1.2537                 1.2008
 Frc consts  --      1.4613                 1.4719                 1.4770
 IR Inten    --     33.1407                26.5570                27.4205
  Atom  AN      X      Y      Z        X      Y      Z        X      Y      Z
     1   6     0.02   0.01  -0.03    -0.02  -0.01   0.02     0.00   0.00   0.00
     2   6    -0.12  -0.07   0.01     0.04   0.02  -0.01     0.01   0.00   0.00
     3   1     0.33   0.50  -0.13    -0.11  -0.15   0.07    -0.01  -0.01   0.01
     4   1     0.43   0.11   0.13    -0.15  -0.03  -0.05    -0.03  -0.03  -0.01
     5   1     0.52   0.05  -0.07    -0.16  -0.02   0.04    -0.02  -0.01   0.03
     6   8     0.00   0.00   0.01     0.00   0.00  -0.01     0.00   0.00   0.00
     7   8     0.00   0.00   0.00     0.00   0.00   0.00     0.06   0.00  -0.04
     8   8     0.01  -0.02   0.00     0.03  -0.07   0.00     0.01  -0.01  -0.01
     9   6    -0.03   0.02  -0.01    -0.07   0.06  -0.04     0.00  -0.01   0.00
    10   1    -0.04  -0.07  -0.09    -0.13  -0.18  -0.22    -0.01   0.01   0.01
    11   1     0.02  -0.03   0.06     0.09  -0.09   0.19     0.03   0.05   0.02
    12   1     0.08  -0.01   0.01     0.23  -0.03   0.05    -0.02   0.02   0.03
    13   1     0.06   0.22   0.16     0.18   0.66   0.45    -0.02   0.01   0.05
    14   1    -0.01   0.02   0.02     0.03  -0.04   0.01    -0.39   0.65   0.45
    15   6     0.00   0.00   0.00     0.00   0.00   0.00    -0.08  -0.05   0.03
    16   1     0.01   0.01   0.00    -0.01   0.01   0.00     0.23   0.09   0.06
    17   1     0.00  -0.01   0.00     0.00   0.01   0.02     0.04  -0.24  -0.09
    18   1     0.00   0.01   0.00    -0.01  -0.01   0.02     0.10   0.14  -0.17
    19   8     0.00   0.00   0.01     0.01   0.00  -0.01     0.00   0.00   0.00
    20   1    -0.01   0.00   0.01    -0.08  -0.02   0.07    -0.01   0.00   0.01
                     34                     35                     36
                      A                      A                      A
 Frequencies --   1465.5532              1480.9819              1482.0705
 Red. masses --      1.0503                 1.1293                 1.1343
 Frc consts  --      1.3291                 1.4594                 1.4680
 IR Inten    --      8.7747                 6.2522                 1.6346
  Atom  AN      X      Y      Z        X      Y      Z        X      Y      Z
     1   6     0.02   0.02  -0.01     0.01   0.01   0.00     0.00   0.00   0.00
     2   6     0.01  -0.01  -0.05     0.00   0.00   0.00     0.00   0.00   0.00
     3   1    -0.07   0.31   0.62     0.00   0.01   0.03     0.01   0.02  -0.02
     4   1    -0.46  -0.03  -0.11    -0.02   0.02   0.00     0.02  -0.04  -0.01
     5   1     0.40  -0.19   0.31     0.02   0.00  -0.01     0.00  -0.02   0.03
     6   8    -0.01  -0.01  -0.01     0.00   0.00   0.00     0.00   0.00   0.00
     7   8     0.00   0.00   0.00     0.00  -0.01   0.00     0.00   0.01   0.01
     8   8     0.00   0.00   0.00    -0.01  -0.01  -0.01     0.00  -0.01  -0.01
     9   6     0.00   0.00   0.00    -0.04  -0.04  -0.06    -0.03  -0.03  -0.05
    10   1     0.00  -0.01  -0.01     0.03   0.37   0.32     0.01   0.28   0.25
    11   1    -0.01  -0.01  -0.01     0.36   0.15   0.28     0.28   0.12   0.22
    12   1    -0.01   0.00  -0.01     0.14   0.10   0.33     0.10   0.09   0.26
    13   1     0.00  -0.01  -0.01     0.00  -0.01  -0.02     0.00   0.01   0.00
    14   1     0.01  -0.01  -0.01     0.00  -0.04  -0.03     0.01   0.00  -0.01
    15   6     0.00   0.00   0.00     0.01  -0.06  -0.02     0.00   0.08   0.03
    16   1     0.00   0.00   0.00     0.03   0.33   0.02    -0.11  -0.45  -0.03
    17   1     0.01  -0.01   0.00    -0.19   0.28   0.21     0.20  -0.33  -0.34
    18   1    -0.01  -0.02   0.00     0.09   0.28   0.13    -0.10  -0.32  -0.13
    19   8     0.00   0.00   0.00     0.00   0.00   0.00     0.00   0.00   0.00
    20   1     0.03   0.00  -0.01     0.01   0.00  -0.01     0.00   0.00   0.00
                     37                     38                     39
                      A                      A                      A
 Frequencies --   1492.5415              1495.9264              1498.8244
 Red. masses --      1.0515                 1.0522                 1.0495
 Frc consts  --      1.3801                 1.3873                 1.3891
 IR Inten    --     10.7122                 1.3439                 2.4853
  Atom  AN      X      Y      Z        X      Y      Z        X      Y      Z
     1   6     0.02  -0.02   0.00     0.00   0.00   0.00     0.00   0.00   0.00
     2   6     0.01  -0.06   0.01     0.00   0.00   0.00     0.00   0.00   0.00
     3   1    -0.18  -0.16   0.23     0.00  -0.01  -0.01     0.00   0.00   0.00
     4   1    -0.20   0.65   0.14     0.00   0.01   0.00     0.00   0.00   0.00
     5   1     0.16   0.31  -0.52     0.00   0.01  -0.02     0.00   0.00   0.00
     6   8     0.00   0.00   0.00     0.00   0.00   0.00     0.00   0.00   0.00
     7   8     0.00   0.00   0.00    -0.01   0.00   0.00     0.00   0.00   0.00
     8   8     0.00   0.00   0.00     0.00   0.00   0.00    -0.01   0.00   0.00
     9   6     0.00   0.00   0.00     0.00   0.00  -0.01    -0.05  -0.03   0.03
    10   1     0.00   0.01   0.01    -0.07  -0.02   0.09     0.48   0.34  -0.42
    11   1     0.01   0.00   0.01     0.07   0.00   0.06    -0.26   0.11  -0.27
    12   1     0.00   0.00   0.00    -0.06   0.02  -0.01     0.46  -0.09   0.29
    13   1     0.00   0.00   0.00     0.00  -0.01  -0.01    -0.01  -0.02  -0.01
    14   1    -0.01   0.01   0.00     0.02  -0.03  -0.03    -0.01   0.00  -0.01
    15   6     0.00   0.01   0.01    -0.03   0.03  -0.04    -0.01   0.00  -0.01
    16   1     0.02  -0.06   0.00     0.37   0.27   0.03     0.06   0.03   0.00
    17   1     0.00  -0.01  -0.04     0.35  -0.21   0.58     0.05  -0.04   0.08
    18   1     0.01  -0.01  -0.05    -0.22  -0.44  -0.02    -0.03  -0.07  -0.01
    19   8     0.00   0.00   0.00     0.00   0.00   0.00     0.00   0.00   0.00
    20   1    -0.03  -0.02   0.05     0.00   0.00   0.00     0.00   0.00   0.00
                     40                     41                     42
                      A                      A                      A
 Frequencies --   1516.4833              1519.8144              1808.6165
 Red. masses --      1.0435                 1.0409                 9.5535
 Frc consts  --      1.4138                 1.4166                18.4122
 IR Inten    --      4.6877                 3.2018               243.7254
  Atom  AN      X      Y      Z        X      Y      Z        X      Y      Z
     1   6     0.00   0.00   0.00     0.00   0.00   0.00     0.34   0.40   0.47
     2   6     0.00   0.00   0.00     0.00   0.00   0.00    -0.04  -0.04  -0.03
     3   1     0.01   0.01  -0.01     0.00   0.00   0.00    -0.03  -0.07  -0.07
     4   1     0.01  -0.03  -0.01     0.00  -0.01   0.00     0.18   0.10   0.06
     5   1     0.00  -0.02   0.03     0.00  -0.01   0.01    -0.19  -0.04  -0.02
     6   8     0.00   0.00   0.00     0.00   0.00   0.00    -0.19  -0.24  -0.32
     7   8    -0.02   0.00   0.01    -0.01   0.00   0.01     0.00   0.00   0.00
     8   8     0.00   0.01   0.00     0.01  -0.02   0.00     0.00  -0.01   0.00
     9   6    -0.01   0.02   0.00     0.01  -0.04   0.00     0.00   0.01   0.00
    10   1     0.01   0.11   0.10    -0.02  -0.22  -0.19     0.01  -0.02  -0.04
    11   1    -0.01  -0.27   0.10     0.05   0.58  -0.21    -0.04  -0.01  -0.02
    12   1     0.17  -0.15  -0.13    -0.35   0.33   0.31     0.01  -0.01  -0.02
    13   1    -0.01  -0.03  -0.03     0.03   0.10   0.07     0.00   0.07   0.04
    14   1     0.07  -0.12  -0.08     0.05  -0.10  -0.07    -0.03   0.04   0.05
    15   6    -0.03   0.01   0.03    -0.01   0.01   0.01     0.00   0.00   0.00
    16   1     0.51  -0.26   0.02     0.23  -0.12   0.01     0.01  -0.01   0.00
    17   1    -0.17   0.22   0.06    -0.08   0.12   0.04     0.01  -0.01   0.00
    18   1     0.25   0.04  -0.56     0.11   0.02  -0.25     0.00   0.00   0.00
    19   8     0.00   0.00   0.00     0.00   0.00   0.00    -0.04  -0.04   0.00
    20   1     0.00   0.00   0.00    -0.01   0.00   0.00     0.23   0.15  -0.33
                     43                     44                     45
                      A                      A                      A
 Frequencies --   2948.1019              2981.0167              2991.7699
 Red. masses --      1.0377                 1.0353                 1.1017
 Frc consts  --      5.3139                 5.4205                 5.8101
 IR Inten    --     76.4917                64.5609                66.0443
  Atom  AN      X      Y      Z        X      Y      Z        X      Y      Z
     1   6     0.00   0.00   0.00     0.00   0.00   0.00     0.00   0.00   0.00
     2   6     0.00   0.00   0.00     0.00   0.00   0.00     0.00   0.00   0.00
     3   1     0.00   0.00   0.00     0.00   0.00   0.00     0.00   0.00   0.00
     4   1     0.00   0.00   0.00     0.00   0.00   0.00     0.00   0.00   0.00
     5   1     0.00   0.00   0.00     0.00   0.00   0.00     0.00   0.00   0.00
     6   8     0.00   0.00   0.00     0.00   0.00   0.00     0.00   0.00   0.00
     7   8     0.00   0.00   0.00     0.00   0.00   0.00     0.00   0.00   0.00
     8   8     0.00   0.00   0.00     0.00   0.00   0.00     0.00   0.00   0.00
     9   6     0.00   0.00   0.00    -0.02  -0.05  -0.01     0.00   0.00   0.00
    10   1     0.00   0.00   0.00     0.25  -0.18   0.16     0.00   0.00   0.00
    11   1     0.00   0.00   0.00    -0.35   0.13   0.34    -0.01   0.00   0.01
    12   1     0.01   0.01  -0.01     0.30   0.63  -0.37     0.01   0.02  -0.01
    13   1     0.00   0.00   0.00    -0.01   0.00  -0.01     0.00   0.00   0.00
    14   1    -0.02  -0.02   0.00    -0.01  -0.01   0.00     0.01   0.00   0.00
    15   6     0.02  -0.02  -0.04     0.00   0.00   0.00    -0.05   0.03  -0.07
    16   1    -0.05  -0.07   0.80     0.00   0.00  -0.03    -0.05  -0.05   0.55
    17   1     0.21   0.17  -0.07     0.00   0.00   0.00    -0.08  -0.04   0.00
    18   1    -0.44   0.20  -0.21    -0.01   0.00   0.00     0.71  -0.30   0.29
    19   8     0.00   0.00   0.00     0.00   0.00   0.00     0.00   0.00   0.00
    20   1     0.00   0.00   0.00     0.00   0.00   0.00     0.00   0.00   0.00
                     46                     47                     48
                      A                      A                      A
 Frequencies --   3008.2317              3042.4772              3059.2084
 Red. masses --      1.0406                 1.1019                 1.0973
 Frc consts  --      5.5484                 6.0099                 6.0506
 IR Inten    --      3.9844                29.4733                44.6744
  Atom  AN      X      Y      Z        X      Y      Z        X      Y      Z
     1   6     0.00   0.00   0.00     0.00   0.00   0.00     0.00   0.00   0.00
     2   6    -0.05  -0.01  -0.02     0.00   0.00   0.00     0.00   0.00   0.00
     3   1     0.62  -0.42   0.26     0.00   0.00   0.00     0.00   0.00   0.00
     4   1     0.04   0.08  -0.33     0.00   0.00   0.00     0.00   0.00   0.00
     5   1    -0.05   0.43   0.26     0.00   0.00   0.00     0.00   0.00   0.00
     6   8     0.00   0.00   0.00     0.00   0.00   0.00     0.00   0.00   0.00
     7   8     0.00   0.00   0.00     0.00   0.00   0.00     0.00   0.00   0.00
     8   8     0.00   0.00   0.00     0.00   0.00   0.00     0.00   0.00   0.00
     9   6     0.00   0.00   0.00    -0.05  -0.03   0.07     0.00   0.00   0.00
    10   1     0.00   0.00   0.00    -0.19   0.11  -0.09     0.00   0.00   0.00
    11   1     0.00   0.00   0.00     0.54  -0.23  -0.51     0.00   0.00   0.00
    12   1     0.00   0.00   0.00     0.21   0.47  -0.27     0.00   0.00   0.00
    13   1     0.00   0.00   0.00     0.00   0.00   0.00     0.00   0.00   0.00
    14   1     0.00   0.00   0.00     0.00   0.00   0.00    -0.02  -0.01   0.01
    15   6     0.00   0.00   0.00     0.00   0.00   0.00    -0.08  -0.04   0.03
    16   1     0.00   0.00   0.00     0.00   0.00   0.00    -0.01   0.01  -0.17
    17   1     0.00   0.00   0.00     0.00   0.00   0.00     0.73   0.58  -0.22
    18   1     0.00   0.00   0.00     0.00   0.00   0.00     0.16  -0.09   0.09
    19   8     0.00   0.00   0.00     0.00   0.00   0.00     0.00   0.00   0.00
    20   1     0.00   0.00   0.00     0.00   0.00   0.00     0.00   0.00   0.00
                     49                     50                     51
                      A                      A                      A
 Frequencies --   3070.3816              3085.7066              3120.4386
 Red. masses --      1.0975                 1.1030                 1.1002
 Frc consts  --      6.0960                 6.1879                 6.3118
 IR Inten    --      8.6423                26.1621                 2.6299
  Atom  AN      X      Y      Z        X      Y      Z        X      Y      Z
     1   6     0.00   0.00   0.00     0.00   0.00   0.00     0.00   0.00   0.00
     2   6     0.04  -0.08  -0.01     0.00   0.00   0.00     0.00   0.00  -0.09
     3   1    -0.45   0.29  -0.20     0.00   0.00   0.00     0.14  -0.09   0.04
     4   1     0.04   0.02  -0.17     0.00   0.00   0.00    -0.14  -0.21   0.89
     5   1    -0.06   0.67   0.43     0.00   0.00   0.00    -0.03   0.27   0.16
     6   8     0.00   0.00   0.00     0.00   0.00   0.00     0.00   0.00   0.00
     7   8     0.00   0.00   0.00     0.00   0.00   0.00     0.00   0.00   0.00
     8   8     0.00   0.00   0.00     0.00   0.00   0.00     0.00   0.00   0.00
     9   6     0.00   0.00   0.00    -0.07   0.06  -0.02     0.00   0.00   0.00
    10   1     0.00   0.00   0.00     0.67  -0.47   0.41     0.00   0.00   0.00
    11   1     0.00   0.00   0.00     0.26  -0.09  -0.26     0.00   0.00   0.00
    12   1     0.00   0.00   0.00    -0.07  -0.10   0.07     0.00   0.00   0.00
    13   1     0.00   0.00   0.00    -0.01   0.02   0.00     0.00   0.00   0.00
    14   1     0.00   0.00   0.00     0.00   0.00   0.00     0.00   0.00   0.00
    15   6     0.00   0.00   0.00     0.00   0.00   0.00     0.00   0.00   0.00
    16   1     0.00   0.00   0.00     0.00   0.00   0.00     0.00   0.00   0.00
    17   1     0.00   0.00   0.00     0.00   0.00   0.00     0.00   0.00   0.00
    18   1     0.00   0.00   0.00     0.00   0.00   0.00     0.00   0.00   0.00
    19   8     0.00   0.00   0.00     0.00   0.00   0.00     0.00   0.00   0.00
    20   1     0.00   0.00   0.00     0.00   0.00   0.00     0.00   0.00   0.00
                     52                     53                     54
                      A                      A                      A
 Frequencies --   3518.3992              3665.2801              3709.5308
 Red. masses --      1.0686                 1.0666                 1.0656
 Frc consts  --      7.7940                 8.4424                 8.6395
 IR Inten    --    490.3935               171.1356                41.2788
  Atom  AN      X      Y      Z        X      Y      Z        X      Y      Z
     1   6     0.00   0.00   0.00     0.00   0.00   0.00     0.00   0.00   0.00
     2   6     0.00   0.00   0.00     0.00   0.00   0.00     0.00   0.00   0.00
     3   1     0.00   0.00   0.00     0.00   0.00   0.00     0.00   0.00   0.00
     4   1     0.00   0.00   0.00     0.00   0.00   0.00     0.00   0.00   0.00
     5   1     0.00   0.00   0.00     0.00   0.00   0.00     0.00   0.00   0.00
     6   8     0.00   0.00   0.00     0.00   0.00   0.00     0.00   0.00   0.00
     7   8    -0.04  -0.04   0.01     0.00   0.00   0.00     0.00   0.00   0.00
     8   8     0.01   0.00   0.00    -0.05   0.03  -0.03     0.00   0.00   0.00
     9   6     0.00   0.00   0.00     0.00   0.00   0.00     0.00   0.00   0.00
    10   1     0.00   0.00   0.00     0.01  -0.01   0.01     0.00   0.00   0.00
    11   1     0.00   0.00   0.01     0.00   0.00   0.00     0.00   0.00   0.00
    12   1     0.01   0.01   0.00     0.00   0.00   0.00     0.00   0.00   0.00
    13   1    -0.07   0.04  -0.04     0.76  -0.44   0.46     0.04  -0.02   0.02
    14   1     0.71   0.66  -0.23     0.06   0.06  -0.02     0.00   0.00   0.00
    15   6     0.00   0.00   0.00     0.00   0.00   0.00     0.00   0.00   0.00
    16   1     0.00   0.00   0.01     0.00   0.00   0.00     0.00   0.00   0.00
    17   1     0.02   0.02   0.00     0.00   0.00   0.00     0.00   0.00   0.00
    18   1    -0.01   0.01   0.00     0.00   0.00   0.00     0.00   0.00   0.00
    19   8     0.00   0.00   0.00     0.00   0.00   0.00     0.02   0.04   0.04
    20   1     0.00   0.00   0.00     0.02   0.04   0.03    -0.34  -0.72  -0.60

 -------------------
 - Thermochemistry -
 -------------------
 Temperature   298.150 Kelvin.  Pressure   1.00000 Atm.
 Atom     1 has atomic number  6 and mass  12.00000
 Atom     2 has atomic number  6 and mass  12.00000
 Atom     3 has atomic number  1 and mass   1.00783
 Atom     4 has atomic number  1 and mass   1.00783
 Atom     5 has atomic number  1 and mass   1.00783
 Atom     6 has atomic number  8 and mass  15.99491
 Atom     7 has atomic number  8 and mass  15.99491
 Atom     8 has atomic number  8 and mass  15.99491
 Atom     9 has atomic number  6 and mass  12.00000
 Atom    10 has atomic number  1 and mass   1.00783
 Atom    11 has atomic number  1 and mass   1.00783
 Atom    12 has atomic number  1 and mass   1.00783
 Atom    13 has atomic number  1 and mass   1.00783
 Atom    14 has atomic number  1 and mass   1.00783
 Atom    15 has atomic number  6 and mass  12.00000
 Atom    16 has atomic number  1 and mass   1.00783
 Atom    17 has atomic number  1 and mass   1.00783
 Atom    18 has atomic number  1 and mass   1.00783
 Atom    19 has atomic number  8 and mass  15.99491
 Atom    20 has atomic number  1 and mass   1.00783
 Molecular mass:   124.07356 amu.
 Principal axes and moments of inertia in atomic units:
                           1         2         3
     Eigenvalues --  1112.954731450.437202139.99354
           X            0.99622   0.08572   0.01380
           Y           -0.08589   0.99623   0.01216
           Z           -0.01270  -0.01330   0.99983
 This molecule is an asymmetric top.
 Rotational symmetry number  1.
 Warning -- assumption of classical behavior for rotation
           may cause significant error
 Rotational temperatures (Kelvin)      0.07782     0.05972     0.04047
 Rotational constants (GHZ):           1.62158     1.24427     0.84334
 Zero-point vibrational energy     440225.7 (Joules/Mol)
                                  105.21646 (Kcal/Mol)
 Warning -- explicit consideration of  18 degrees of freedom as
           vibrations may cause significant error
 Vibrational temperatures:     96.63   108.32   124.01   137.75   140.89
          (Kelvin)            156.19   159.05   185.51   205.35   272.67
                              287.53   308.02   320.63   636.41   766.25
                              812.27   878.79   882.72  1134.16  1212.22
                             1433.19  1478.64  1508.38  1540.04  1610.62
                             1628.69  1697.25  1707.13  1719.69  1852.96
                             2021.33  2031.04  2078.78  2108.60  2130.80
                             2132.37  2147.43  2152.30  2156.47  2181.88
                             2186.67  2602.19  4241.66  4289.01  4304.48
                             4328.17  4377.44  4401.51  4417.59  4439.64
                             4489.61  5062.19  5273.51  5337.18
 
 Zero-point correction=                           0.167673 (Hartree/Particle)
 Thermal correction to Energy=                    0.180713
 Thermal correction to Enthalpy=                  0.181657
 Thermal correction to Gibbs Free Energy=         0.127720
 Sum of electronic and zero-point Energies=           -460.581576
 Sum of electronic and thermal Energies=              -460.568537
 Sum of electronic and thermal Enthalpies=            -460.567593
 Sum of electronic and thermal Free Energies=         -460.621529
 
                     E (Thermal)             CV                S
                      KCal/Mol        Cal/Mol-Kelvin    Cal/Mol-Kelvin
 Total                  113.399             41.337            113.519
 Electronic               0.000              0.000              0.000
 Translational            0.889              2.981             40.361
 Rotational               0.889              2.981             29.625
 Vibrational            111.621             35.375             43.532
 Vibration     1          0.598              1.970              4.235
 Vibration     2          0.599              1.965              4.010
 Vibration     3          0.601              1.959              3.745
 Vibration     4          0.603              1.952              3.539
 Vibration     5          0.603              1.951              3.495
 Vibration     6          0.606              1.942              3.295
 Vibration     7          0.606              1.941              3.259
 Vibration     8          0.611              1.924              2.962
 Vibration     9          0.616              1.910              2.767
 Vibration    10          0.633              1.854              2.233
 Vibration    11          0.638              1.840              2.135
 Vibration    12          0.644              1.820              2.009
 Vibration    13          0.649              1.806              1.936
 Vibration    14          0.802              1.378              0.819
[...]
 00072280,-0.00479380,-0.00005372,-0.00025766,0.00044851,-0.00001048,0.
 00004094,-0.00000794,-0.00009046,-0.00014669,0.00003531,0.00010979,0.0
 0002123,0.00006314,-0.00056515,0.00154356,0.00183911,-0.00226024,-0.00
 976941,0.00330764,0.39531312,0.00022180,-0.00162691,-0.00163567,0.0000
 3365,0.00002764,-0.00001701,-0.00004197,0.00011562,0.00000199,0.000090
 35,-0.00006711,-0.00003893,0.00022174,0.00009249,0.00016250,0.00069655
 ,0.00129100,0.00072307,-0.00765001,-0.00889200,0.00373361,-0.11208826,
 0.30610757,-0.00012976,-0.00115434,-0.00651813,-0.00003427,-0.00000958
 ,0.00063076,0.00006751,-0.00001103,-0.00000074,-0.00020311,-0.00007912
 ,0.00007366,0.00003688,0.00010741,-0.00003857,0.00141032,0.00104828,0.
 00257431,0.00289857,0.00459353,0.00274560,0.23347045,0.01841705,0.2729
 1668,-0.00171673,-0.00018373,0.00025204,0.00009325,0.00005031,-0.00000
 511,0.00003544,0.00000613,0.00000097,-0.00000667,0.00002154,-0.0000038
 7,-0.00003141,0.00001612,-0.00002140,0.00042408,-0.00029179,-0.0002779
 9,0.00068699,0.00194067,0.00000459,-0.09529411,-0.00690759,-0.03622804
 ,0.56342967,-0.00111909,0.00101758,0.00382936,0.00002211,0.00004816,-0
 .00031979,-0.00000094,-0.00002869,-0.00000427,0.00007537,0.00008512,-0
 .00002939,-0.00009324,-0.00006672,-0.00004334,-0.00048488,-0.00106039,
 -0.00177303,0.00091192,0.00179647,0.00023182,-0.03813320,-0.13775422,-
 0.07092293,-0.04837652,0.52343593,-0.00087276,0.00168989,0.00544906,-0
 .00002325,-0.00009435,-0.00044622,-0.00001809,-0.00005639,-0.00000654,
 0.00008343,0.00009273,-0.00003108,-0.00018153,-0.00013748,-0.00006446,
 -0.00174837,-0.00168715,-0.00249358,0.00254055,0.00367787,-0.00225373,
 -0.05281159,-0.04451181,-0.13114799,-0.02471476,-0.05808451,0.51016791
 ,0.00035176,0.00031953,0.00003101,-0.00004198,-0.00006666,-0.00001329,
 -0.00000351,-0.00001422,0.00000111,-0.00001725,-0.00000389,0.00000524,
 -0.00002773,-0.00001895,-0.00000925,-0.00049932,-0.00019624,-0.0000292
 9,0.00009508,-0.00031464,0.00037526,-0.01299283,0.00201391,-0.01219068
 ,-0.18751726,0.09790094,-0.07952376,0.20385614,-0.00006557,-0.00022402
 ,-0.00065307,0.00002367,0.00001085,0.00007381,0.00000829,0.00000275,0.
 00000126,-0.00001334,-0.00000701,0.00000635,0.00001004,0.00001683,-0.0
 0000095,0.00031429,0.00024648,0.00022156,0.00011838,0.00001285,0.00004
 617,-0.02259515,0.01201250,-0.01629049,0.10651815,-0.12453631,0.065378
 80,-0.10426532,0.12968793,0.00009393,-0.00027268,-0.00105537,-0.000006
 15,0.00001774,0.00011251,0.00000761,0.00000647,0.00000055,-0.00001854,
 -0.00001651,0.00000921,0.00002662,0.00002298,0.00000405,0.00043505,0.0
 0030030,0.00040441,-0.00013175,-0.00031859,0.00005069,-0.02427207,0.00
 680484,-0.01716830,-0.07563150,0.05681981,-0.09614484,0.09669713,-0.05
 908652,0.10962126,-0.00036951,-0.00058849,-0.00110773,0.00002560,0.000
 11379,0.00011131,0.00001386,0.00001834,0.00000123,-0.00000395,0.000000
 48,0.00000247,0.00004885,0.00004059,0.00000098,0.00005625,0.00016030,0
 .00059205,-0.00010239,0.00017551,-0.00008143,0.01361943,-0.00931727,-0
 .01648614,-0.17995535,0.04979458,0.11964858,-0.01419465,0.00437654,0.0
 1490263,0.18509765,-0.00011197,-0.00028893,-0.00107375,-0.00003337,0.0
 0004832,0.00004936,0.00000340,-0.00000160,0.00000457,-0.00003211,-0.00
 000476,0.00000779,0.00001619,0.00002378,-0.00000585,0.00059052,-0.0001
 6243,0.00055766,-0.00018537,0.00010688,0.00050419,0.00862207,-0.011877
 44,-0.02408117,0.04415184,-0.06880010,-0.03814938,0.01233360,-0.003174
 30,-0.01066065,-0.04824925,0.07540460,-0.00033204,-0.00081271,-0.00168
 554,0.00004527,0.00011848,0.00016249,0.00001268,0.00002105,0.00000091,
 -0.00001136,-0.00001436,0.00000652,0.00007369,0.00006111,0.00001735,0.
 00134559,0.00064138,0.00062154,-0.00042173,-0.00033423,0.00022480,0.00
 580037,-0.01744673,-0.02245237,0.11327264,-0.03852692,-0.15716358,-0.0
 0974314,0.00405563,0.01224023,-0.12445694,0.05475570,0.17581231,0.0001
 6619,-0.00004433,0.00018803,0.00001605,-0.00004646,-0.00001321,-0.0000
 0634,0.00000634,-0.00000232,0.00001194,-0.00000622,-0.00000183,0.00000
 436,-0.00000540,0.00001173,-0.00023617,0.00019613,-0.00020885,-0.00038
 807,-0.00062504,0.00026495,-0.00644425,-0.01723484,-0.00244763,-0.0858
 8465,-0.06675089,0.04557548,0.01076635,0.01878465,-0.01099833,-0.00645
 334,-0.01810458,0.01261490,0.08793304,0.00027123,-0.00020798,-0.000535
 30,-0.00001511,-0.00001282,0.00003264,-0.00000897,0.00001164,0.0000003
 1,0.00000095,-0.00001731,0.00000122,0.00003059,0.00001082,0.00001912,0
 .00001755,0.00017896,0.00022321,-0.00067662,-0.00095762,0.00040470,-0.
 01468223,-0.02264687,-0.00374480,-0.06819071,-0.19889235,0.09434957,-0
 .00573441,-0.01175466,0.00941237,0.00329960,0.00856880,-0.00259086,0.0
 8389209,0.22408783,-0.00001893,-0.00021273,-0.00065856,-0.00000054,0.0
 0003967,0.00003712,0.00000287,0.00000646,0.00000395,-0.00001259,-0.000
 00590,0.00000127,0.00002349,0.00002108,0.00000472,0.00035666,0.0000395
 4,0.00037973,-0.00049857,-0.00058712,0.00063377,-0.01442587,-0.0296036
 2,0.00920940,0.04615380,0.09964935,-0.11219998,0.00613083,0.01004304,-
 0.00581627,0.00633595,0.01723118,-0.00837233,-0.04504123,-0.09708701,0
 .11594404,-0.00358900,0.00058460,0.00981981,0.00028422,0.00027399,-0.0
 0104058,-0.00004901,0.00005607,-0.00000477,0.00031890,0.00019640,-0.00
 011771,0.00000277,-0.00005700,0.00004233,-0.00025387,-0.00146524,-0.00
 337260,-0.00216319,-0.00011694,-0.00026167,-0.28272742,0.14739132,-0.1
 6558591,-0.01268913,0.00618753,-0.00745768,0.00069970,-0.00256261,-0.0
 0062278,0.00194135,0.00088258,0.00153226,0.00016656,0.00121386,0.00072
 662,0.29034253,-0.00064437,0.00092074,0.00176810,-0.00009397,0.0000878
 3,0.00003175,-0.00001527,-0.00003107,-0.00001729,-0.00004050,0.0000159
 7,0.00000020,-0.00007409,-0.00003113,-0.00003921,-0.00062856,-0.000933
 24,-0.00027015,-0.00081926,0.00098582,-0.00085772,0.17899359,-0.142929
 41,0.09534441,-0.02450349,0.00977482,-0.01692699,-0.00248591,-0.002487
 25,-0.00364941,0.00017620,0.00013916,-0.00068961,-0.00115252,0.0000250
 9,-0.00021542,-0.15251623,0.13953696,0.00322019,0.00172562,0.00495603,
 0.00001310,-0.00015727,-0.00062098,-0.00005899,-0.00002327,0.00001138,
 0.00015844,0.00005565,-0.00003836,-0.00006121,-0.00011708,0.00001031,-
 0.00237302,-0.00094901,-0.00146632,-0.00005025,-0.00165553,-0.00010476
 ,-0.14693565,0.06387237,-0.10834147,-0.02302025,0.01192091,-0.01562841
 ,-0.00111557,-0.00404278,-0.00263099,0.00003409,0.00139870,0.00038322,
 0.00074466,0.00016621,0.00174055,0.17111540,-0.07571684,0.12767996,-0.
 00245221,0.00153494,-0.00030708,-0.00017601,-0.00007734,0.00009373,0.0
 0008807,0.00004000,-0.00003683,-0.00002858,-0.00003246,-0.00002651,-0.
 00016464,-0.00003411,0.00001670,0.00038546,-0.00079534,0.00010915,-0.2
 4935716,-0.20453671,0.08619737,-0.00290784,0.00398028,-0.00258110,-0.0
 0217860,-0.00292736,-0.00326268,-0.00012079,-0.00017383,0.00018603,0.0
 0030069,0.00045704,0.00068026,0.00051568,0.00101734,0.00051760,0.00392
 313,0.00232605,-0.00044445,0.24339394,0.00335636,0.00237293,0.00003413
 ,0.00010570,-0.00018907,0.00025889,0.00008381,-0.00031388,0.00002276,-
 0.00022019,0.00007072,0.00014609,-0.00036888,-0.00019663,-0.00035139,-
 0.00201010,-0.00073727,-0.00038931,-0.16535929,-0.20160627,0.04629034,
 0.00695105,0.00255551,-0.00399938,-0.00390803,-0.00411703,-0.00419407,
 0.00052084,0.00014333,0.00041131,-0.00004804,0.00003094,0.00058113,0.0
 0073983,0.00113002,0.00052700,0.00051095,-0.00216226,0.00354679,0.1842
 8211,0.23326852,-0.00096890,0.00062932,0.00422014,0.00001315,0.0000414
 1,-0.00028626,-0.00005687,0.00005562,-0.00001660,0.00013177,0.00002889
 ,-0.00004744,-0.00000649,-0.00004826,0.00008370,-0.00062166,-0.0002103
 0,-0.00169283,0.09949259,0.07130232,-0.05382865,-0.00436348,-0.0030421
 7,-0.00598367,0.00046779,-0.00028344,0.00505594,-0.00064293,-0.0000736
 5,-0.00022824,0.00002987,-0.00101667,-0.00064875,-0.00063124,-0.001096
 67,-0.00123311,0.00044030,0.00273638,-0.00132566,-0.08022146,-0.048127
 82,0.05600687,0.00062967,-0.00033595,0.00076583,-0.00003625,0.00025267
 ,0.00011740,-0.00007025,-0.00013772,-0.00004616,0.00003806,0.00008049,
 0.00001693,-0.00022433,0.00006864,-0.00024530,-0.00029745,0.00031194,-
 0.00017964,-0.09150014,0.03568465,0.03102541,-0.00201775,-0.00156909,0
 .00118170,0.00054159,0.00041885,0.00058863,-0.00007820,-0.00002427,-0.
 00008701,0.00001209,0.00007388,-0.00006572,-0.00009998,-0.00011502,-0.
 00007619,0.00002027,0.00032371,-0.00028813,0.00839576,-0.02421218,-0.0
 1507948,0.56807046,0.00233984,-0.00204140,0.00049219,-0.00066127,0.000
 14508,-0.00019397,-0.00022167,0.00020368,0.00003373,0.00026939,-0.0000
 5138,-0.00007182,0.00054585,0.00037209,0.00026875,-0.00090427,0.000712
 12,-0.00030461,0.00306939,-0.19140253,-0.04559793,0.00291272,0.0033250
 4,-0.00105097,-0.00101465,-0.00072497,-0.00131157,0.00005793,-0.000049
 82,0.00018669,0.00000988,-0.00014589,0.00006231,0.00031994,0.00045404,
 0.00013608,-0.00035744,-0.00071724,0.00081476,0.00897209,-0.03130300,-
 0.01529892,0.03595866,0.48354495,0.00116994,-0.00138846,0.00146459,-0.
 00021230,0.00027183,-0.00021265,-0.00013832,0.00011026,0.00000249,0.00
 011946,-0.00010399,-0.00009374,0.00011459,0.00003145,0.00025667,-0.000
 60331,0.00050302,-0.00048387,0.01951402,-0.06543772,-0.09543097,0.0020
 9146,0.00198715,-0.00195618,-0.00020267,-0.00042958,-0.00048161,-0.000
 05688,-0.00004022,0.00004343,-0.00005792,-0.00013991,-0.00001994,0.000
 09577,0.00020457,0.00003958,-0.00010351,-0.00000572,0.00085787,-0.0034
 2426,0.00551261,0.00302214,-0.00116451,-0.04486568,0.52721900,0.000099
 14,0.00010888,0.00039556,-0.00000394,0.00007099,0.00003400,-0.00000237
 ,-0.00000507,-0.00001858,0.00003128,-0.00004832,-0.00002958,-0.0000692
 4,-0.00002793,0.00002951,-0.00014878,-0.00005924,-0.00019704,0.0025510
 0,0.00273215,0.00899118,0.00016086,0.00030740,0.00010788,-0.00012396,-
 0.00005541,-0.00018507,0.00001060,-0.00000637,-0.00000018,0.00000682,0
 .00001590,0.00003462,0.00003505,0.00004623,0.00003035,0.00011556,-0.00
 001550,0.00004860,-0.00023693,-0.00065919,-0.00096498,-0.05466253,-0.0
 0192468,0.01365506,0.04988543,-0.00009144,0.00013530,-0.00085771,0.000
 02806,-0.00005016,0.00003811,0.00002589,-0.00000935,0.00001091,-0.0000
 7167,0.00000566,0.00002118,-0.00001178,0.00000013,-0.00001474,0.000174
 33,-0.00000838,0.00034752,0.00573238,-0.00913702,-0.04003348,-0.000030
 54,-0.00007067,0.00053532,0.00003926,0.00003506,-0.00012401,0.00002220
 ,0.00000880,-0.00000056,0.00000053,0.00006995,0.00003285,-0.00000373,0
 .00001636,0.00004027,-0.00001229,-0.00014580,-0.00014191,0.00112343,0.
 00252328,-0.00093049,-0.00378283,-0.05482823,0.03325965,-0.00158906,0.
 06101265,-0.00028801,0.00027582,-0.00093123,0.00006807,-0.00011998,0.0
 0002133,0.00004272,-0.00002865,0.00001849,-0.00008162,0.00005447,0.000
 04710,-0.00002217,-0.00000781,-0.00008605,0.00026413,-0.00005459,0.000
 42246,0.00360195,-0.01584721,-0.01251000,-0.00052257,-0.00039386,0.000
 74015,-0.00001853,0.00003657,-0.00002757,0.00003898,0.00000897,-0.0000
 1822,0.00001381,0.00010168,0.00004446,-0.00002556,-0.00003466,0.000020
 04,0.00006651,-0.00001160,-0.00027864,0.00178749,0.00097185,0.00003486
 ,0.01320644,0.03079307,-0.27823730,-0.01866142,-0.02180940,0.30895413,
 -0.00015401,0.00012164,0.00000388,0.00007311,0.00000094,0.00003972,0.0
 0001438,-0.00002471,-0.00000534,-0.00002156,0.00001342,0.00001423,-0.0
 0004724,-0.00001860,-0.00005085,0.00006989,-0.00004989,-0.00000496,0.0
 1051083,0.00471422,-0.00291652,0.00010795,-0.00006636,-0.00015902,0.00
 003512,0.00008206,0.00006629,0.00001785,0.00001876,0.00001254,-0.00000
 215,-0.00001678,-0.00001466,-0.00001025,-0.00003712,0.00000508,-0.0000
 3000,-0.00000165,-0.00002086,0.00094987,0.00259575,0.00047480,-0.20373
 596,-0.11824791,0.04729207,-0.00022876,0.00027635,0.00012923,0.2126596
 9,-0.00076219,-0.00009504,0.00002713,0.00008059,-0.00003351,-0.0000892
 6,0.00002453,0.00006404,-0.00000230,0.00001708,-0.00003826,-0.00003532
 ,0.00009956,-0.00009680,0.00012995,0.00037925,0.00005021,0.00007945,-0
 .02413622,-0.03399746,0.00239772,-0.00096066,-0.00092463,0.00061206,0.
 00026828,0.00028376,0.00033021,-0.00001400,0.00000114,-0.00003314,0.00
 000422,0.00001964,-0.00004910,-0.00005769,-0.00009184,-0.00003356,-0.0
 0006436,0.00016763,-0.00018857,0.00333143,-0.00300780,-0.00409121,-0.1
 0917219,-0.13079586,0.03622557,-0.00305069,-0.00053055,0.00244753,0.12
 610656,0.16022479,0.00007973,0.00009308,-0.00010212,-0.00003001,0.0000
 5346,0.00009778,0.00000489,-0.00001552,-0.00002102,0.00001936,-0.00003
 779,-0.00001150,-0.00004079,0.00002734,-0.00000391,-0.00004177,-0.0000
 2757,0.00000171,-0.01290324,-0.01525819,0.00463698,-0.00034976,-0.0002
 6134,0.00047052,-0.00001585,0.00003972,0.00000713,0.00000828,0.0000026
 1,-0.00000165,0.00001456,0.00003377,0.00001759,-0.00000071,-0.00000620
 ,0.00000018,0.00002849,-0.00004782,-0.00011672,0.00084506,-0.00254678,
 -0.00134645,0.05060975,0.04172137,-0.06720134,0.02471501,0.01846821,-0
 .00639438,-0.05238376,-0.03482977,0.06604625,0.00012192,-0.00035716,0.
 00006940,0.00000870,-0.00001059,-0.00007883,-0.00002386,0.00004736,0.0
 0000400,0.00003508,-0.00001494,-0.00002187,0.00009317,-0.00001852,0.00
 008046,-0.00001331,0.00016961,0.00000942,0.00037638,0.01148104,0.00358
 177,0.00044129,0.00039115,-0.00018887,-0.00019318,-0.00013097,-0.00018
 270,0.00003114,-0.00000945,0.00002873,-0.00001089,-0.00001883,0.000005
 62,0.00003855,0.00004759,0.00001739,-0.00009646,-0.00009246,0.00009557
 ,0.00008509,-0.00085871,0.00122059,-0.22499899,0.06929267,-0.07773049,
 0.00260683,-0.00176223,0.00039553,-0.02024751,0.00769583,-0.01058069,0
 .24173702,-0.00065878,0.00072363,-0.00032977,0.00012083,-0.00012216,0.
 00005481,0.00007825,-0.00002470,0.00000417,-0.00006833,0.00000829,0.00
 002435,-0.00008472,-0.00008003,-0.00004292,0.00023169,-0.00033065,0.00
 007895,0.02977480,-0.02763001,0.00148930,-0.00075017,-0.00034079,0.000
 13605,0.00019210,0.00002887,0.00017606,-0.00007427,-0.00002673,-0.0000
 4603,0.00002368,0.00003720,0.00001301,-0.00004892,-0.00003105,-0.00003
 198,0.00023241,0.00021063,-0.00013716,0.00209602,0.00158068,-0.0000514
 4,0.06623015,-0.07762588,0.03327180,0.00404557,0.00099734,0.00396507,-
 0.01543477,0.00888451,-0.00742759,-0.08592758,0.09396285,-0.00020657,0
 .00021485,-0.00039418,0.00002977,-0.00009785,0.00001820,0.00003162,0.0
 0000058,0.00000536,-0.00002331,0.00002225,0.00002295,0.00001478,-0.000
 00239,-0.00003606,0.00013913,-0.00006312,0.00014503,0.01674758,-0.0113
 6518,0.00825241,0.00001801,-0.00013443,0.00003723,0.00003285,0.0000475
 9,0.00007263,-0.00000668,0.00000979,0.00002423,0.00001338,-0.00001600,
 -0.00000658,-0.00001223,-0.00001711,-0.00001517,-0.00005120,-0.0000733
 9,-0.00009610,0.00009927,0.00112153,0.00028558,-0.07986507,0.03387208,
 -0.08804819,-0.02781517,0.01072489,-0.01224812,0.00755664,-0.00280895,
 0.00384945,0.08323053,-0.03121106,0.08794465,-0.12343911,-0.05433462,0
 .04068478,-0.00686335,-0.00967360,0.03782166,0.00171093,0.00097163,-0.
 00015721,-0.00620413,-0.00436937,0.00015367,0.00030235,-0.00009794,0.0
 0006626,0.02804257,0.01005878,-0.01019799,0.00040135,0.00253886,-0.002
 24846,-0.00675302,-0.00149511,-0.00360464,0.00043209,0.00298487,0.0027
 8774,-0.00036738,-0.00049973,-0.00067650,-0.00006179,-0.00042778,-0.00
 050077,-0.00021737,-0.00049099,-0.00024788,0.00334086,0.00315470,0.000
 13314,0.00014132,-0.00153106,0.00199852,0.00006089,-0.00100498,-0.0000
 6706,0.00003063,-0.00027484,-0.00012954,0.00008681,0.00034362,-0.00009
 427,-0.00003733,0.00012611,-0.00002163,0.19785637,-0.03535909,-0.08948
 154,-0.00719628,-0.01341597,0.00798459,0.01570906,-0.00274063,-0.00110
 751,0.00143557,-0.00387656,-0.00024641,0.00061717,0.00226836,0.0020415
 5,0.00050300,0.01017864,0.01283201,-0.04145073,0.00165319,-0.00235616,
 0.00211998,0.00079641,0.00208341,0.00043130,0.00012681,-0.00056777,-0.
 00051493,-0.00000099,0.00011458,0.00009721,0.00002792,0.00000448,0.000
 16187,0.00017590,0.00017864,0.00005996,0.00021452,-0.00276417,-0.00020
 222,-0.00100851,-0.00048904,-0.00072994,-0.00017455,0.00123546,0.00060
 194,-0.00007841,0.00010055,-0.00015076,-0.00005015,-0.00006901,0.00001
 347,0.00016028,-0.00026260,-0.00005653,0.18072539,0.34143527,0.0860180
 5,0.03996096,-0.16529063,0.01128448,0.00094487,-0.01446858,0.00198849,
 0.00080000,-0.00103471,0.00286418,0.00098890,0.00140076,0.00000629,0.0
 0164981,0.00006011,-0.00599727,-0.03596274,-0.09634734,-0.00069239,0.0
 0150377,0.00191386,0.00057259,0.00131488,0.00424253,0.00012033,-0.0019
 6083,-0.00245645,0.00001307,0.00034390,0.00052657,0.00049760,0.0005069
 6,0.00085064,-0.00014634,0.00021736,0.00025907,-0.00395677,-0.00145314
 ,-0.00541591,0.00038045,0.00025742,-0.00182816,-0.00014742,-0.00076611
 ,-0.00134694,-0.00016333,0.00044831,0.00064329,0.00000020,-0.00005810,
 0.00010549,-0.00009118,0.00023996,0.00026476,-0.00060223,0.19856138,0.
 45817711,0.00615991,0.01584130,0.00407491,-0.00154546,0.00018427,0.000
 40012,-0.00067091,0.00018301,0.00061106,-0.00008126,-0.00021302,-0.000
 41688,-0.00010938,-0.00129445,0.00085467,0.00331552,-0.00147349,0.0057
 9380,0.00021288,-0.00078038,0.00098837,-0.00023793,0.00102234,0.000665
 87,-0.00008718,-0.00030575,-0.00030847,0.00003228,0.00004286,0.0000545
 4,0.00003142,0.00003304,0.00012845,0.00008664,0.00011417,0.00002115,0.
 00044223,-0.00189045,-0.00119479,-0.00055625,0.00002928,-0.00071188,-0
 .00004694,0.00058850,-0.00029118,-0.00005667,0.00020798,0.00013456,-0.
 00004804,-0.00013294,0.00011572,0.00004636,-0.00010407,0.00008830,-0.0
 8846268,-0.13962255,-0.09194879,0.08157549,0.00136564,-0.00168189,0.00
 174625,-0.00071950,0.00068508,0.00317303,0.00049964,-0.00020095,-0.000
 33379,-0.00058376,-0.00068110,0.00009660,-0.00076082,-0.00054058,0.000
 65786,-0.00039028,0.00522256,0.00262623,-0.00062493,-0.00002140,-0.000
 73540,0.00025520,-0.00048075,0.00011839,0.00004531,0.00004277,0.000097
 53,0.00002057,0.00000206,0.00000438,-0.00001908,0.00000170,-0.00003999
 ,-0.00003425,-0.00004971,-0.00001628,-0.00059213,0.00033692,-0.0001693
 7,0.00042492,0.00044631,0.00020703,0.00012015,-0.00030625,0.00043143,0
 .00019277,-0.00012490,-0.00019652,0.00001824,-0.00001496,0.00000553,-0
 .00008410,0.00004058,-0.00016754,-0.12670393,-0.27066634,-0.20753756,0
 .12757033,0.26799083,-0.02097653,-0.03189271,-0.02468209,-0.00003827,-
 0.00026086,0.00190348,-0.00015924,0.00017817,0.00019652,-0.00112703,0.
 00011901,0.00051387,0.00092621,0.00158216,0.00050005,0.00577476,0.0006
 7477,-0.00824265,0.00101219,-0.00124226,0.00060469,0.00083615,0.000068
 10,-0.00003344,-0.00016504,-0.00019710,-0.00020663,0.00003055,-0.00000
 420,0.00002675,-0.00000836,-0.00000818,-0.00003296,0.00003396,0.000081
 33,0.00002199,-0.00119655,0.00009347,0.00042500,-0.00060874,-0.0000731
 1,-0.00024340,-0.00026744,0.00108057,0.00060695,-0.00000643,-0.0000149
 3,-0.00021479,-0.00003870,-0.00003032,-0.00003402,0.00013563,-0.000175
 59,-0.00007808,-0.06509758,-0.17001054,-0.18025547,0.08094047,0.200032
 20,0.20922424\\0.00474523,0.00626917,0.00726846,0.00073730,-0.00032315
 ,0.00071055,0.00243294,-0.00157809,0.00078339,0.00069334,0.00126454,-0
 .00268819,0.00021240,0.00262335,0.00116780,-0.00696200,-0.00588147,-0.
 01005691,0.00255040,0.00037592,-0.00291536,-0.00380348,0.00256284,-0.0
 0086001,-0.00015974,0.00011645,-0.00107929,-0.00183693,0.00174078,-0.0
 0060949,0.00209646,-0.00050549,-0.00160593,-0.00091096,-0.00213367,0.0
 0146902,0.00357546,-0.00172995,0.00479487,-0.00226228,-0.00418622,-0.0
 0048714,0.00056452,0.00182673,0.00111082,-0.00016389,-0.00069168,0.002
 58961,0.00218597,0.00075648,-0.00102489,-0.00222258,0.00072920,-0.0011
 4195,-0.00121925,-0.00606371,-0.00074366,-0.00025288,0.00482797,0.0033
 1830\\\@


 A SUCCESSFUL PURSUIT OF SCIENCE MAKES A MAN THE
 BENEFACTOR OF ALL MANKIND OF EVERY AGE.
   --  JOSEPH PRIESTLEY, "EXPERIMENTS AND
 OBSERVATIONS ON DIFFERENT KINDS OF AIR", 1774
 Job cpu time:       0 days  2 hours  0 minutes 57.7 seconds.
 File lengths (MBytes):  RWF=    164 Int=      0 D2E=      0 Chk=      7 Scr=      1
 Normal termination of Gaussian 09 at Sun Jun  7 20:59:31 2015.
