 Entering Gaussian System, Link 0=g09
 Initial command:
 /opt/gridware/applications/gaussian/g09/l1.exe "/lustre/SCRATCH5/gau/mlawal/919177.sched01/Gau-29347.inp" -scrdir="/lustre/SCRATCH5/gau/mlawal/919177.sched01/"
 Entering Link 1 = /opt/gridware/applications/gaussian/g09/l1.exe PID=     29348.
  
 Copyright (c) 1988,1990,1992,1993,1995,1998,2003,2009,2013,
            Gaussian, Inc.  All Rights Reserved.
  
 This is part of the Gaussian(R) 09 program.  It is based on
 the Gaussian(R) 03 system (copyright 2003, Gaussian, Inc.),
 the Gaussian(R) 98 system (copyright 1998, Gaussian, Inc.),
 the Gaussian(R) 94 system (copyright 1995, Gaussian, Inc.),
 the Gaussian 92(TM) system (copyright 1992, Gaussian, Inc.),
 the Gaussian 90(TM) system (copyright 1990, Gaussian, Inc.),
 the Gaussian 88(TM) system (copyright 1988, Gaussian, Inc.),
 the Gaussian 86(TM) system (copyright 1986, Carnegie Mellon
 University), and the Gaussian 82(TM) system (copyright 1983,
 Carnegie Mellon University). Gaussian is a federally registered
 trademark of Gaussian, Inc.
  
 This software contains proprietary and confidential information,
 including trade secrets, belonging to Gaussian, Inc.
  
 This software is provided under written license and may be
 used, copied, transmitted, or stored only in accord with that
 written license.
  
 The following legend is applicable only to US Government
 contracts under FAR:
  
                    RESTRICTED RIGHTS LEGEND
  
 Use, reproduction and disclosure by the US Government is
 subject to restrictions as set forth in subparagraphs (a)
 and (c) of the Commercial Computer Software - Restricted
 Rights clause in FAR 52.227-19.
  
 Gaussian, Inc.
 340 Quinnipiac St., Bldg. 40, Wallingford CT 06492
  
  
 ---------------------------------------------------------------
 Warning -- This program may not be used in any manner that
 competes with the business of Gaussian, Inc. or will provide
 assistance to any competitor of Gaussian, Inc.  The licensee
 of this program is prohibited from giving any competitor of
 Gaussian, Inc. access to this program.  By using this program,
 the user acknowledges that Gaussian, Inc. is engaged in the
 business of creating and licensing software in the field of
 computational chemistry and represents and warrants to the
 licensee that it is not a competitor of Gaussian, Inc. and that
 it will not use this program in any manner prohibited above.
 ---------------------------------------------------------------
  

 Cite this work as:
 Gaussian 09, Revision D.01,
 M. J. Frisch, G. W. Trucks, H. B. Schlegel, G. E. Scuseria, 
 M. A. Robb, J. R. Cheeseman, G. Scalmani, V. Barone, B. Mennucci, 
 G. A. Petersson, H. Nakatsuji, M. Caricato, X. Li, H. P. Hratchian, 
 A. F. Izmaylov, J. Bloino, G. Zheng, J. L. Sonnenberg, M. Hada, 
 M. Ehara, K. Toyota, R. Fukuda, J. Hasegawa, M. Ishida, T. Nakajima, 
 Y. Honda, O. Kitao, H. Nakai, T. Vreven, J. A. Montgomery, Jr., 
 J. E. Peralta, F. Ogliaro, M. Bearpark, J. J. Heyd, E. Brothers, 
 K. N. Kudin, V. N. Staroverov, T. Keith, R. Kobayashi, J. Normand, 
 K. Raghavachari, A. Rendell, J. C. Burant, S. S. Iyengar, J. Tomasi, 
 M. Cossi, N. Rega, J. M. Millam, M. Klene, J. E. Knox, J. B. Cross, 
 V. Bakken, C. Adamo, J. Jaramillo, R. Gomperts, R. E. Stratmann, 
 O. Yazyev, A. J. Austin, R. Cammi, C. Pomelli, J. W. Ochterski, 
 R. L. Martin, K. Morokuma, V. G. Zakrzewski, G. A. Voth, 
 P. Salvador, J. J. Dannenberg, S. Dapprich, A. D. Daniels, 
 O. Farkas, J. B. Foresman, J. V. Ortiz, J. Cioslowski, 
 and D. J. Fox, Gaussian, Inc., Wallingford CT, 2013.
 
 ******************************************
 Gaussian 09:  EM64L-G09RevD.01 24-Apr-2013
                 7-Jun-2015 
 ******************************************
 %nprocshared=8
 Will use up to    8 processors via shared memory.
 %nprocl=1
 Will use up to    1 processors via Linda.
 -----------------------------------------------
 # freq=noraman b3lyp/def2tzvp geom=connectivity
 -----------------------------------------------
 1/10=4,30=1,38=1,57=2/1,3;
 2/12=2,17=6,18=5,40=1/2;
 3/5=44,7=101,11=2,16=1,25=1,30=1,71=2,74=-5,140=1/1,2,3;
 4//1;
 5/5=2,38=5,98=1/2;
 8/6=4,10=90,11=11/1;
 11/6=1,8=1,9=11,15=111,16=1/1,2,10;
 10/6=1/2;
 6/7=2,8=2,9=2,10=2,18=1,28=1/1;
 7/8=1,10=1,25=1/1,2,3,16;
 1/10=4,30=1/3;
 99//99;
 ------------
 ts624oh freq
 ------------
 Symbolic Z-matrix:
 Charge =  0 Multiplicity = 1
 C                     0.9168   -0.63647   0.00996 
 O                     2.118    -0.61911  -0.64592 
 O                     0.031    -1.46762  -0.44642 
 O                     0.21317   0.92428  -0.42901 
 O                    -1.9142   -0.07646  -0.62749 
 C                    -2.88909  -0.06991   0.41996 
 H                    -2.41666  -0.10876   1.41058 
 H                    -3.48726   0.84216   0.33664 
 H                    -3.54122  -0.9393    0.29752 
 H                    -1.02568   0.66775  -0.4966 
 H                    -1.13833  -0.91864  -0.53656 
 C                     1.13081  -0.52082   1.5068 
 H                     1.5228   -1.48059   1.86053 
 H                     1.85074   0.26165   1.75901 
 H                     0.18125  -0.32591   2.01106 
 C                     0.79027   2.13711   0.01833 
 H                     1.87632   2.09635  -0.12842 
 H                     0.38944   2.96093  -0.58447 
 H                     0.57579   2.3351    1.07914 
 H                     1.93627  -0.93893  -1.54809 
 

 GradGradGradGradGradGradGradGradGradGradGradGradGradGradGradGradGradGrad
 Berny optimization.
 Initialization pass.
 Trust Radius=3.00D-01 FncErr=1.00D-07 GrdErr=1.00D-07
 Number of steps in this run=      2 maximum allowed number of steps=      2.
 GradGradGradGradGradGradGradGradGradGradGradGradGradGradGradGradGradGrad

                          Input orientation:                          
 ---------------------------------------------------------------------
 Center     Atomic      Atomic             Coordinates (Angstroms)
 Number     Number       Type             X           Y           Z
 ---------------------------------------------------------------------
      1          6           0        0.916798   -0.636468    0.009961
      2          8           0        2.117995   -0.619107   -0.645915
      3          8           0        0.030999   -1.467619   -0.446416
      4          8           0        0.213174    0.924277   -0.429007
      5          8           0       -1.914197   -0.076456   -0.627492
      6          6           0       -2.889085   -0.069909    0.419960
      7          1           0       -2.416658   -0.108762    1.410578
      8          1           0       -3.487257    0.842157    0.336639
      9          1           0       -3.541223   -0.939295    0.297519
     10          1           0       -1.025684    0.667748   -0.496602
     11          1           0       -1.138326   -0.918637   -0.536563
     12          6           0        1.130812   -0.520823    1.506801
     13          1           0        1.522801   -1.480594    1.860531
     14          1           0        1.850742    0.261645    1.759007
     15          1           0        0.181246   -0.325914    2.011063
     16          6           0        0.790269    2.137106    0.018330
     17          1           0        1.876320    2.096354   -0.128420
     18          1           0        0.389436    2.960934   -0.584470
     19          1           0        0.575793    2.335104    1.079144
     20          1           0        1.936266   -0.938934   -1.548088
 ---------------------------------------------------------------------
                    Distance matrix (angstroms):
                    1          2          3          4          5
     1  C    0.000000
     2  O    1.368703   0.000000
     3  O    1.297587   2.261708   0.000000
     4  O    1.767401   2.461184   2.398887   0.000000
     5  O    2.955417   4.068585   2.398314   2.359358   0.000000
     6  C    3.869604   5.148646   3.351282   3.366476   1.430946
     7  H    3.654057   5.005267   3.359456   3.371537   2.099343
     8  H    4.657118   5.875334   4.280930   3.779702   2.061047
     9  H    4.477538   5.746245   3.686914   4.253967   2.060910
    10  H    2.393913   3.400148   2.383042   1.266943   1.166373
    11  H    2.145191   3.271896   1.294924   2.287893   1.148700
    12  C    1.516478   2.370311   2.433324   2.584130   3.744963
    13  H    2.122357   2.716374   2.747298   3.569385   4.469320
    14  H    2.176699   2.575034   3.341513   2.812137   4.470398
    15  H    2.154505   3.300983   2.713903   2.741886   3.378621
    16  C    2.776471   3.130621   3.713021   1.415664   3.554023
    17  H    2.899681   2.774876   4.025945   2.056738   4.397521
    18  H    3.684123   3.975976   4.445179   2.050173   3.812390
    19  H    3.176425   3.752543   4.133381   2.096770   3.863713
    20  H    1.886350   0.974285   2.263456   2.773616   4.051843
                    6          7          8          9         10
     6  C    0.000000
     7  H    1.098190   0.000000
     8  H    1.093900   1.789909   0.000000
     9  H    1.093667   1.786990   1.782698   0.000000
    10  H    2.203744   2.484977   2.604621   3.088875   0.000000
    11  H    2.168048   2.466047   3.062736   2.543626   1.590881
    12  C    4.188570   3.572618   4.955154   4.844109   3.174398
    13  H    4.850775   4.195678   5.728708   5.327321   4.082429
    14  H    4.936490   4.297593   5.554670   5.714148   3.677842
    15  H    3.467575   2.675228   4.198333   4.143579   2.955068
    16  C    4.309277   4.155317   4.480563   5.320152   2.392040
    17  H    5.263317   5.065640   5.527861   6.224658   3.255472
    18  H    4.576417   4.612745   4.512916   5.607118   2.696106
    19  H    4.268957   3.877769   4.391877   5.318124   2.797817
    20  H    5.283222   5.328305   6.011579   5.780065   3.529901
                   11         12         13         14         15
    11  H    0.000000
    12  C    3.079380   0.000000
    13  H    3.625390   1.095418   0.000000
    14  H    3.949333   1.092778   1.775739   0.000000
    15  H    2.929674   1.092678   1.776433   1.787729   0.000000
    16  C    3.655810   3.065306   4.125295   2.769822   3.226199
    17  H    4.283088   3.174798   4.107975   2.632336   3.649390
    18  H    4.169823   4.128642   5.195163   3.861795   4.193269
    19  H    4.016907   2.940622   4.008359   2.527240   2.846956
    20  H    3.236775   3.186835   3.476066   3.519316   4.015401
                   16         17         18         19         20
    16  C    0.000000
    17  H    1.096678   0.000000
    18  H    1.096689   1.779411   0.000000
    19  H    1.100241   1.790693   1.787178   0.000000
    20  H    3.637169   3.351421   4.304673   4.412772   0.000000
 Stoichiometry    C4H12O4
 Framework group  C1[X(C4H12O4)]
 Deg. of freedom    54
 Full point group                 C1      NOp   1
 Largest Abelian subgroup         C1      NOp   1
 Largest concise Abelian subgroup C1      NOp   1
                         Standard orientation:                         
 ---------------------------------------------------------------------
 Center     Atomic      Atomic             Coordinates (Angstroms)
 Number     Number       Type             X           Y           Z
 ---------------------------------------------------------------------
      1          6           0        0.916798   -0.636468    0.009961
      2          8           0        2.117995   -0.619107   -0.645915
      3          8           0        0.030999   -1.467619   -0.446416
      4          8           0        0.213174    0.924277   -0.429007
      5          8           0       -1.914197   -0.076456   -0.627492
      6          6           0       -2.889085   -0.069909    0.419960
      7          1           0       -2.416658   -0.108762    1.410578
      8          1           0       -3.487257    0.842157    0.336639
      9          1           0       -3.541223   -0.939295    0.297519
     10          1           0       -1.025684    0.667748   -0.496602
     11          1           0       -1.138326   -0.918637   -0.536563
     12          6           0        1.130812   -0.520823    1.506801
     13          1           0        1.522801   -1.480594    1.860531
     14          1           0        1.850742    0.261645    1.759007
     15          1           0        0.181246   -0.325914    2.011063
     16          6           0        0.790269    2.137106    0.018330
     17          1           0        1.876320    2.096354   -0.128420
     18          1           0        0.389436    2.960934   -0.584470
     19          1           0        0.575793    2.335104    1.079144
     20          1           0        1.936266   -0.938934   -1.548088
 ---------------------------------------------------------------------
 Rotational constants (GHZ):      2.4338520      1.3420549      1.1155950
 Standard basis: def2TZVP (5D, 7F)
 There are   360 symmetry adapted cartesian basis functions of A   symmetry.
 There are   320 symmetry adapted basis functions of A   symmetry.
   320 basis functions,   504 primitive gaussians,   360 cartesian basis functions
    34 alpha electrons       34 beta electrons
       nuclear repulsion energy       447.2173014292 Hartrees.
 NAtoms=   20 NActive=   20 NUniq=   20 SFac= 1.00D+00 NAtFMM=   60 NAOKFM=F Big=F
 Integral buffers will be    131072 words long.
 Raffenetti 2 integral format.
 Two-electron integral symmetry is turned on.
 One-electron integrals computed using PRISM.
 PrsmSu:  requested number of processors reduced to:   4 ShMem   1 Linda.
   1 Symmetry operations used in ECPInt.
 ECPInt:  NShTT=    9316 NPrTT=   27240 LenC2=    9093 LenP2D=   20973.
 LDataN:  DoStor=T MaxTD1= 6 Len=  172
 NBasis=   320 RedAO= T EigKep=  2.77D-04  NBF=   320
 NBsUse=   320 1.00D-06 EigRej= -1.00D+00 NBFU=   320
 ExpMin= 9.52D-02 ExpMax= 2.70D+04 ExpMxC= 9.22D+02 IAcc=2 IRadAn=         4 AccDes= 0.00D+00
 Harris functional with IExCor=  402 and IRadAn=       4 diagonalized for initial guess.
 HarFok:  IExCor=  402 AccDes= 0.00D+00 IRadAn=         4 IDoV= 1 UseB2=F ITyADJ=14
 ICtDFT=  3500011 ScaDFX=  1.000000  1.000000  1.000000  1.000000
 FoFCou: FMM=F IPFlag=           0 FMFlag=      100000 FMFlg1=           0
         NFxFlg=           0 DoJE=T BraDBF=F KetDBF=T FulRan=T
         wScrn=  0.000000 ICntrl=     500 IOpCl=  0 I1Cent=   200000004 NGrid=           0
         NMat0=    1 NMatS0=      1 NMatT0=    0 NMatD0=    1 NMtDS0=    0 NMtDT0=    0
 Petite list used in FoFCou.
 Requested convergence on RMS density matrix=1.00D-08 within 128 cycles.
 Requested convergence on MAX density matrix=1.00D-06.
 Requested convergence on             energy=1.00D-06.
 No special actions if energy rises.
 Integral accuracy reduced to 1.0D-05 until final iterations.
 Initial convergence to 1.0D-05 achieved.  Increase integral accuracy.
 SCF Done:  E(RB3LYP) =  -460.706052190     A.U. after   13 cycles
            NFock= 13  Conv=0.94D-08     -V/T= 2.0050
 DoSCS=F DFT=T ScalE2(SS,OS)=  1.000000  1.000000
 Range of M.O.s used for correlation:     1   320
 NBasis=   320 NAE=    34 NBE=    34 NFC=     0 NFV=     0
 NROrb=    320 NOA=    34 NOB=    34 NVA=   286 NVB=   286

 **** Warning!!: The largest alpha MO coefficient is  0.16221074D+02

 PrsmSu:  requested number of processors reduced to:   4 ShMem   1 Linda.
 PrsmSu:  requested number of processors reduced to:   4 ShMem   1 Linda.
   1 Symmetry operations used in ECPInt.
 ECPInt:  NShTT=    9316 NPrTT=   27240 LenC2=    9093 LenP2D=   20973.
 LDataN:  DoStor=T MaxTD1= 7 Len=  274
 Number of processors reduced to   2 by ecpmxn.
 Symmetrizing basis deriv contribution to polar:
 IMax=3 JMax=2 DiffMx= 0.00D+00
 G2DrvN: will do     1 centers at a time, making   21 passes.
 Calling FoFCou, ICntrl=  3107 FMM=F I1Cent=   0 AccDes= 0.00D+00.
 Calling FoFCou, ICntrl=  3107 FMM=F I1Cent=   0 AccDes= 0.00D+00.
 Calling FoFCou, ICntrl=  3107 FMM=F I1Cent=   0 AccDes= 0.00D+00.
 Calling FoFCou, ICntrl=  3107 FMM=F I1Cent=   0 AccDes= 0.00D+00.
 Calling FoFCou, ICntrl=  3107 FMM=F I1Cent=   0 AccDes= 0.00D+00.
 Calling FoFCou, ICntrl=  3107 FMM=F I1Cent=   0 AccDes= 0.00D+00.
 Calling FoFCou, ICntrl=  3107 FMM=F I1Cent=   0 AccDes= 0.00D+00.
 Calling FoFCou, ICntrl=  3107 FMM=F I1Cent=   0 AccDes= 0.00D+00.
 Calling FoFCou, ICntrl=  3107 FMM=F I1Cent=   0 AccDes= 0.00D+00.
 Calling FoFCou, ICntrl=  3107 FMM=F I1Cent=   0 AccDes= 0.00D+00.
 Calling FoFCou, ICntrl=  3107 FMM=F I1Cent=   0 AccDes= 0.00D+00.
 Calling FoFCou, ICntrl=  3107 FMM=F I1Cent=   0 AccDes= 0.00D+00.
 Calling FoFCou, ICntrl=  3107 FMM=F I1Cent=   0 AccDes= 0.00D+00.
 Calling FoFCou, ICntrl=  3107 FMM=F I1Cent=   0 AccDes= 0.00D+00.
 Calling FoFCou, ICntrl=  3107 FMM=F I1Cent=   0 AccDes= 0.00D+00.
 Calling FoFCou, ICntrl=  3107 FMM=F I1Cent=   0 AccDes= 0.00D+00.
 Calling FoFCou, ICntrl=  3107 FMM=F I1Cent=   0 AccDes= 0.00D+00.
 Calling FoFCou, ICntrl=  3107 FMM=F I1Cent=   0 AccDes= 0.00D+00.
 Calling FoFCou, ICntrl=  3107 FMM=F I1Cent=   0 AccDes= 0.00D+00.
 Calling FoFCou, ICntrl=  3107 FMM=F I1Cent=   0 AccDes= 0.00D+00.
 Calling FoFCou, ICntrl=  3107 FMM=F I1Cent=   0 AccDes= 0.00D+00.
 End of G2Drv F.D. properties file   721 does not exist.
 End of G2Drv F.D. properties file   722 does not exist.
 End of G2Drv F.D. properties file   788 does not exist.
          IDoAtm=11111111111111111111
          Differentiating once with respect to electric field.
                with respect to dipole field.
          Differentiating once with respect to nuclear coordinates.
 PrRfSu:  requested number of processors reduced to:   5 ShMem   1 Linda.
 PrRfSu:  requested number of processors reduced to:   5 ShMem   1 Linda.
 PrRfSu:  requested number of processors reduced to:   5 ShMem   1 Linda.
          There are    63 degrees of freedom in the 1st order CPHF.  IDoFFX=6 NUNeed=     3.
     63 vectors produced by pass  0 Test12= 1.54D-14 1.59D-09 XBig12= 5.07D+01 2.51D+00.
 AX will form    24 AO Fock derivatives at one time.
 PrRfSu:  requested number of processors reduced to:   5 ShMem   1 Linda.
 PrRfSu:  requested number of processors reduced to:   5 ShMem   1 Linda.
 PrRfSu:  requested number of processors reduced to:   5 ShMem   1 Linda.
     60 vectors produced by pass  1 Test12= 1.54D-14 1.59D-09 XBig12= 7.63D+00 4.14D-01.
 PrRfSu:  requested number of processors reduced to:   5 ShMem   1 Linda.
 PrRfSu:  requested number of processors reduced to:   5 ShMem   1 Linda.
 PrRfSu:  requested number of processors reduced to:   6 ShMem   1 Linda.
     60 vectors produced by pass  2 Test12= 1.54D-14 1.59D-09 XBig12= 6.59D-02 2.79D-02.
 PrRfSu:  requested number of processors reduced to:   5 ShMem   1 Linda.
 PrRfSu:  requested number of processors reduced to:   5 ShMem   1 Linda.
 PrRfSu:  requested number of processors reduced to:   6 ShMem   1 Linda.
     60 vectors produced by pass  3 Test12= 1.54D-14 1.59D-09 XBig12= 1.82D-04 1.82D-03.
 PrRfSu:  requested number of processors reduced to:   5 ShMem   1 Linda.
 PrRfSu:  requested number of processors reduced to:   5 ShMem   1 Linda.
 PrRfSu:  requested number of processors reduced to:   6 ShMem   1 Linda.
     60 vectors produced by pass  4 Test12= 1.54D-14 1.59D-09 XBig12= 3.31D-07 5.77D-05.
 PrRfSu:  requested number of processors reduced to:   5 ShMem   1 Linda.
 PrRfSu:  requested number of processors reduced to:   5 ShMem   1 Linda.
 PrRfSu:  requested number of processors reduced to:   6 ShMem   1 Linda.
     44 vectors produced by pass  5 Test12= 1.54D-14 1.59D-09 XBig12= 4.99D-10 2.77D-06.
 PrRfSu:  requested number of processors reduced to:   5 ShMem   1 Linda.
 PrRfSu:  requested number of processors reduced to:   5 ShMem   1 Linda.
      7 vectors produced by pass  6 Test12= 1.54D-14 1.59D-09 XBig12= 7.21D-13 1.64D-07.
 PrRfSu:  requested number of processors reduced to:   6 ShMem   1 Linda.
      3 vectors produced by pass  7 Test12= 1.54D-14 1.59D-09 XBig12= 1.37D-15 5.73D-09.
 InvSVY:  IOpt=1 It=  1 EMax= 9.77D-15
 Solved reduced A of dimension   357 with    63 vectors.
 Isotropic polarizability for W=    0.000000       75.71 Bohr**3.
 End of Minotr F.D. properties file   721 does not exist.
 End of Minotr F.D. properties file   722 does not exist.
 End of Minotr F.D. properties file   788 does not exist.

 **********************************************************************

            Population analysis using the SCF density.

 **********************************************************************

 Orbital symmetries:
       Occupied  (A) (A) (A) (A) (A) (A) (A) (A) (A) (A) (A) (A)
                 (A) (A) (A) (A) (A) (A) (A) (A) (A) (A) (A) (A)
                 (A) (A) (A) (A) (A) (A) (A) (A) (A) (A)
       Virtual   (A) (A) (A) (A) (A) (A) (A) (A) (A) (A) (A) (A)
                 (A) (A) (A) (A) (A) (A) (A) (A) (A) (A) (A) (A)
                 (A) (A) (A) (A) (A) (A) (A) (A) (A) (A) (A) (A)
                 (A) (A) (A) (A) (A) (A) (A) (A) (A) (A) (A) (A)
                 (A) (A) (A) (A) (A) (A) (A) (A) (A) (A) (A) (A)
                 (A) (A) (A) (A) (A) (A) (A) (A) (A) (A) (A) (A)
                 (A) (A) (A) (A) (A) (A) (A) (A) (A) (A) (A) (A)
                 (A) (A) (A) (A) (A) (A) (A) (A) (A) (A) (A) (A)
                 (A) (A) (A) (A) (A) (A) (A) (A) (A) (A) (A) (A)
                 (A) (A) (A) (A) (A) (A) (A) (A) (A) (A) (A) (A)
                 (A) (A) (A) (A) (A) (A) (A) (A) (A) (A) (A) (A)
                 (A) (A) (A) (A) (A) (A) (A) (A) (A) (A) (A) (A)
                 (A) (A) (A) (A) (A) (A) (A) (A) (A) (A) (A) (A)
                 (A) (A) (A) (A) (A) (A) (A) (A) (A) (A) (A) (A)
                 (A) (A) (A) (A) (A) (A) (A) (A) (A) (A) (A) (A)
                 (A) (A) (A) (A) (A) (A) (A) (A) (A) (A) (A) (A)
                 (A) (A) (A) (A) (A) (A) (A) (A) (A) (A) (A) (A)
                 (A) (A) (A) (A) (A) (A) (A) (A) (A) (A) (A) (A)
                 (A) (A) (A) (A) (A) (A) (A) (A) (A) (A) (A) (A)
                 (A) (A) (A) (A) (A) (A) (A) (A) (A) (A) (A) (A)
                 (A) (A) (A) (A) (A) (A) (A) (A) (A) (A) (A) (A)
                 (A) (A) (A) (A) (A) (A) (A) (A) (A) (A) (A) (A)
                 (A) (A) (A) (A) (A) (A) (A) (A) (A) (A) (A) (A)
                 (A) (A) (A) (A) (A) (A) (A) (A) (A) (A)
 The electronic state is 1-A.
 Alpha  occ. eigenvalues --  -19.14837 -19.14787 -19.12490 -19.09062 -10.32317
 Alpha  occ. eigenvalues --  -10.23051 -10.21618 -10.17290  -1.08841  -1.04421
 Alpha  occ. eigenvalues --   -0.99194  -0.97938  -0.74781  -0.70867  -0.67710
 Alpha  occ. eigenvalues --   -0.60201  -0.54334  -0.53248  -0.51041  -0.47308
 Alpha  occ. eigenvalues --   -0.46552  -0.45583  -0.44704  -0.43216  -0.41487
 Alpha  occ. eigenvalues --   -0.39958  -0.39706  -0.37746  -0.35533  -0.33833
 Alpha  occ. eigenvalues --   -0.30409  -0.28016  -0.27768  -0.26812
 Alpha virt. eigenvalues --    0.02000   0.04143   0.05300   0.06028   0.06686
 Alpha virt. eigenvalues --    0.07716   0.09428   0.10030   0.10978   0.11463
 Alpha virt. eigenvalues --    0.12374   0.13064   0.14425   0.16836   0.17878
 Alpha virt. eigenvalues --    0.18397   0.21836   0.21966   0.23680   0.23992
 Alpha virt. eigenvalues --    0.24844   0.25612   0.26176   0.27914   0.31225
 Alpha virt. eigenvalues --    0.32216   0.32988   0.34435   0.35623   0.36730
 Alpha virt. eigenvalues --    0.37209   0.38014   0.39184   0.40262   0.41759
 Alpha virt. eigenvalues --    0.42000   0.44860   0.45240   0.45626   0.46282
 Alpha virt. eigenvalues --    0.46989   0.47597   0.48635   0.49504   0.50704
 Alpha virt. eigenvalues --    0.52455   0.53603   0.54530   0.56182   0.57656
 Alpha virt. eigenvalues --    0.60485   0.60808   0.63355   0.65282   0.69861
 Alpha virt. eigenvalues --    0.71361   0.72283   0.74847   0.75843   0.76865
 Alpha virt. eigenvalues --    0.78582   0.79914   0.81097   0.83162   0.87240
 Alpha virt. eigenvalues --    0.88882   0.90871   0.91215   0.92427   0.94599
 Alpha virt. eigenvalues --    0.97155   0.98405   1.01491   1.02830   1.05570
 Alpha virt. eigenvalues --    1.07346   1.08882   1.09522   1.11191   1.15631
 Alpha virt. eigenvalues --    1.20224   1.22945   1.31346   1.33195   1.37211
 Alpha virt. eigenvalues --    1.39195   1.42445   1.45019   1.46943   1.48528
 Alpha virt. eigenvalues --    1.48969   1.49845   1.50547   1.51763   1.52180
 Alpha virt. eigenvalues --    1.53194   1.54699   1.56777   1.56931   1.58453
 Alpha virt. eigenvalues --    1.60234   1.62675   1.64182   1.66266   1.68223
 Alpha virt. eigenvalues --    1.70226   1.71659   1.73632   1.75833   1.77055
 Alpha virt. eigenvalues --    1.79356   1.84620   1.86313   1.87590   1.88022
 Alpha virt. eigenvalues --    1.90247   1.93668   1.95655   1.96573   1.98157
 Alpha virt. eigenvalues --    1.99957   2.02241   2.04013   2.05215   2.08614
 Alpha virt. eigenvalues --    2.09817   2.12146   2.15310   2.16535   2.19319
 Alpha virt. eigenvalues --    2.20713   2.21578   2.25258   2.25741   2.26904
 Alpha virt. eigenvalues --    2.28086   2.29376   2.30523   2.31587   2.33446
 Alpha virt. eigenvalues --    2.34660   2.35256   2.36116   2.38509   2.39978
 Alpha virt. eigenvalues --    2.41665   2.47408   2.50144   2.51072   2.51934
 Alpha virt. eigenvalues --    2.52580   2.55446   2.55804   2.56406   2.58005
 Alpha virt. eigenvalues --    2.59766   2.63491   2.66889   2.67869   2.70716
 Alpha virt. eigenvalues --    2.73814   2.76244   2.77537   2.77926   2.80048
 Alpha virt. eigenvalues --    2.81644   2.86170   2.90133   2.94150   2.97111
 Alpha virt. eigenvalues --    3.01269   3.02602   3.04016   3.04664   3.07752
 Alpha virt. eigenvalues --    3.08148   3.10175   3.12239   3.14930   3.17030
 Alpha virt. eigenvalues --    3.18035   3.18701   3.21715   3.23869   3.26352
 Alpha virt. eigenvalues --    3.27096   3.28252   3.30317   3.30670   3.32598
 Alpha virt. eigenvalues --    3.35604   3.36799   3.38144   3.41457   3.43165
 Alpha virt. eigenvalues --    3.46751   3.48896   3.51373   3.53719   3.55197
 Alpha virt. eigenvalues --    3.55775   3.57803   3.59292   3.63393   3.65247
 Alpha virt. eigenvalues --    3.69792   3.71754   3.83885   3.85341   3.89576
 Alpha virt. eigenvalues --    3.93214   3.96597   4.00561   4.03793   4.12205
 Alpha virt. eigenvalues --    4.15050   4.16178   4.17579   4.21419   4.30505
 Alpha virt. eigenvalues --    4.33834   4.36229   4.38671   4.40350   4.45952
 Alpha virt. eigenvalues --    4.49325   4.56196   4.60822   4.72797   4.82621
 Alpha virt. eigenvalues --    5.17662   5.20799   5.22066   5.25805   5.27871
 Alpha virt. eigenvalues --    5.31950   5.37041   5.38677   5.41244   5.46344
 Alpha virt. eigenvalues --    5.47538   5.51648   5.59988   5.69394   5.71293
 Alpha virt. eigenvalues --    5.75552   5.81008   5.82187   5.84893   5.90404
 Alpha virt. eigenvalues --    5.95943   6.01264   6.05959   6.08580   6.26206
 Alpha virt. eigenvalues --    6.31529   6.35028   6.37942   6.46901   6.54043
 Alpha virt. eigenvalues --    6.57141   6.62139   6.67486   6.68797   6.73729
 Alpha virt. eigenvalues --    6.79365   6.86204   6.89264   6.94151   6.96033
 Alpha virt. eigenvalues --    6.98626   7.07111   7.08341   7.17172   7.20705
 Alpha virt. eigenvalues --    7.34789   7.43063   7.43983  22.27472  22.31279
 Alpha virt. eigenvalues --   22.34865  22.95489  43.82216  43.87206  43.95983
 Alpha virt. eigenvalues --   44.06651
          Condensed to atoms (all electrons):
               1          2          3          4          5          6
     1  C    4.532988   0.405116   0.457205   0.153466   0.028718   0.008169
     2  O    0.405116   7.939299  -0.091672  -0.059167  -0.001187   0.000263
     3  O    0.457205  -0.091672   8.206437  -0.070422  -0.118053   0.011778
     4  O    0.153466  -0.059167  -0.070422   8.351575  -0.116262   0.009654
     5  O    0.028718  -0.001187  -0.118053  -0.116262   8.144174   0.215811
     6  C    0.008169   0.000263   0.011778   0.009654   0.215811   4.744592
     7  H   -0.005878   0.000008   0.001888   0.001427  -0.058558   0.390814
     8  H   -0.000017   0.000006  -0.000360   0.000326  -0.031026   0.409651
     9  H    0.000492  -0.000002   0.000056  -0.000526  -0.030808   0.413154
    10  H   -0.016060   0.001468   0.014095   0.149358   0.188826  -0.013418
    11  H   -0.016520   0.000929   0.156643   0.007379   0.212099  -0.014675
    12  C    0.212459  -0.096142  -0.071245  -0.071473  -0.013145  -0.006742
    13  H   -0.022463   0.004033   0.001454   0.006737   0.000222   0.000234
    14  H   -0.030099   0.003873   0.006041  -0.001630   0.000116   0.000196
    15  H   -0.031959   0.004573   0.000709   0.005526   0.003882   0.000261
    16  C   -0.020234  -0.006294   0.002303   0.214270   0.007515  -0.000473
    17  H   -0.010974   0.012963   0.000575  -0.039771  -0.000857   0.000158
    18  H    0.004198  -0.000678  -0.000400  -0.031187   0.001023   0.000211
    19  H   -0.005403   0.000103   0.000333  -0.060746   0.000526  -0.001200
    20  H   -0.029534   0.279299   0.007636   0.000968   0.000173  -0.000109
               7          8          9         10         11         12
     1  C   -0.005878  -0.000017   0.000492  -0.016060  -0.016520   0.212459
     2  O    0.000008   0.000006  -0.000002   0.001468   0.000929  -0.096142
     3  O    0.001888  -0.000360   0.000056   0.014095   0.156643  -0.071245
     4  O    0.001427   0.000326  -0.000526   0.149358   0.007379  -0.071473
     5  O   -0.058558  -0.031026  -0.030808   0.188826   0.212099  -0.013145
     6  C    0.390814   0.409651   0.413154  -0.013418  -0.014675  -0.006742
     7  H    0.640817  -0.042675  -0.039819   0.003884   0.002537   0.005414
     8  H   -0.042675   0.572393  -0.025238  -0.010036   0.004885  -0.000067
     9  H   -0.039819  -0.025238   0.559730   0.004489  -0.009615  -0.000052
    10  H    0.003884  -0.010036   0.004489   0.356486  -0.023696   0.009666
    11  H    0.002537   0.004885  -0.009615  -0.023696   0.314163   0.006159
    12  C    0.005414  -0.000067  -0.000052   0.009666   0.006159   5.153510
    13  H   -0.000132  -0.000005   0.000006  -0.000673  -0.000240   0.377365
    14  H   -0.000105   0.000020  -0.000010  -0.000311  -0.000402   0.384013
    15  H   -0.002349   0.000128   0.000105  -0.000707  -0.000572   0.389199
    16  C   -0.001229   0.000213   0.000095  -0.007876  -0.000249   0.007548
    17  H    0.000031  -0.000008  -0.000002   0.003830   0.000002  -0.000844
    18  H   -0.000001  -0.000063   0.000006  -0.007434  -0.000070  -0.000545
    19  H    0.000178   0.000170  -0.000027  -0.000315   0.000158   0.003504
    20  H   -0.000008  -0.000002   0.000005   0.000329   0.000622   0.016382
              13         14         15         16         17         18
     1  C   -0.022463  -0.030099  -0.031959  -0.020234  -0.010974   0.004198
     2  O    0.004033   0.003873   0.004573  -0.006294   0.012963  -0.000678
     3  O    0.001454   0.006041   0.000709   0.002303   0.000575  -0.000400
     4  O    0.006737  -0.001630   0.005526   0.214270  -0.039771  -0.031187
     5  O    0.000222   0.000116   0.003882   0.007515  -0.000857   0.001023
     6  C    0.000234   0.000196   0.000261  -0.000473   0.000158   0.000211
     7  H   -0.000132  -0.000105  -0.002349  -0.001229   0.000031  -0.000001
     8  H   -0.000005   0.000020   0.000128   0.000213  -0.000008  -0.000063
     9  H    0.000006  -0.000010   0.000105   0.000095  -0.000002   0.000006
    10  H   -0.000673  -0.000311  -0.000707  -0.007876   0.003830  -0.007434
    11  H   -0.000240  -0.000402  -0.000572  -0.000249   0.000002  -0.000070
    12  C    0.377365   0.384013   0.389199   0.007548  -0.000844  -0.000545
    13  H    0.547901  -0.021354  -0.015765  -0.000472  -0.000058   0.000068
    14  H   -0.021354   0.569687  -0.026558  -0.000502  -0.000911   0.000357
    15  H   -0.015765  -0.026558   0.578363  -0.002790   0.000447  -0.000017
    16  C   -0.000472  -0.000502  -0.002790   4.767789   0.407527   0.402752
    17  H   -0.000058  -0.000911   0.000447   0.407527   0.574234  -0.022309
    18  H    0.000068   0.000357  -0.000017   0.402752  -0.022309   0.574184
    19  H   -0.000674  -0.000312  -0.001043   0.411828  -0.052159  -0.041213
    20  H   -0.000592  -0.001082  -0.000826   0.001559  -0.000655  -0.000010
              19         20
     1  C   -0.005403  -0.029534
     2  O    0.000103   0.279299
     3  O    0.000333   0.007636
     4  O   -0.060746   0.000968
     5  O    0.000526   0.000173
     6  C   -0.001200  -0.000109
     7  H    0.000178  -0.000008
     8  H    0.000170  -0.000002
     9  H   -0.000027   0.000005
    10  H   -0.000315   0.000329
    11  H    0.000158   0.000622
    12  C    0.003504   0.016382
    13  H   -0.000674  -0.000592
    14  H   -0.000312  -0.001082
    15  H   -0.001043  -0.000826
    16  C    0.411828   0.001559
    17  H   -0.052159  -0.000655
    18  H   -0.041213  -0.000010
    19  H    0.645598  -0.000003
    20  H   -0.000003   0.416482
 Mulliken charges:
               1
     1  C    0.386331
     2  O   -0.396791
     3  O   -0.515002
     4  O   -0.449503
     5  O   -0.433188
     6  C   -0.168328
     7  H    0.103758
     8  H    0.121706
     9  H    0.127959
    10  H    0.348097
    11  H    0.360463
    12  C   -0.304964
    13  H    0.124406
    14  H    0.118974
    15  H    0.099394
    16  C   -0.183282
    17  H    0.128781
    18  H    0.121127
    19  H    0.100697
    20  H    0.309366
 Sum of Mulliken charges =   0.00000
 Mulliken charges with hydrogens summed into heavy atoms:
               1
     1  C    0.386331
     2  O   -0.087425
     3  O   -0.515002
     4  O   -0.449503
     5  O    0.275371
     6  C    0.185095
    12  C    0.037810
    16  C    0.167323
 APT charges:
               1
     1  C    1.575097
     2  O   -0.724629
     3  O   -1.099907
     4  O   -1.094810
     5  O   -1.002539
     6  C    0.473214
     7  H   -0.042074
     8  H   -0.026986
     9  H   -0.023004
    10  H    0.717868
    11  H    0.704702
    12  C   -0.072105
    13  H    0.011752
    14  H    0.005874
    15  H    0.003237
    16  C    0.445216
    17  H   -0.023211
    18  H   -0.043641
    19  H   -0.062591
    20  H    0.278536
 Sum of APT charges =   0.00000
 APT charges with hydrogens summed into heavy atoms:
               1
     1  C    1.575097
     2  O   -0.446092
     3  O   -1.099907
     4  O   -1.094810
     5  O    0.420030
     6  C    0.381150
    12  C   -0.051243
    16  C    0.315774
 Electronic spatial extent (au):  <R**2>=           1193.1917
 Charge=              0.0000 electrons
 Dipole moment (field-independent basis, Debye):
    X=             -1.1446    Y=              1.8253    Z=              1.6830  Tot=              2.7340
 Quadrupole moment (field-independent basis, Debye-Ang):
   XX=            -47.4303   YY=            -51.1270   ZZ=            -48.8273
   XY=              0.1222   XZ=             -3.4213   YZ=              0.1173
 Traceless Quadrupole moment (field-independent basis, Debye-Ang):
   XX=              1.6979   YY=             -1.9988   ZZ=              0.3009
   XY=              0.1222   XZ=             -3.4213   YZ=              0.1173
 Octapole moment (field-independent basis, Debye-Ang**2):
  XXX=            -24.3445  YYY=              9.3977  ZZZ=            -12.0542  XYY=              0.9724
  XXY=             -2.4320  XXZ=              1.0815  XZZ=              9.5540  YZZ=             -5.2742
  YYZ=             -2.8525  XYZ=              2.3474
 Hexadecapole moment (field-independent basis, Debye-Ang**3):
 XXXX=           -829.5238 YYYY=           -434.9219 ZZZZ=           -233.6625 XXXY=              4.4781
 XXXZ=            -21.2253 YYYX=             -2.8763 YYYZ=             -5.8091 ZZZX=            -19.3669
 ZZZY=              8.7686 XXYY=           -201.3336 XXZZ=           -175.0357 YYZZ=           -109.1876
 XXYZ=              6.3089 YYXZ=             -0.2374 ZZXY=            -10.5016
 N-N= 4.472173014292D+02 E-N=-1.975906248608D+03  KE= 4.584087104368D+02
  Exact polarizability:  84.410   0.340  77.006  -0.407  -0.107  65.726
 Approx polarizability: 108.265   0.461 105.840   0.349   1.285  91.032
 PrsmSu:  requested number of processors reduced to:   4 ShMem   1 Linda.
 PrsmSu:  requested number of processors reduced to:   4 ShMem   1 Linda.
   1 Symmetry operations used in ECPInt.
 ECPInt:  NShTT=    9316 NPrTT=   27240 LenC2=    9093 LenP2D=   20973.
 LDataN:  DoStor=T MaxTD1= 8 Len=  415
 Calling FoFJK, ICntrl=    100127 FMM=F ISym2X=0 I1Cent= 0 IOpClX= 0 NMat=1 NMatS=1 NMatT=0.
 CoulSu:  requested number of processors reduced to:   4 ShMem   1 Linda.
 Full mass-weighted force constant matrix:
 Low frequencies ----1308.4666   -0.0008    0.0009    0.0009   36.3825   40.8036
 Low frequencies ---   48.4743   85.5371  113.0072
 ******    1 imaginary frequencies (negative Signs) ****** 
 Diagonal vibrational polarizability:
      150.0650640      88.9629437      21.3785986
 Harmonic frequencies (cm**-1), IR intensities (KM/Mole), Raman scattering
 activities (A**4/AMU), depolarization ratios for plane and unpolarized
 incident light, reduced masses (AMU), force constants (mDyne/A),
 and normal coordinates:
                      1                      2                      3
                      A                      A                      A
 Frequencies --  -1308.4640                83.2398               112.9032
 Red. masses --      1.1628                 4.1652                 2.8015
 Frc consts  --      1.1729                 0.0170                 0.0210
 IR Inten    --    247.3103                 5.1073                 3.9136
  Atom  AN      X      Y      Z        X      Y      Z        X      Y      Z
     1   6     0.00  -0.10   0.00     0.03   0.00   0.04    -0.03   0.02   0.02
     2   8     0.00   0.01   0.00    -0.08   0.01  -0.15    -0.02   0.09   0.03
     3   8     0.04   0.00   0.01    -0.04  -0.02   0.20    -0.01   0.03  -0.03
     4   8    -0.03   0.02  -0.01    -0.04  -0.01   0.15    -0.04   0.02   0.13
     5   8     0.00   0.00   0.00    -0.01   0.00  -0.09    -0.02   0.04   0.03
     6   6     0.00  -0.01   0.00    -0.14   0.02  -0.20    -0.07  -0.15  -0.01
     7   1     0.00   0.00   0.00    -0.24   0.03  -0.15    -0.11  -0.22   0.00
     8   1     0.02   0.00  -0.02    -0.12   0.02  -0.28    -0.14  -0.20   0.05
     9   1    -0.03   0.00   0.03    -0.13   0.02  -0.27     0.01  -0.20  -0.13
    10   1     0.67   0.26   0.06    -0.04   0.00   0.02    -0.05   0.06   0.11
    11   1    -0.61   0.30  -0.05    -0.04   0.02   0.03    -0.05   0.06  -0.05
    12   6     0.00   0.00   0.00     0.28   0.01   0.01    -0.05  -0.06   0.03
    13   1     0.00   0.01   0.01     0.35   0.02  -0.05    -0.02  -0.06  -0.01
    14   1     0.00   0.00   0.00     0.32   0.02  -0.12    -0.08  -0.04   0.08
    15   1     0.00   0.00   0.00     0.36   0.01   0.16    -0.06  -0.11   0.02
    16   6    -0.02   0.02   0.00     0.01   0.00   0.06     0.22   0.01  -0.18
    17   1    -0.03  -0.05  -0.01     0.00  -0.02  -0.03     0.19  -0.20  -0.36
    18   1     0.01   0.03   0.01    -0.03  -0.02   0.06     0.25  -0.03  -0.26
    19   1     0.00  -0.01   0.00     0.10   0.03   0.07     0.43   0.22  -0.18
    20   1     0.00  -0.02   0.01    -0.21  -0.01  -0.12     0.00   0.10   0.02
                      4                      5                      6
                      A                      A                      A
 Frequencies --    157.1677               170.5945               209.6817
 Red. masses --      3.3858                 3.0032                 1.0442
 Frc consts  --      0.0493                 0.0515                 0.0270
 IR Inten    --      0.4398                 3.5502                 3.1588
  Atom  AN      X      Y      Z        X      Y      Z        X      Y      Z
     1   6     0.06   0.00  -0.04     0.02  -0.03   0.01     0.00  -0.01   0.00
     2   8     0.08   0.00   0.00     0.02   0.13   0.02     0.00  -0.03   0.00
     3   8     0.07   0.00  -0.07     0.07  -0.04  -0.05    -0.01   0.01  -0.01
     4   8     0.05   0.00  -0.07    -0.08  -0.05   0.12     0.00   0.02   0.01
     5   8     0.03  -0.04   0.24    -0.01  -0.12  -0.03     0.00   0.02   0.00
     6   6    -0.29   0.06  -0.07     0.03   0.23   0.01     0.00  -0.01   0.00
     7   1    -0.61   0.10   0.09     0.07   0.44   0.00     0.01   0.55   0.01
     8   1    -0.22   0.09  -0.31     0.13   0.28  -0.19    -0.38  -0.29  -0.34
     9   1    -0.30   0.09  -0.22    -0.07   0.27   0.26     0.37  -0.33   0.31
    10   1     0.04  -0.02   0.17    -0.04  -0.10  -0.07    -0.01   0.02   0.00
    11   1     0.05  -0.07   0.23    -0.02  -0.10   0.04     0.02   0.02   0.01
    12   6     0.00   0.01  -0.03     0.01  -0.15   0.03     0.00  -0.01   0.00
    13   1    -0.01   0.01  -0.01     0.13  -0.14  -0.07    -0.01  -0.01   0.00
    14   1    -0.02   0.01   0.00    -0.09  -0.09   0.10     0.00  -0.01  -0.01
    15   1    -0.03   0.00  -0.08    -0.02  -0.32   0.04     0.00  -0.01  -0.01
    16   6     0.01  -0.01   0.01    -0.06   0.01  -0.10     0.00   0.02   0.01
    17   1     0.01   0.01   0.05    -0.07   0.01  -0.20     0.00   0.02   0.00
    18   1     0.02   0.01   0.03    -0.13  -0.07  -0.16     0.00   0.02   0.02
    19   1    -0.04  -0.06   0.01     0.04   0.13  -0.10     0.01   0.01   0.02
    20   1     0.11   0.01  -0.01     0.05   0.20  -0.01    -0.01  -0.02   0.00
                      7                      8                      9
                      A                      A                      A
 Frequencies --    213.5053               247.3285               281.5074
 Red. masses --      3.2686                 1.0449                 4.0209
 Frc consts  --      0.0878                 0.0377                 0.1877
 IR Inten    --     34.7999                 4.1567                51.2018
  Atom  AN      X      Y      Z        X      Y      Z        X      Y      Z
     1   6    -0.06   0.09  -0.03     0.01  -0.02   0.00    -0.02   0.12   0.02
     2   8    -0.03   0.19  -0.04    -0.01  -0.01  -0.01     0.06   0.09   0.08
     3   8     0.02  -0.04   0.04    -0.01   0.00   0.00    -0.04   0.10   0.03
     4   8    -0.02  -0.10  -0.07     0.00   0.02   0.01     0.12  -0.22  -0.10
     5   8    -0.03  -0.06  -0.02     0.00   0.00   0.01    -0.06   0.19   0.00
     6   6     0.00   0.04   0.02     0.00  -0.01   0.01    -0.04  -0.03   0.02
     7   1     0.05   0.21   0.00     0.00  -0.01   0.01    -0.02  -0.04   0.01
     8   1    -0.04   0.00  -0.10     0.00  -0.01   0.01    -0.19  -0.12   0.10
     9   1     0.04  -0.01   0.17     0.00  -0.01   0.00     0.09  -0.13  -0.03
    10   1     0.05  -0.04  -0.05    -0.02   0.01   0.00     0.19   0.04   0.04
    11   1    -0.14  -0.02  -0.01     0.02   0.00   0.01    -0.12   0.17  -0.08
    12   6    -0.05   0.12  -0.02     0.02  -0.02   0.00     0.11  -0.13   0.05
    13   1    -0.10   0.10  -0.01     0.14   0.02  -0.02     0.12  -0.21  -0.20
    14   1    -0.01   0.08  -0.01    -0.08   0.07   0.00     0.16  -0.20   0.13
    15   1    -0.04   0.16  -0.02     0.00  -0.15   0.01     0.16  -0.22   0.19
    16   6     0.15  -0.23   0.11    -0.01   0.03  -0.01    -0.13  -0.10  -0.09
    17   1     0.16  -0.48   0.29     0.05  -0.18   0.50    -0.12   0.08   0.01
    18   1     0.43  -0.12   0.09     0.41  -0.04  -0.38    -0.25  -0.23  -0.18
    19   1     0.01  -0.27   0.08    -0.46   0.31  -0.15    -0.29  -0.11  -0.12
    20   1    -0.01   0.14  -0.02    -0.02   0.02  -0.02     0.10   0.14   0.05
                     10                     11                     12
                      A                      A                      A
 Frequencies --    291.9732               324.2624               352.2097
 Red. masses --      1.0444                 4.4284                 3.9795
 Frc consts  --      0.0525                 0.2743                 0.2909
 IR Inten    --      0.1910                12.2978                41.0319
  Atom  AN      X      Y      Z        X      Y      Z        X      Y      Z
     1   6    -0.01   0.00   0.00     0.02   0.02  -0.05     0.02  -0.04   0.04
     2   8    -0.01  -0.01   0.00     0.14  -0.14   0.08     0.07  -0.03   0.17
     3   8    -0.01  -0.01   0.01     0.03   0.08  -0.18    -0.02   0.07  -0.02
     4   8     0.01   0.00  -0.02    -0.06  -0.13   0.21    -0.12   0.17  -0.19
     5   8     0.01   0.02   0.00    -0.14   0.02  -0.07    -0.16  -0.08  -0.07
     6   6     0.00   0.00   0.00    -0.06   0.02   0.05    -0.07   0.00   0.05
     7   1     0.00  -0.01   0.00     0.06   0.04  -0.01     0.05   0.01  -0.01
     8   1    -0.01  -0.01   0.01    -0.05   0.03   0.08    -0.02   0.03   0.07
     9   1     0.01  -0.01  -0.02    -0.07   0.02   0.12    -0.11   0.02   0.13
    10   1     0.01   0.01   0.00    -0.04  -0.05   0.03    -0.30  -0.01  -0.17
    11   1     0.00   0.01   0.00    -0.18   0.08  -0.13    -0.05   0.01   0.00
    12   6    -0.01   0.02   0.00     0.07   0.21  -0.07     0.18  -0.09   0.02
    13   1     0.52   0.21  -0.08     0.20   0.33   0.10     0.24  -0.12  -0.14
    14   1    -0.42   0.38   0.04     0.03   0.32  -0.28     0.25  -0.13  -0.06
    15   1    -0.10  -0.53   0.03     0.10   0.26  -0.03     0.27  -0.12   0.22
    16   6     0.01  -0.02   0.01    -0.02  -0.08   0.03     0.08  -0.01   0.02
    17   1     0.00   0.03  -0.09    -0.03  -0.14   0.01     0.08  -0.18   0.01
    18   1    -0.07   0.01   0.11    -0.01  -0.16  -0.09     0.25   0.21   0.21
    19   1     0.10  -0.10   0.05     0.00   0.07   0.00     0.15  -0.17   0.07
    20   1    -0.01   0.00   0.00     0.23  -0.33   0.13     0.18   0.18   0.07
                     13                     14                     15
                      A                      A                      A
 Frequencies --    456.7773               493.0022               535.3855
 Red. masses --      3.4760                 2.9585                 1.8360
 Frc consts  --      0.4273                 0.4237                 0.3101
 IR Inten    --     29.9904                40.3453                31.4006
  Atom  AN      X      Y      Z        X      Y      Z        X      Y      Z
     1   6    -0.11  -0.13   0.02     0.15  -0.16  -0.01     0.01  -0.07   0.04
     2   8    -0.11   0.07   0.15     0.13   0.03  -0.04    -0.03  -0.01  -0.01
     3   8    -0.05  -0.15  -0.14     0.04  -0.12   0.11    -0.05   0.06  -0.05
     4   8    -0.05   0.00  -0.01    -0.08   0.01   0.00     0.15  -0.04   0.01
     5   8     0.14   0.10   0.07    -0.07   0.17  -0.04    -0.06  -0.09  -0.03
     6   6     0.06   0.01  -0.05    -0.04   0.02   0.03    -0.03  -0.01   0.02
     7   1    -0.05  -0.02   0.01     0.02  -0.05  -0.01     0.01   0.02   0.00
     8   1     0.01  -0.02  -0.05    -0.12  -0.03   0.15     0.00   0.01   0.00
     9   1     0.11  -0.01  -0.15     0.05  -0.04  -0.05    -0.07   0.01   0.09
    10   1    -0.01   0.08   0.08    -0.31   0.07  -0.01     0.08  -0.10  -0.04
    11   1     0.17  -0.05  -0.03     0.13   0.10  -0.02    -0.08  -0.05   0.01
    12   6     0.11   0.07  -0.03    -0.05   0.01  -0.03     0.00   0.03   0.05
    13   1     0.23   0.15   0.08    -0.14   0.06   0.24     0.01   0.10   0.23
    14   1     0.22   0.11  -0.47    -0.14   0.07   0.01    -0.03   0.10  -0.05
    15   1     0.28   0.22   0.23    -0.18   0.08  -0.31    -0.02   0.10  -0.01
    16   6    -0.04  -0.03  -0.02    -0.04  -0.05  -0.01     0.04   0.05   0.01
    17   1    -0.04  -0.02  -0.03    -0.03  -0.04   0.00     0.04   0.16   0.03
    18   1    -0.04  -0.03  -0.01     0.00   0.00   0.02    -0.05  -0.01  -0.01
    19   1    -0.02  -0.02  -0.02    -0.01  -0.03   0.00     0.00   0.04   0.00
    20   1     0.04   0.42   0.00     0.13   0.59  -0.24    -0.21   0.81  -0.27
                     16                     17                     18
                      A                      A                      A
 Frequencies --    552.5776               594.4419               715.5188
 Red. masses --      4.3315                 3.2805                 3.1022
 Frc consts  --      0.7792                 0.6830                 0.9357
 IR Inten    --     61.0390               102.6018               300.2492
  Atom  AN      X      Y      Z        X      Y      Z        X      Y      Z
     1   6    -0.12   0.04  -0.14    -0.01   0.07  -0.06    -0.08   0.21  -0.02
     2   8     0.10   0.06   0.12     0.08  -0.11   0.05    -0.05  -0.15   0.03
     3   8    -0.12  -0.15   0.14    -0.10   0.17   0.09     0.21  -0.14  -0.01
     4   8     0.15   0.00   0.06    -0.14  -0.01   0.04    -0.03   0.00   0.00
     5   8    -0.05  -0.06  -0.03     0.13  -0.06   0.07    -0.02   0.05  -0.03
     6   6    -0.04  -0.01   0.03     0.10  -0.01  -0.07    -0.04   0.01   0.03
     7   1     0.01   0.01   0.00    -0.02   0.02  -0.01     0.01   0.00   0.01
     8   1    -0.01   0.00   0.01     0.13   0.01  -0.14    -0.04   0.00   0.04
     9   1    -0.06   0.00   0.07     0.05   0.02  -0.07    -0.01   0.00   0.02
    10   1     0.06  -0.09  -0.02     0.18   0.04   0.08     0.06   0.04   0.02
    11   1    -0.23  -0.06  -0.03     0.03   0.01   0.13    -0.14   0.01  -0.10
    12   6    -0.03  -0.01  -0.27    -0.03   0.00  -0.13    -0.01   0.04   0.00
    13   1     0.01  -0.05  -0.40    -0.07  -0.06  -0.24    -0.04  -0.12  -0.40
    14   1     0.03  -0.05  -0.32    -0.02  -0.05   0.01     0.09  -0.11   0.20
    15   1     0.04  -0.04  -0.14    -0.06  -0.07  -0.16     0.06  -0.11   0.18
    16   6     0.06   0.16   0.04    -0.04  -0.08  -0.02     0.02   0.05   0.01
    17   1     0.06   0.28   0.06    -0.06  -0.25  -0.07     0.00  -0.01  -0.01
    18   1    -0.06   0.03  -0.05     0.04  -0.04  -0.01     0.00   0.01  -0.01
    19   1     0.00   0.19   0.02     0.04  -0.06  -0.01     0.02   0.03   0.01
    20   1     0.49   0.01   0.07     0.06   0.70  -0.24    -0.36   0.60  -0.18
                     19                     20                     21
                      A                      A                      A
 Frequencies --    841.7359               997.7136              1034.3932
 Red. masses --      4.4683                 1.8162                 4.4881
 Frc consts  --      1.8653                 1.0652                 2.8293
 IR Inten    --     96.5382               617.1243               390.2030
  Atom  AN      X      Y      Z        X      Y      Z        X      Y      Z
     1   6    -0.16   0.08  -0.13     0.07   0.02  -0.07    -0.02  -0.02  -0.08
     2   8     0.23  -0.02  -0.13    -0.08   0.00   0.06    -0.05   0.00   0.02
     3   8    -0.16  -0.12  -0.05    -0.05  -0.05  -0.03    -0.05   0.00  -0.01
     4   8    -0.06   0.01  -0.02    -0.02  -0.04  -0.01     0.09   0.17   0.07
     5   8     0.03  -0.01   0.03    -0.05   0.00   0.03     0.21  -0.02  -0.16
     6   6     0.03   0.00  -0.02     0.04   0.00  -0.06    -0.18   0.00   0.23
     7   1     0.00   0.01  -0.01     0.04   0.01  -0.04    -0.21   0.01   0.21
     8   1     0.05   0.00  -0.08     0.01  -0.01   0.03    -0.04   0.03  -0.07
     9   1     0.02   0.01  -0.04    -0.01   0.01   0.06    -0.07  -0.02  -0.04
    10   1     0.01  -0.03   0.05     0.18   0.01   0.09    -0.12  -0.02  -0.16
    11   1    -0.24  -0.06  -0.12     0.09  -0.05   0.03    -0.20   0.04  -0.18
    12   6     0.01   0.04   0.30     0.14   0.05   0.02     0.08   0.07   0.03
    13   1     0.06   0.02   0.19    -0.21  -0.07   0.08    -0.16  -0.08  -0.10
    14   1     0.06   0.00   0.33    -0.07   0.03   0.66     0.00  -0.02   0.54
    15   1     0.10   0.01   0.52    -0.19  -0.12  -0.53    -0.08  -0.13  -0.18
    16   6     0.02   0.07   0.02     0.02   0.06   0.02    -0.08  -0.21  -0.07
    17   1     0.00  -0.01  -0.01     0.01  -0.04  -0.01    -0.04   0.05   0.00
    18   1     0.01   0.03  -0.01     0.03   0.04   0.00    -0.10  -0.16  -0.04
    19   1     0.02   0.05   0.02     0.04   0.02   0.02    -0.09  -0.08  -0.07
    20   1     0.39   0.10  -0.20     0.19   0.00   0.01     0.25   0.03  -0.04
                     22                     23                     24
                      A                      A                      A
 Frequencies --   1065.7630              1103.3953              1144.1086
 Red. masses --      1.7673                 3.2935                 1.3212
 Frc consts  --      1.1827                 2.3625                 1.0189
 IR Inten    --    192.9909               550.4280               985.3962
  Atom  AN      X      Y      Z        X      Y      Z        X      Y      Z
     1   6    -0.06   0.09  -0.05    -0.06   0.06  -0.06     0.02   0.04  -0.08
     2   8    -0.02  -0.02   0.02    -0.02  -0.02   0.01    -0.04  -0.01   0.00
     3   8     0.04   0.02   0.03     0.06  -0.02   0.02     0.01  -0.01   0.01
     4   8    -0.05  -0.04  -0.03     0.10   0.18   0.05     0.04   0.04   0.02
     5   8     0.06   0.01  -0.04    -0.14   0.00   0.13     0.00  -0.01  -0.01
     6   6    -0.04   0.00   0.06     0.12   0.00  -0.13    -0.05   0.04  -0.04
     7   1    -0.08   0.01   0.07     0.17   0.00  -0.16     0.22  -0.10  -0.17
     8   1     0.02   0.01  -0.07     0.14   0.00  -0.17    -0.25  -0.04   0.44
     9   1    -0.03   0.01  -0.02     0.13   0.00  -0.15     0.04  -0.08   0.19
    10   1    -0.01  -0.03   0.01    -0.32  -0.07  -0.02     0.33   0.06   0.00
    11   1    -0.11   0.00  -0.14    -0.47   0.04  -0.10     0.26  -0.07   0.36
    12   6     0.06  -0.15   0.00     0.04  -0.07   0.01    -0.03  -0.03   0.04
    13   1     0.06   0.13   0.70     0.01   0.05   0.33     0.09   0.05   0.11
    14   1    -0.21   0.21  -0.28    -0.12   0.10  -0.06     0.00   0.01  -0.15
    15   1    -0.06   0.25  -0.36    -0.02   0.12  -0.14     0.05   0.08   0.15
    16   6     0.02   0.06   0.02    -0.04  -0.19  -0.06    -0.05  -0.03   0.00
    17   1     0.01  -0.03   0.00     0.01   0.21   0.05    -0.08  -0.26  -0.12
    18   1     0.02   0.05   0.02    -0.16  -0.21  -0.05     0.08   0.00  -0.05
    19   1     0.01  -0.01   0.02    -0.16  -0.08  -0.08     0.11   0.03   0.02
    20   1     0.05   0.00   0.00     0.10   0.03  -0.02     0.28   0.03  -0.07
                     25                     26                     27
                      A                      A                      A
 Frequencies --   1146.5724              1173.9353              1185.7880
 Red. masses --      1.2064                 1.8012                 1.2968
 Frc consts  --      0.9344                 1.4625                 1.0744
 IR Inten    --    261.7960                81.4638                 2.1452
  Atom  AN      X      Y      Z        X      Y      Z        X      Y      Z
     1   6     0.03   0.03   0.02    -0.03   0.06   0.14     0.00  -0.02  -0.02
     2   8     0.01   0.00   0.00     0.10   0.01  -0.01    -0.02   0.00   0.00
     3   8    -0.02  -0.02   0.00    -0.06  -0.06  -0.04     0.02   0.02   0.01
     4   8     0.02   0.04  -0.01     0.04   0.05  -0.01    -0.01   0.01  -0.06
     5   8     0.00   0.03  -0.01     0.00  -0.02   0.00    -0.01   0.00   0.00
     6   6    -0.03  -0.08  -0.02     0.00   0.05   0.00     0.02  -0.01   0.02
     7   1     0.10   0.22  -0.07     0.00  -0.12  -0.01    -0.11   0.01   0.08
     8   1     0.30   0.13  -0.15    -0.20  -0.06   0.18     0.04  -0.01  -0.11
     9   1    -0.40   0.12   0.46     0.17  -0.07  -0.12     0.00   0.02  -0.09
    10   1     0.14  -0.03   0.46     0.15  -0.08  -0.05    -0.04   0.02  -0.04
    11   1     0.19  -0.05  -0.31    -0.10  -0.12   0.01     0.02   0.04  -0.01
    12   6    -0.01  -0.01   0.00     0.05  -0.01  -0.05    -0.01   0.00   0.01
    13   1     0.02   0.01   0.02    -0.08  -0.03   0.05     0.01   0.00  -0.01
    14   1     0.00   0.01  -0.07    -0.07   0.07   0.03     0.01  -0.02   0.00
    15   1     0.00   0.02   0.00    -0.09  -0.01  -0.31     0.01   0.00   0.04
    16   6    -0.03  -0.03   0.00    -0.07  -0.02   0.02     0.00  -0.03   0.13
    17   1    -0.04  -0.12  -0.07    -0.11  -0.34  -0.19    -0.05   0.00  -0.29
    18   1     0.02  -0.03  -0.04     0.11  -0.01  -0.08    -0.15  -0.46  -0.35
    19   1     0.04   0.03   0.00     0.18   0.15   0.04     0.23   0.64   0.05
    20   1    -0.09   0.00   0.02    -0.59  -0.05   0.14     0.11   0.01  -0.03
                     28                     29                     30
                      A                      A                      A
 Frequencies --   1193.2963              1244.2373              1271.5963
 Red. masses --      1.3972                 1.3325                 1.1980
 Frc consts  --      1.1722                 1.2154                 1.1413
 IR Inten    --    208.1281              1675.7343                93.4304
  Atom  AN      X      Y      Z        X      Y      Z        X      Y      Z
     1   6     0.04   0.01  -0.04     0.03   0.06   0.01     0.07   0.00  -0.02
     2   8    -0.03   0.00   0.01     0.02   0.00   0.00    -0.02   0.00   0.01
     3   8     0.00  -0.01   0.01    -0.04  -0.04  -0.02    -0.01   0.01   0.01
     4   8     0.06   0.00   0.02    -0.04   0.05   0.02    -0.03   0.02  -0.01
     5   8    -0.07   0.01  -0.01    -0.05   0.00  -0.04     0.00  -0.03  -0.02
     6   6     0.08  -0.01   0.05     0.05  -0.01   0.02     0.01   0.08   0.01
     7   1    -0.44   0.02   0.31    -0.36   0.02   0.24    -0.08  -0.15   0.05
     8   1     0.06  -0.05  -0.32    -0.04  -0.06  -0.04    -0.25  -0.08   0.14
     9   1     0.02   0.08  -0.28    -0.09   0.08  -0.01     0.23  -0.06  -0.18
    10   1     0.11  -0.06  -0.06     0.42   0.21  -0.12     0.13  -0.31   0.60
    11   1     0.11  -0.03  -0.12     0.35   0.02   0.25    -0.08  -0.24  -0.43
    12   6    -0.03  -0.01   0.02     0.00  -0.02   0.01    -0.02   0.00   0.01
    13   1     0.06   0.02   0.00     0.04   0.02   0.06     0.05   0.02  -0.01
    14   1     0.03  -0.02  -0.07    -0.01   0.02  -0.09     0.03  -0.03  -0.04
    15   1     0.03   0.03   0.11     0.00   0.05  -0.03     0.02   0.01   0.09
    16   6    -0.09   0.02  -0.02     0.07  -0.04  -0.01     0.03  -0.01   0.00
    17   1    -0.11  -0.42  -0.09     0.09   0.26   0.07     0.04   0.13   0.04
    18   1     0.27   0.27   0.08    -0.26  -0.24  -0.05    -0.09  -0.07  -0.01
    19   1     0.19  -0.07   0.05    -0.27  -0.15  -0.07    -0.08  -0.02  -0.03
    20   1     0.14   0.02  -0.03    -0.15   0.00   0.03    -0.01   0.00   0.01
                     31                     32                     33
                      A                      A                      A
 Frequencies --   1326.8488              1408.0426              1426.3893
 Red. masses --      1.9687                 1.2869                 1.0984
 Frc consts  --      2.0421                 1.5032                 1.3167
 IR Inten    --    133.3830                65.9637               123.2049
  Atom  AN      X      Y      Z        X      Y      Z        X      Y      Z
     1   6     0.19   0.05  -0.17     0.06   0.03  -0.01     0.00   0.00  -0.01
     2   8    -0.01   0.02   0.07    -0.02   0.00   0.00     0.00   0.00   0.00
     3   8    -0.07  -0.03   0.00    -0.02  -0.01   0.00     0.00  -0.01  -0.01
     4   8    -0.01  -0.02   0.00    -0.01  -0.01   0.00     0.00   0.00  -0.01
     5   8     0.03   0.00   0.01     0.01   0.00   0.03    -0.01   0.02  -0.05
     6   6    -0.03  -0.02   0.01    -0.02   0.00  -0.01     0.01  -0.02   0.03
     7   1     0.16   0.02  -0.09     0.04  -0.01  -0.03     0.06   0.05   0.00
     8   1     0.11   0.05  -0.10     0.00   0.02   0.03     0.13   0.03  -0.18
     9   1     0.01  -0.03  -0.03     0.01  -0.02   0.04     0.05  -0.01  -0.16
    10   1    -0.13   0.00  -0.21     0.02   0.04  -0.28    -0.07  -0.16   0.50
    11   1    -0.28   0.11   0.11    -0.07  -0.02  -0.27    -0.15   0.03   0.68
    12   6    -0.05  -0.02   0.00     0.00  -0.01   0.13     0.01   0.00   0.05
    13   1     0.18   0.12   0.15     0.13  -0.17  -0.50    -0.04  -0.11  -0.20
    14   1     0.03  -0.09   0.08     0.07   0.11  -0.47    -0.06   0.12  -0.16
    15   1     0.13   0.11   0.28    -0.25   0.14  -0.42    -0.06   0.06  -0.13
    16   6    -0.01   0.00   0.01     0.00  -0.01   0.00    -0.01  -0.01  -0.01
    17   1     0.00   0.05   0.01     0.01   0.07  -0.01     0.00   0.07   0.03
    18   1     0.05   0.01  -0.01     0.03   0.02   0.02     0.05   0.06   0.04
    19   1     0.06   0.06   0.01     0.00   0.05  -0.01     0.04   0.06   0.00
    20   1    -0.67  -0.03   0.19     0.05   0.01  -0.01    -0.03  -0.01   0.01
                     34                     35                     36
                      A                      A                      A
 Frequencies --   1473.5803              1478.2426              1487.6056
 Red. masses --      1.1286                 1.1201                 1.1259
 Frc consts  --      1.4439                 1.4421                 1.4680
 IR Inten    --      3.7300                16.5391                30.0489
  Atom  AN      X      Y      Z        X      Y      Z        X      Y      Z
     1   6     0.02   0.00   0.02     0.01   0.01   0.06     0.01   0.04   0.06
     2   8    -0.01   0.00   0.00    -0.01   0.00  -0.01    -0.01  -0.01  -0.01
     3   8    -0.01   0.00  -0.01    -0.01  -0.01  -0.01    -0.01  -0.02  -0.02
     4   8     0.01   0.02   0.00     0.00   0.00   0.00    -0.01   0.00   0.00
     5   8     0.00   0.00   0.00     0.00   0.01   0.00     0.00   0.01   0.00
     6   6    -0.03   0.00   0.03     0.00   0.00   0.00    -0.01  -0.02   0.00
     7   1     0.19   0.00  -0.09     0.00  -0.02   0.00    -0.02   0.13   0.01
     8   1     0.16   0.10  -0.17     0.01   0.00  -0.03     0.10   0.06   0.07
     9   1     0.15  -0.10  -0.17     0.00   0.00   0.02     0.04  -0.04  -0.06
    10   1    -0.04  -0.02   0.02     0.03  -0.03  -0.03     0.05  -0.07  -0.01
    11   1    -0.02   0.03   0.04    -0.05  -0.04   0.02    -0.11  -0.07   0.10
    12   6    -0.02   0.01   0.00    -0.03  -0.05  -0.04    -0.04   0.02  -0.02
    13   1     0.16   0.07  -0.01     0.43   0.08  -0.22     0.36   0.25   0.21
    14   1     0.14  -0.13   0.00    -0.21  -0.01   0.42     0.42  -0.42   0.02
    15   1    -0.07   0.00  -0.10     0.12   0.64  -0.03    -0.17  -0.17  -0.21
    16   6     0.03   0.08   0.00     0.01  -0.02  -0.01    -0.02  -0.02   0.00
    17   1     0.00  -0.55   0.03     0.01  -0.01   0.08     0.00   0.30   0.02
    18   1    -0.43  -0.29  -0.16    -0.07   0.07   0.15     0.25   0.03  -0.11
    19   1    -0.14  -0.32   0.04     0.01   0.18  -0.04     0.15  -0.04   0.04
    20   1     0.07   0.00  -0.02     0.16   0.02  -0.05     0.17   0.02  -0.05
                     37                     38                     39
                      A                      A                      A
 Frequencies --   1498.6024              1500.8378              1504.0163
 Red. masses --      1.1454                 1.1174                 1.0616
 Frc consts  --      1.5156                 1.4829                 1.4148
 IR Inten    --     35.8360               115.7860                 1.8931
  Atom  AN      X      Y      Z        X      Y      Z        X      Y      Z
     1   6     0.05   0.04   0.04    -0.03  -0.03  -0.04    -0.01  -0.02  -0.02
     2   8    -0.01  -0.01  -0.01     0.01   0.01   0.01     0.00   0.00   0.00
     3   8    -0.02  -0.01  -0.01     0.02   0.01   0.01     0.01   0.01   0.01
     4   8    -0.01   0.00   0.00     0.01   0.00   0.00     0.00   0.00   0.00
     5   8     0.00   0.01   0.01     0.01   0.00   0.00     0.00  -0.01   0.00
     6   6    -0.03  -0.04   0.00     0.05  -0.03  -0.01    -0.02  -0.03  -0.02
     7   1     0.03   0.43   0.00    -0.04   0.39   0.04    -0.16   0.39   0.08
     8   1     0.22   0.15   0.25    -0.27  -0.19   0.32     0.22   0.18   0.39
     9   1     0.11  -0.08  -0.29    -0.33   0.27  -0.18     0.16  -0.12  -0.16
    10   1     0.11  -0.11  -0.12    -0.08  -0.03   0.04    -0.01   0.00   0.02
    11   1    -0.09  -0.11  -0.02    -0.06  -0.04   0.01     0.03   0.00  -0.06
    12   6     0.00   0.00  -0.02     0.00   0.01   0.02     0.01  -0.01   0.00
    13   1    -0.19  -0.04   0.09     0.10   0.03  -0.02    -0.03  -0.07  -0.13
    14   1    -0.04   0.06  -0.10     0.10  -0.08   0.00    -0.18   0.14   0.08
    15   1     0.06  -0.14   0.14    -0.07  -0.01  -0.11     0.07   0.19   0.05
    16   6     0.03  -0.03   0.00     0.00   0.01  -0.03    -0.02   0.03   0.02
    17   1     0.00  -0.11  -0.13     0.04  -0.18   0.38    -0.01   0.14  -0.03
    18   1    -0.13   0.15   0.33    -0.28  -0.05   0.09     0.19  -0.16  -0.36
    19   1    -0.28   0.32  -0.12     0.24   0.12   0.02     0.14  -0.37   0.11
    20   1     0.16   0.01  -0.04    -0.13  -0.01   0.04    -0.06  -0.01   0.02
                     40                     41                     42
                      A                      A                      A
 Frequencies --   1505.9905              1515.3759              1545.1093
 Red. masses --      1.0828                 1.2401                 1.2065
 Frc consts  --      1.4469                 1.6779                 1.6971
 IR Inten    --      9.1711               122.3051               500.8395
  Atom  AN      X      Y      Z        X      Y      Z        X      Y      Z
     1   6    -0.03  -0.01  -0.03     0.07   0.06   0.07    -0.07  -0.02  -0.04
     2   8     0.01   0.00   0.01    -0.02  -0.01  -0.01     0.02   0.00   0.01
     3   8     0.01   0.01   0.01    -0.03  -0.02  -0.02     0.01   0.01   0.02
     4   8     0.01   0.00   0.00    -0.02   0.00  -0.01     0.00   0.00   0.00
     5   8    -0.01   0.00  -0.01     0.00   0.01   0.01    -0.04  -0.04   0.01
     6   6    -0.02   0.02  -0.04    -0.02   0.00   0.02    -0.05   0.01   0.05
     7   1    -0.35  -0.16   0.14     0.18  -0.07  -0.08     0.37   0.10  -0.15
     8   1     0.32   0.24   0.13     0.01  -0.01  -0.19     0.08   0.08  -0.17
     9   1     0.34  -0.30   0.32     0.00   0.00  -0.08     0.15  -0.06  -0.43
    10   1    -0.03   0.04   0.04     0.14  -0.03  -0.13     0.21   0.24   0.10
    11   1     0.05   0.05   0.01    -0.05  -0.06  -0.03     0.49   0.21  -0.19
    12   6     0.00   0.01   0.01     0.01  -0.01  -0.03     0.00   0.00   0.01
    13   1     0.02   0.02   0.03    -0.25  -0.08   0.05     0.08   0.03   0.00
    14   1     0.07  -0.05  -0.02    -0.15   0.16  -0.10     0.04  -0.04   0.06
    15   1    -0.05  -0.06  -0.05     0.10  -0.08   0.18    -0.03   0.04  -0.08
    16   6     0.00  -0.01  -0.04    -0.03   0.00  -0.03    -0.01  -0.03  -0.02
    17   1     0.04  -0.10   0.34     0.07   0.12   0.52     0.01   0.14   0.10
    18   1    -0.22   0.04   0.18    -0.09  -0.12  -0.12     0.06   0.09   0.11
    19   1     0.21   0.23  -0.01     0.52  -0.03   0.10     0.10   0.15  -0.02
    20   1    -0.10  -0.01   0.03     0.23   0.02  -0.06    -0.15  -0.01   0.04
                     43                     44                     45
                      A                      A                      A
 Frequencies --   1651.5414              1989.7434              2957.4707
 Red. masses --      1.2860                 1.0196                 1.0374
 Frc consts  --      2.0666                 2.3784                 5.3462
 IR Inten    --    420.9721               383.3527                61.1254
  Atom  AN      X      Y      Z        X      Y      Z        X      Y      Z
     1   6     0.06   0.07   0.05     0.01   0.00  -0.01     0.00   0.00   0.00
     2   8    -0.02  -0.01  -0.01     0.00   0.00   0.00     0.00   0.00   0.00
     3   8    -0.04  -0.04  -0.02     0.00   0.01   0.00     0.00   0.00   0.00
     4   8     0.02  -0.02  -0.01     0.01  -0.01   0.00     0.00   0.00   0.00
     5   8     0.01  -0.07  -0.01    -0.01   0.00  -0.01     0.00   0.00   0.00
     6   6     0.02   0.02  -0.01     0.00   0.00   0.01     0.00   0.00   0.00
     7   1    -0.09   0.04   0.04     0.03   0.00   0.01    -0.01   0.00  -0.02
     8   1    -0.10  -0.03   0.17     0.03   0.03  -0.05     0.01  -0.01   0.00
     9   1     0.02   0.03  -0.03     0.03  -0.02  -0.04     0.00   0.00   0.00
    10   1    -0.36   0.54   0.32    -0.10   0.69   0.10     0.02   0.01   0.00
    11   1    -0.04   0.60  -0.07    -0.14  -0.69   0.01     0.00   0.00   0.00
    12   6    -0.01  -0.01  -0.01     0.00   0.00   0.00     0.00   0.00   0.00
    13   1    -0.01   0.01   0.03     0.00   0.00   0.00     0.00   0.01   0.00
    14   1     0.00   0.01  -0.05     0.00   0.00   0.00    -0.02  -0.02  -0.01
    15   1     0.01  -0.02   0.02     0.00   0.00   0.01     0.01   0.00   0.00
    16   6    -0.01   0.00   0.00     0.00   0.00   0.00     0.00  -0.03  -0.04
    17   1    -0.02  -0.05  -0.02    -0.01  -0.01   0.00     0.38  -0.02  -0.07
    18   1     0.00   0.01   0.01     0.00   0.01   0.01    -0.14   0.28  -0.22
    19   1    -0.02   0.01   0.00     0.00   0.01   0.00    -0.17   0.13   0.81
    20   1     0.15   0.03  -0.05    -0.01   0.00   0.00     0.00   0.00   0.00
                     46                     47                     48
                      A                      A                      A
 Frequencies --   2985.7032              3019.4992              3021.0651
 Red. masses --      1.0372                 1.0592                 1.0692
 Frc consts  --      5.4478                 5.6900                 5.7495
 IR Inten    --     33.3225                 8.4551                42.3692
  Atom  AN      X      Y      Z        X      Y      Z        X      Y      Z
     1   6     0.00   0.00   0.00     0.00   0.00   0.00     0.00   0.00   0.00
     2   8     0.00   0.00   0.00     0.00   0.00   0.00     0.00   0.00   0.00
     3   8     0.00   0.00   0.00     0.00   0.00   0.00     0.00   0.00   0.00
     4   8     0.00   0.00   0.00     0.00   0.00   0.00     0.00   0.00   0.00
     5   8     0.00   0.00   0.00     0.00   0.00   0.00     0.00   0.00   0.00
     6   6     0.00   0.00  -0.05     0.00   0.00   0.00     0.00   0.00   0.00
     7   1     0.37  -0.03   0.74     0.00   0.00   0.00     0.00   0.00  -0.01
     8   1    -0.22   0.33  -0.04     0.00   0.00   0.00     0.01  -0.01   0.00
     9   1    -0.23  -0.30  -0.06     0.00   0.00   0.00     0.01   0.01   0.00
    10   1    -0.02  -0.02   0.00    -0.01   0.00   0.00     0.00   0.00   0.00
    11   1    -0.02   0.02   0.00     0.00   0.00   0.00     0.00   0.00   0.00
    12   6     0.00   0.00   0.00     0.01  -0.01   0.04     0.01  -0.01   0.03
    13   1     0.00   0.00   0.00    -0.18   0.46  -0.16    -0.17   0.41  -0.14
    14   1     0.00   0.00   0.00    -0.26  -0.29  -0.08    -0.22  -0.24  -0.07
    15   1     0.01   0.00   0.00     0.34  -0.07  -0.17     0.30  -0.06  -0.15
    16   6     0.00   0.00   0.00     0.02   0.02  -0.05    -0.02  -0.02   0.06
    17   1     0.02   0.00   0.00    -0.34   0.02   0.03     0.40  -0.03  -0.04
    18   1    -0.01   0.01  -0.01     0.17  -0.33   0.24    -0.19   0.36  -0.26
    19   1     0.00   0.00   0.01    -0.07   0.05   0.30     0.08  -0.07  -0.39
    20   1     0.00   0.00   0.00     0.00   0.00   0.00     0.00   0.00   0.00
                     49                     50                     51
                      A                      A                      A
 Frequencies --   3044.4878              3055.0021              3081.1462
 Red. masses --      1.1049                 1.0960                 1.1070
 Frc consts  --      6.0340                 6.0269                 6.1920
 IR Inten    --     23.4649                35.1298                20.1431
  Atom  AN      X      Y      Z        X      Y      Z        X      Y      Z
     1   6     0.00   0.00   0.00     0.00   0.00   0.00     0.00   0.00   0.00
     2   8     0.00   0.00   0.00     0.00   0.00   0.00     0.00   0.00   0.00
     3   8     0.00   0.00   0.00     0.00   0.00   0.00     0.00   0.00   0.00
     4   8     0.00   0.00   0.00     0.00   0.00   0.00     0.00   0.00   0.00
     5   8     0.00   0.00   0.00     0.00   0.00   0.00     0.00   0.00   0.00
     6   6     0.00   0.00   0.00     0.07  -0.01   0.05     0.01   0.09   0.00
     7   1     0.00   0.00   0.00    -0.24   0.02  -0.48    -0.01   0.02  -0.01
     8   1     0.00   0.00   0.00    -0.33   0.54  -0.04     0.37  -0.55   0.07
     9   1     0.00   0.00   0.00    -0.31  -0.46  -0.06    -0.44  -0.58  -0.10
    10   1     0.00   0.00   0.00    -0.01   0.00   0.00     0.00   0.00   0.00
    11   1     0.00   0.00   0.00    -0.01   0.00   0.00     0.00   0.00   0.00
    12   6     0.00   0.00   0.00     0.00   0.00   0.00     0.00   0.00   0.00
    13   1    -0.01   0.02  -0.01     0.00   0.01   0.00    -0.01   0.02  -0.01
    14   1     0.01   0.01   0.00     0.00   0.00   0.00     0.01   0.01   0.00
    15   1     0.01   0.00  -0.01    -0.01   0.00   0.00    -0.01   0.00   0.01
    16   6     0.08  -0.04   0.02     0.00   0.00   0.00     0.00   0.00   0.00
    17   1    -0.74   0.03   0.11     0.00   0.00   0.00     0.00   0.00   0.00
    18   1    -0.23   0.48  -0.37     0.00   0.00   0.00     0.00   0.00   0.00
    19   1     0.01  -0.01   0.05     0.00   0.00   0.00     0.00   0.00   0.00
    20   1     0.00   0.00   0.00     0.00   0.00   0.00     0.00   0.00   0.00
                     52                     53                     54
                      A                      A                      A
 Frequencies --   3083.7855              3102.8566              3674.0388
 Red. masses --      1.1000                 1.1039                 1.0640
 Frc consts  --      6.1632                 6.2621                 8.4620
 IR Inten    --     13.8215                16.8380                56.2993
  Atom  AN      X      Y      Z        X      Y      Z        X      Y      Z
     1   6     0.00   0.00   0.00     0.00   0.00   0.00     0.00   0.00   0.00
     2   8     0.00   0.00   0.00     0.00   0.00   0.00    -0.01  -0.02  -0.06
     3   8     0.00   0.00   0.00     0.00   0.00   0.00     0.00   0.00   0.00
     4   8     0.00   0.00   0.00     0.00   0.00   0.00     0.00   0.00   0.00
     5   8     0.00   0.00   0.00     0.00   0.00   0.00     0.00   0.00   0.00
     6   6     0.00   0.00   0.00     0.00   0.00   0.00     0.00   0.00   0.00
     7   1     0.00   0.00   0.01     0.00   0.00   0.01     0.00   0.00   0.00
     8   1    -0.01   0.01   0.00     0.00  -0.01   0.00     0.00   0.00   0.00
     9   1     0.02   0.02   0.00     0.00   0.00   0.00     0.00   0.00   0.00
    10   1     0.00   0.00   0.00     0.00   0.00   0.00     0.00   0.00   0.00
    11   1     0.00   0.00   0.00     0.00   0.00   0.00     0.00   0.00   0.00
    12   6     0.03  -0.09  -0.01     0.09   0.03  -0.01     0.00   0.00   0.00
    13   1    -0.26   0.63  -0.24     0.02   0.02  -0.01     0.00   0.00   0.00
    14   1     0.34   0.35   0.11    -0.45  -0.51  -0.16     0.00   0.00   0.00
    15   1    -0.42   0.07   0.22    -0.62   0.14   0.33     0.00   0.00   0.00
    16   6     0.00   0.00   0.00     0.00   0.00   0.00     0.00   0.00   0.00
    17   1     0.01   0.00   0.00    -0.02   0.00   0.00     0.00   0.00   0.00
    18   1     0.01  -0.01   0.01    -0.01   0.01  -0.01     0.00   0.00   0.00
    19   1     0.00   0.00   0.01     0.00   0.00  -0.02     0.00   0.00   0.00
    20   1     0.00   0.00   0.00     0.00   0.00   0.00     0.16   0.33   0.93

 -------------------
 - Thermochemistry -
 -------------------
 Temperature   298.150 Kelvin.  Pressure   1.00000 Atm.
 Atom     1 has atomic number  6 and mass  12.00000
 Atom     2 has atomic number  8 and mass  15.99491
 Atom     3 has atomic number  8 and mass  15.99491
 Atom     4 has atomic number  8 and mass  15.99491
 Atom     5 has atomic number  8 and mass  15.99491
 Atom     6 has atomic number  6 and mass  12.00000
 Atom     7 has atomic number  1 and mass   1.00783
 Atom     8 has atomic number  1 and mass   1.00783
 Atom     9 has atomic number  1 and mass   1.00783
 Atom    10 has atomic number  1 and mass   1.00783
 Atom    11 has atomic number  1 and mass   1.00783
 Atom    12 has atomic number  6 and mass  12.00000
 Atom    13 has atomic number  1 and mass   1.00783
 Atom    14 has atomic number  1 and mass   1.00783
 Atom    15 has atomic number  1 and mass   1.00783
 Atom    16 has atomic number  6 and mass  12.00000
 Atom    17 has atomic number  1 and mass   1.00783
 Atom    18 has atomic number  1 and mass   1.00783
 Atom    19 has atomic number  1 and mass   1.00783
 Atom    20 has atomic number  1 and mass   1.00783
 Molecular mass:   124.07356 amu.
 Principal axes and moments of inertia in atomic units:
                           1         2         3
     Eigenvalues --   741.516401344.759621617.73868
           X            0.99976   0.02153  -0.00441
           Y           -0.02157   0.99972  -0.01015
           Z            0.00419   0.01025   0.99994
 This molecule is an asymmetric top.
 Rotational symmetry number  1.
 Warning -- assumption of classical behavior for rotation
           may cause significant error
 Rotational temperatures (Kelvin)      0.11681     0.06441     0.05354
 Rotational constants (GHZ):           2.43385     1.34205     1.11560
    1 imaginary frequencies ignored.
 Zero-point vibrational energy     427853.9 (Joules/Mol)
                                  102.25955 (Kcal/Mol)
 Warning -- explicit consideration of  16 degrees of freedom as
           vibrations may cause significant error
 Vibrational temperatures:    119.76   162.44   226.13   245.45   301.68
          (Kelvin)            307.19   355.85   405.03   420.08   466.54
                              506.75   657.20   709.32   770.30   795.03
                              855.27  1029.47  1211.07  1435.49  1488.26
                             1533.39  1587.54  1646.12  1649.66  1689.03
                             1706.08  1716.89  1790.18  1829.54  1909.04
                             2025.86  2052.25  2120.15  2126.86  2140.33
                             2156.15  2159.37  2163.94  2166.78  2180.29
                             2223.06  2376.20  2862.79  4255.14  4295.76
                             4344.38  4346.63  4380.33  4395.46  4433.08
                             4436.87  4464.31  5286.12
 
 Zero-point correction=                           0.162961 (Hartree/Particle)
 Thermal correction to Energy=                    0.173237
 Thermal correction to Enthalpy=                  0.174181
 Thermal correction to Gibbs Free Energy=         0.128195
 Sum of electronic and zero-point Energies=           -460.543091
 Sum of electronic and thermal Energies=              -460.532815
 Sum of electronic and thermal Enthalpies=            -460.531871
 Sum of electronic and thermal Free Energies=         -460.577857
 
                     E (Thermal)             CV                S
                      KCal/Mol        Cal/Mol-Kelvin    Cal/Mol-Kelvin
 Total                  108.708             36.835             96.785
 Electronic               0.000              0.000              0.000
 Translational            0.889              2.981             40.361
 Rotational               0.889              2.981             28.869
 Vibrational            106.930             30.873             27.556
 Vibration     1          0.600              1.961              3.813
 Vibration     2          0.607              1.939              3.218
 Vibration     3          0.621              1.895              2.584
 Vibration     4          0.626              1.879              2.429
 Vibration     5          0.642              1.826              2.046
 Vibration     6          0.644              1.820              2.014
 Vibration     7          0.661              1.767              1.750
 Vibration     8          0.681              1.708              1.524
 Vibration     9          0.687              1.689              1.463
 Vibration    10          0.709              1.627              1.289
 Vibration    11          0.729              1.571              1.156
[...]
 0.00383738,0.00064976,-0.00119172,-0.00044254,-0.00113145,-0.00002821,
 -0.02288241,0.02194770,0.00866557,-0.11807076,0.10833606,-0.01692612,-
 0.00652490,0.01294904,-0.00296071,0.13408020,-0.00048867,-0.00019804,-
 0.00017104,0.00027021,0.00001349,-0.00008385,0.00060887,-0.00000722,0.
 00010888,0.00061788,0.00017865,0.00018636,0.00180304,0.00646741,-0.003
 37398,0.11381016,-0.23503902,0.02208888,-0.00099170,0.00079038,0.00030
 485,-0.12619800,0.24697582,-0.00090128,-0.00155855,-0.00067363,0.00044
 539,0.00031181,-0.00009335,0.00379769,-0.00106943,0.00141003,0.0002320
 4,0.00044139,-0.00000962,0.02561079,-0.02652497,-0.00360507,-0.0205451
 9,0.02834790,-0.05281735,-0.01438718,0.02403818,-0.00078519,0.00772949
 ,-0.02281787,0.05774814,0.00036593,-0.00131008,-0.00000418,-0.00025854
 ,0.00019145,0.00013471,-0.00030430,0.00099455,-0.00008010,-0.00322678,
 -0.00098712,-0.00088010,-0.02478174,-0.02034611,0.00817059,-0.13211708
 ,-0.11404342,-0.02333507,-0.00724554,-0.01239247,-0.00370540,0.0123688
 1,0.01348543,0.00200211,0.14999261,0.00038897,0.00007737,0.00015565,-0
 .00022339,-0.00003970,0.00007468,-0.00076116,0.00007731,-0.00025669,-0
 .00031337,-0.00016227,-0.00004169,-0.00092761,0.00670246,0.00317686,-0
 .11978154,-0.21927799,-0.02853939,0.00222039,0.00261647,0.00010102,-0.
 01533415,-0.02000627,-0.00485696,0.13196629,0.22933140,-0.00038794,0.0
 0070713,-0.00040386,0.00026033,-0.00011577,0.00001491,0.00026524,-0.00
 030007,0.00006316,0.00331109,0.00130289,0.00096564,0.02768828,0.025135
 00,-0.00242586,-0.02768036,-0.03464485,-0.05510161,-0.01590680,-0.0230
 1907,-0.00208363,0.00163088,0.00385627,0.00131662,0.01502194,0.0300536
 4,0.06012905,-0.00296438,0.05485235,0.00106534,0.00356946,-0.00886460,
 -0.00112192,-0.03371679,-0.00886327,-0.00769193,-0.00800922,0.00832587
 ,0.01327654,-0.02669143,0.01874609,-0.00319914,-0.01788093,0.00316828,
 0.01670043,0.00188020,-0.00025775,-0.00450260,0.00086557,-0.00128421,-
 0.00090905,0.00484437,0.00155405,-0.00396538,0.01248853,0.01140722,0.0
 3666277,0.00140101,0.00396381,-0.00783956,-0.00070908,-0.02068262,-0.0
 0387669,-0.00545035,0.03853280,-0.03801065,0.00657423,-0.01209775,-0.0
 5098081,-0.01485851,-0.00161802,0.00879508,0.01192786,0.00035329,-0.00
 008303,-0.00262420,0.00158700,-0.00025423,-0.00061540,0.00383495,0.000
 86055,-0.00338878,-0.03081834,0.10579478,-0.00305133,0.00500025,0.0000
 4992,0.00070357,-0.00113196,-0.00004044,-0.00197396,-0.00160606,-0.001
 90872,0.01138446,-0.00124925,-0.01842210,-0.00934082,-0.02582788,-0.04
 532648,0.01227662,0.01645852,0.00238124,0.00053039,0.00082054,-0.00064
 192,-0.00012235,-0.00046222,0.00041012,0.00282973,-0.00030927,-0.00314
 153,-0.01134909,0.00931560,0.06641627,-0.04151165,-0.06458039,-0.01588
 108,0.01198343,0.01136678,-0.00376620,0.03435016,0.00699094,0.02072765
 ,-0.02254519,0.01437895,-0.00227273,-0.03616295,-0.01911523,-0.0014108
 9,-0.01865980,0.00138626,0.01470616,0.00189876,0.00016426,-0.00404047,
 0.00384301,-0.00164279,-0.00311324,0.00083488,0.00118652,-0.00091344,0
 .04723084,0.01099654,0.00174676,0.02267532,0.00112151,0.04669955,0.009
 81116,-0.01044425,-0.00978506,0.00098152,-0.03047979,-0.04027959,-0.01
 831131,0.01306898,-0.00762120,0.00164858,0.01661114,-0.06088375,0.0140
 7589,0.00437061,0.01055370,-0.01308848,-0.00071683,-0.00008340,0.00332
 796,-0.00454052,0.00118829,0.00418983,-0.00185142,-0.00027798,0.000755
 89,-0.02148571,-0.03972906,-0.00040678,0.03110902,0.10570375,-0.009033
 12,-0.00101454,-0.00366596,0.00421613,0.00301603,-0.00057320,0.0047925
 9,-0.00556235,-0.01917768,-0.00053415,-0.00002097,-0.00019186,-0.00570
 084,0.02621882,-0.04411381,0.01155390,-0.01806340,0.00091993,0.0004466
 6,-0.00088081,-0.00058685,0.00273774,0.00032459,-0.00310640,-0.0001066
 9,0.00048624,0.00054145,0.00096630,-0.00211599,0.00529557,-0.00917677,
 -0.00039647,0.06496606,-0.07598911,-0.00821242,-0.01321963,-0.00345122
 ,0.00482203,0.04000627,-0.00731492,-0.01093894,-0.03119913,-0.00358372
 ,0.00928484,-0.00899849,-0.00206922,0.00017743,0.00044677,0.00046713,-
 0.00001355,-0.00104302,-0.00032739,0.00000234,0.00029191,-0.00000581,0
 .00001169,0.00018710,-0.00000840,-0.00002105,0.00017523,0.00178141,0.0
 0104386,-0.00063589,0.00193854,-0.00151084,-0.00044575,0.58107677,-0.0
 0610882,-0.06685232,-0.00733991,0.00308608,0.00573202,-0.00447321,-0.0
 1839347,-0.00399552,-0.03032238,0.01460783,-0.01737963,0.02268963,0.00
 116220,0.00360346,0.00023040,-0.00024227,0.00046437,0.00049644,0.00004
 867,-0.00017353,-0.00014248,-0.00015455,-0.00000544,-0.00002833,0.0001
 4971,0.00001618,-0.00010940,-0.00515576,-0.00372878,0.00024019,0.00350
 526,-0.00322990,-0.00123086,0.00922043,0.56449217,-0.00523466,-0.01256
 871,-0.18388701,0.00782450,-0.00230671,-0.03031500,-0.01372221,-0.0085
 0466,-0.01167077,-0.00249900,0.00753120,-0.00616955,-0.00038664,0.0005
 6100,0.00002588,0.00003744,0.00006575,0.00025678,0.00006116,-0.0000256
 4,-0.00025096,-0.00010734,0.00003400,-0.00009468,-0.00003889,-0.000020
 56,-0.00006693,-0.00047498,-0.00017756,0.00002943,0.00102659,-0.000738
 20,-0.00009099,-0.02515547,0.00998025,0.47054832,-0.00337851,0.0050125
 9,-0.00149012,-0.00017949,-0.00036441,0.00095156,0.00029414,-0.0014133
 5,0.00023087,0.00065389,0.00045378,-0.00164320,-0.00004277,-0.00032128
 ,-0.00001816,0.00005131,-0.00001993,0.00011417,0.00004965,0.00007110,-
 0.00008483,-0.00002488,-0.00000739,-0.00002499,-0.00005610,-0.00000953
 ,-0.00004430,0.00045783,0.00014665,0.00026898,-0.00018626,0.00038041,0
 .00003682,-0.07864535,0.08054234,-0.02918580,0.08199463,-0.00001887,-0
 .00129873,-0.00047817,-0.00048153,0.00071149,-0.00010984,-0.00054943,0
 .00083395,-0.00034097,-0.00009356,0.00128666,0.00016747,0.00000597,0.0
 0043563,0.00003480,-0.00002273,0.00005398,-0.00003941,-0.00000995,-0.0
 0002687,0.00002204,-0.00001928,0.00000206,0.00001343,0.00002603,0.0000
 0727,0.00000500,-0.00063510,-0.00033544,-0.00006207,0.00057703,-0.0003
 0803,-0.00002456,0.08098145,-0.24487528,0.07193407,-0.08942370,0.26532
 523,-0.01172160,0.03020581,-0.01039297,-0.00007915,-0.00144838,0.00087
 177,0.00232167,-0.00187004,0.00168215,-0.00328256,0.00311081,-0.004675
 85,-0.00066529,-0.00097566,0.00000835,0.00018261,-0.00008295,-0.000301
 10,-0.00004277,-0.00000687,0.00009911,0.00002131,0.00000730,0.00002611
 ,-0.00004434,-0.00001034,0.00007294,0.00180694,0.00114077,-0.00017120,
 -0.00058056,0.00065796,0.00019175,-0.02899761,0.07060926,-0.07338510,0
 .03299933,-0.07905907,0.07868494,-0.00538376,-0.00386803,-0.00007559,0
 .00032344,0.00061846,0.00112656,0.00185721,-0.00005072,-0.00194241,0.0
 0039330,0.00133168,0.00018012,0.00018703,0.00045604,-0.00010572,0.0000
 4518,0.00001942,0.00024575,0.00005359,-0.00006488,-0.00011680,-0.00005
 122,0.00001774,-0.00005883,-0.00000127,0.00000694,-0.00004415,-0.00066
 077,-0.00045268,0.00003148,0.00045133,-0.00035811,0.00038645,-0.161222
 74,-0.12338493,-0.03837515,0.00850892,0.00844623,0.00375796,0.17156351
 ,-0.00070260,-0.00287325,0.00154742,0.00090263,0.00049537,0.00000036,-
 0.00025831,0.00177474,-0.00051266,-0.00024428,0.00002899,-0.00048789,-
 0.00047747,0.00022570,0.00008431,0.00011399,0.00002416,-0.00017726,-0.
 00002300,-0.00000313,0.00004801,-0.00002013,0.00001475,0.00003444,0.00
 000279,-0.00001187,0.00002566,0.00015897,0.00001420,-0.00003359,0.0006
 6513,-0.00040748,-0.00017746,-0.12417927,-0.18183412,-0.04359332,-0.01
 861501,-0.01858798,-0.00673038,0.13646367,0.19693663,-0.02186120,-0.02
 550874,0.00012217,0.00066347,0.00133465,0.00106982,-0.00399577,-0.0018
 3978,-0.00904982,0.00146638,0.00079383,0.00113886,-0.00052933,0.001075
 68,0.00016752,0.00016924,0.00009312,-0.00031170,-0.00004387,0.00001545
 ,0.00010107,-0.00004945,0.00000740,0.00009001,0.00002040,-0.00001193,0
 .00001574,-0.00074661,-0.00059449,-0.00004161,0.00188566,-0.00135287,-
 0.00023742,-0.03505800,-0.03985942,-0.06330648,0.00780757,0.00693175,0
 .00214227,0.04233522,0.04556300,0.06487181,0.00141525,-0.00085842,-0.0
 0398942,0.00154360,0.00022496,-0.00088237,0.00130898,0.00048558,0.0001
 0262,0.00105114,-0.00047347,-0.00048022,0.00008439,-0.00001105,0.00017
 202,-0.00031737,0.00004590,-0.00019698,-0.00019842,0.00003864,-0.00006
 880,0.00001173,0.00001037,0.00001300,0.00002603,-0.00002091,0.00004086
 ,0.00013637,-0.00003133,0.00013471,0.00010900,-0.00004585,0.00006792,-
 0.24737650,0.04014654,0.10535210,-0.00920007,0.00120015,0.00446539,-0.
 01599711,0.00504123,0.00869329,0.26717056,0.00205870,-0.00242794,0.001
 76753,-0.00004568,0.00102965,-0.00037311,-0.00108342,-0.00049270,-0.00
 010774,-0.00043709,-0.00031839,0.00007507,-0.00039336,-0.00011414,0.00
 007524,0.00008551,-0.00006592,-0.00019240,0.00001419,0.00022678,0.0000
 7637,0.00004077,-0.00001475,0.00010587,-0.00006276,-0.00001022,-0.0000
 4795,0.00042906,0.00024521,0.00020048,0.00029483,0.00001806,-0.0001993
 7,0.03996121,-0.05489429,-0.02355759,0.02392118,-0.00394411,-0.0138678
 6,-0.01931556,0.00535747,0.01188231,-0.04536933,0.05492096,0.03226032,
 -0.00524913,-0.01124897,-0.00037084,-0.00165582,-0.00824777,-0.0022153
 6,0.00127205,0.00263960,-0.00107171,-0.00081642,0.00171934,-0.00033340
 ,0.00021645,0.00016125,-0.00028640,0.00005994,-0.00040277,-0.00013939,
 0.00000702,0.00032869,0.00005243,-0.00002142,0.00011623,0.00006037,0.0
 0000898,0.00009476,0.00009084,0.00035192,-0.00057750,0.00053201,-0.000
 55725,-0.00060120,0.09962352,-0.02227055,-0.10111520,-0.00975329,0.000
 85719,0.00499882,-0.00700343,0.00278349,0.00346578,-0.11316553,0.02382
 185,0.10997940,0.01786759,-0.02179139,0.00691093,-0.00770940,0.0025683
 6,0.00240588,0.00491791,0.01081389,0.00026743,-0.11704546,-0.03859237,
 -0.02953120,-0.00704096,-0.00493960,0.00054715,-0.00095114,-0.00120848
 ,-0.00061652,-0.00000577,0.00000209,0.00013667,0.00006945,-0.00003142,
 -0.00005070,-0.00033059,0.00002895,0.00042163,0.01128510,-0.00746692,-
 0.00379928,-0.00475367,0.00322649,0.00002222,-0.00110967,0.00298609,-0
 .00057090,-0.00030178,0.00012222,-0.00065195,0.00006123,0.00064451,-0.
 00104310,-0.00024256,-0.00035123,0.00023186,0.54820978,0.00135931,-0.0
 2321482,-0.00169815,-0.00419759,0.00271977,0.00098500,-0.00175765,-0.0
 0124478,-0.00033316,-0.03811275,-0.17279477,-0.03814463,0.01276404,0.0
 1004612,-0.00008018,-0.00209403,0.00104600,0.00266922,-0.00009196,-0.0
 0006245,-0.00044606,0.00034368,-0.00020212,-0.00011314,0.00070966,0.00
 010652,-0.00059914,-0.02185058,-0.01027723,-0.00178632,0.00263498,-0.0
 0308612,0.00011386,0.00071327,0.00188176,0.00028319,-0.00063854,0.0002
 9114,-0.00177020,-0.00077555,-0.00070663,0.00055556,-0.00007271,0.0001
 9815,0.00052157,-0.05091466,0.47115979,0.01182404,-0.01478971,0.002169
 98,-0.00287151,0.00069221,0.00074166,0.00358679,0.00829119,0.00201307,
 -0.03287607,-0.04044525,-0.08074564,0.00557853,0.00196815,0.00142415,-
 0.00108425,-0.00015762,0.00157013,-0.00008074,0.00016078,-0.00037650,0
 .00022569,-0.00009913,-0.00003102,0.00008472,0.00003613,-0.00025970,-0
 .00471336,-0.00124271,-0.00513011,-0.00249032,0.00115605,-0.00028373,-
 0.00128104,0.00321257,-0.00126688,-0.00022849,-0.00027827,-0.00090849,
 -0.00104640,0.00084786,-0.00036954,0.00031717,0.00070194,-0.00009157,-
 0.01029886,-0.03562607,0.54253338,-0.00307540,0.00339440,-0.00062527,0
 .00198506,0.00001747,-0.00063308,0.00078514,-0.00065383,0.00035882,-0.
 01698614,-0.01499897,-0.00410378,-0.00254969,-0.00189279,0.00001922,0.
 00028927,-0.00027187,-0.00055577,-0.00001130,0.00003409,0.00008047,-0.
 00001983,0.00003393,0.00003170,-0.00014722,-0.00003460,0.00013189,0.00
 527468,0.00167164,0.00062982,-0.00062707,0.00077254,-0.00001325,-0.000
 07941,-0.00051511,-0.00005774,0.00013901,0.00006367,0.00015148,0.00025
 923,0.00009020,0.00031934,0.00010678,0.00012540,-0.00005887,-0.2888571
 4,0.01911493,0.03718630,0.31905456,-0.00295985,0.00049721,0.00077315,0
 .00088994,0.00086161,-0.00037371,0.00164810,0.00029377,0.00016959,-0.0
 4243595,-0.00992431,-0.00178186,-0.00401383,-0.00296219,-0.00005539,0.
 00025310,-0.00046929,-0.00074626,0.00002024,0.00000828,0.00014369,-0.0
 0007951,0.00003453,0.00001894,-0.00020930,0.00000348,0.00022704,0.0066
 1707,0.00085342,0.00054224,-0.00118495,0.00121643,-0.00006571,0.000054
 20,-0.00035973,0.00000804,0.00007635,0.00002031,0.00007475,0.00003303,
 -0.00007867,0.00034785,0.00005072,0.00003615,-0.00011524,0.02665175,-0
 .04947883,-0.00166781,-0.01132558,0.05813050,-0.00019461,0.00076294,0.
 00110381,0.00043051,0.00051182,-0.00077605,0.00004635,-0.00003024,-0.0
 0029665,-0.01565453,-0.00261016,0.00322786,-0.00158136,-0.00084642,-0.
 00003711,0.00012988,-0.00009400,-0.00036529,0.00002705,-0.00003238,0.0
 0009409,-0.00005487,0.00001921,-0.00000393,-0.00005235,0.00000125,0.00
 010136,0.00210699,0.00005452,0.00014720,-0.00009217,0.00021100,0.00000
 636,0.00055008,-0.00001744,-0.00001837,-0.00015799,-0.00010626,0.00004
 858,-0.00007848,0.00014529,-0.00038819,-0.00015703,-0.00010241,0.00004
 628,0.03936748,-0.00235615,-0.05818680,-0.03666575,0.00608178,0.055698
 65,-0.00299387,0.00285376,0.00001783,0.00115288,-0.00009112,-0.0004807
 1,-0.00073553,-0.00159824,-0.00021737,0.00856742,-0.01870807,0.0076003
 8,0.00008234,0.00069053,-0.00018855,0.00002801,0.00006004,0.00006443,0
 .00000244,-0.00000935,-0.00001610,-0.00004966,0.00000458,0.00000973,0.
 00003432,0.00001914,-0.00002787,-0.00059262,-0.00083984,0.00054627,0.0
 0087914,-0.00049447,0.00000817,-0.00002655,-0.00056345,-0.00020646,0.0
 0010225,0.00008095,0.00013309,0.00015641,0.00010083,0.00031775,0.00007
 803,0.00011999,0.00002409,-0.08828249,0.07405905,-0.05496160,-0.010545
 50,0.02261610,-0.01871051,0.08840782,-0.00588391,0.00896840,-0.0011714
 7,0.00179151,-0.00024609,-0.00061268,-0.00216134,-0.00400596,-0.000674
 92,0.00502792,-0.04140155,0.00904730,-0.00138736,0.00056916,-0.0001099
 6,0.00029010,-0.00001029,-0.00023128,0.00001031,-0.00002787,0.00001918
 ,-0.00013530,0.00003529,0.00005805,-0.00003267,0.00000735,0.00003219,0
 .00113044,-0.00007591,0.00051354,0.00220975,-0.00106307,0.00008424,0.0
 0041183,-0.00045691,-0.00003586,0.00014803,0.00009389,0.00030948,0.000
 19925,-0.00003450,0.00021412,-0.00006843,-0.00006174,-0.00003498,0.070
 23995,-0.17235315,0.10194625,0.00220031,0.00003934,0.00135982,-0.07273
 512,0.20483118,-0.00171011,0.00175229,-0.00105311,0.00062335,-0.000098
 94,0.00002203,-0.00063797,-0.00144766,-0.00000289,0.00678186,-0.013019
 48,0.01043618,0.00035686,0.00041253,-0.00010714,-0.00007618,0.00014555
 ,0.00000204,-0.00000423,-0.00001393,-0.00000128,0.00004399,-0.00000143
 ,0.00001449,0.00004263,-0.00002037,-0.00001933,-0.00081042,-0.00015739
 ,0.00042268,0.00044530,-0.00029189,0.00000502,-0.00021797,-0.00042608,
 0.00003868,0.00016702,0.00017976,0.00031994,0.00050579,0.00018208,0.00
 004350,-0.00012076,-0.00018696,-0.00001656,-0.05568382,0.10546707,-0.1
 3297401,0.00223096,-0.00433601,0.00337959,0.06071383,-0.10990245,0.136
 24428,-0.00088566,0.00103475,0.00079453,0.00060902,0.00024809,-0.00029
 346,-0.00019066,-0.00022001,-0.00014455,0.00448183,-0.00815791,-0.0181
 0399,-0.00026644,0.00018097,0.00030136,0.00003218,-0.00004274,-0.00009
 456,-0.00002438,-0.00007006,0.00005560,-0.00006443,0.00001111,-0.00000
 590,-0.00001248,0.00001994,0.00005286,0.00067984,0.00003556,-0.0009579
 0,0.00044063,-0.00018407,-0.00004659,0.00060447,-0.00007053,-0.0000863
 8,-0.00018340,-0.00016185,0.00001110,-0.00045277,0.00024570,-0.0000834
 4,-0.00003783,0.00002597,0.00007655,-0.06617903,0.00840453,0.05293695,
 -0.00496359,0.00334920,0.03080923,0.00367700,-0.00110565,-0.01262322,0
 .06283043,-0.00181291,0.00380176,-0.00301639,0.00105233,-0.00055649,0.
 00022084,-0.00008026,-0.00098895,0.00088499,-0.00244814,-0.01944499,-0
 .03419520,-0.00116574,-0.00059341,0.00021731,0.00027245,-0.00006430,-0
 .00045540,-0.00002759,-0.00003560,0.00013493,-0.00004058,0.00003014,0.
 00003957,-0.00005646,-0.00001282,0.00010134,0.00259739,0.00098090,-0.0
 0031261,0.00029280,0.00016297,-0.00014698,0.00019424,-0.00054687,-0.00
 012349,-0.00003504,0.00021373,0.00024586,0.00055183,-0.00033889,0.0002
 3054,-0.00027461,-0.00029769,0.00021397,0.00814939,-0.05317378,-0.0244
 0437,0.00219242,0.00121027,-0.00265247,-0.00564603,0.00519465,0.021782
 27,-0.00351228,0.06429976,-0.00200337,0.00408061,-0.00150057,0.0006970
 8,-0.00048202,0.00017078,-0.00033656,-0.00109759,0.00039698,-0.0071452
 2,-0.01656068,-0.00573726,-0.00184073,-0.00076987,0.00006482,0.0004931
 6,-0.00010182,-0.00067182,0.00003778,-0.00005813,0.00018321,-0.0001210
 5,0.00005214,0.00000125,-0.00008328,0.00001253,0.00013615,0.00286837,0
 .00074643,0.00009011,0.00049149,0.00004555,-0.00005440,-0.00034038,-0.
 00024639,0.00021677,0.00024768,0.00016590,0.00049226,0.00054000,0.0004
 5847,0.00000362,-0.00010625,-0.00020425,-0.00009432,0.05254015,-0.0272
 0756,-0.26943446,0.00144696,0.00093122,-0.00380688,0.00533827,-0.00106
 074,-0.01684070,-0.05257888,0.04107366,0.29628318,0.00662313,0.0171094
 9,0.04877065,-0.06669923,-0.04242637,-0.10461672,0.00267370,-0.0009689
 1,-0.00601277,-0.00131803,-0.00101003,-0.00078001,0.00105055,-0.001046
 69,-0.00007808,-0.00040574,-0.00004947,0.00041687,0.00001064,0.0000246
 6,-0.00007810,0.00008368,-0.00004083,-0.00006269,0.00002310,0.00003609
 ,-0.00002998,0.00002194,0.00043418,0.00014783,-0.00218846,0.00145114,-
 0.00017772,-0.00465829,-0.00086628,0.00179984,-0.00005301,-0.00008769,
 0.00021494,-0.00009072,0.00009040,-0.00026757,0.00032799,-0.00001838,0
 .00144621,0.00039860,0.00040257,0.00019245,-0.00003142,-0.00005083,-0.
 00006792,0.00005815,-0.00014964,-0.00002688,-0.00009473,-0.00020322,-0
 .00014523,0.06426815,0.00289151,0.00475017,-0.00296678,-0.02862332,-0.
 06481346,-0.14244755,0.00132366,-0.00471283,0.00043048,-0.00146196,-0.
 00015110,0.00099800,-0.00002563,-0.00139954,0.00005681,0.00006086,-0.0
 0007806,-0.00004081,0.00000061,0.00003466,0.00001457,0.00003814,-0.000
 00372,-0.00001478,-0.00006906,-0.00000725,0.00002298,0.00163576,0.0009
 8449,0.00009666,-0.00123567,0.00121187,-0.00034430,-0.00200272,0.00214
 235,0.00125480,0.00009575,0.00010111,-0.00054027,0.00012615,0.00000449
 ,0.00012196,-0.00001798,0.00060944,0.00060638,-0.00013762,-0.00085458,
 -0.00030219,-0.00001826,0.00006769,-0.00029972,0.00008072,-0.00000224,
 -0.00001894,-0.00003073,0.00015961,0.00022253,0.02736980,0.06195688,0.
 00507780,-0.01148390,-0.03461464,-0.05942198,-0.13322225,-0.39608307,-
 0.00827123,0.00042164,0.00307121,-0.00209875,0.00225188,0.00044305,-0.
 00184953,0.00100218,-0.00015488,0.00035414,0.00007180,-0.00043532,-0.0
 0000807,-0.00001750,0.00005004,-0.00008150,0.00004104,0.00008728,-0.00
 003680,-0.00003978,0.00005067,0.00060273,0.00042212,0.00015909,0.00217
 626,-0.00171815,0.00075738,0.00531149,-0.00099229,0.00052207,-0.000192
 82,0.00018720,0.00019572,-0.00026236,-0.00000786,0.00047261,-0.0001917
 2,0.00013297,-0.00115429,-0.00060507,-0.00043473,-0.00039391,0.0001265
 4,-0.00017631,0.00002549,0.00003532,0.00025015,0.00008660,-0.00001932,
 0.00016162,0.00010127,0.05935489,0.14315016,0.42681364\\0.00297439,0.0
 0606434,0.00303799,0.00439465,0.00137264,0.00286285,-0.00342330,-0.006
 52961,-0.00313555,0.00113859,-0.00321840,-0.00100977,0.00174502,-0.000
 30009,-0.00164661,-0.00152668,0.00011546,0.00137811,0.00168902,-0.0001
 0778,0.00225684,-0.00104657,0.00226731,-0.00075571,-0.00117624,-0.0021
 8248,-0.00083379,-0.00214517,0.00301214,-0.00017607,-0.00331498,-0.001
 62629,-0.00075422,-0.00003182,-0.00006183,-0.00045185,0.00104195,-0.00
 242999,0.00118998,0.00189037,0.00211271,0.00084555,-0.00251416,0.00061
 362,0.00155238,0.00068201,0.00173591,0.00076613,0.00243580,-0.00064709
 ,-0.00059881,-0.00124029,0.00147890,-0.00175194,-0.00084205,-0.0000371
 8,0.00261809,-0.00073055,-0.00163231,-0.00539360\\\@


 EVERYBODY NEEDS BEAUTY AS WELL AS BREAD, PLACES TO PLAY IN AND PRAY IN,
 WHERE NATURE MAY HEAL AND CHEER AND GIVE STRENGTH TO BODY AND SOUL ALIKE.

                                    -- JOHN MUIR
 Job cpu time:       0 days  2 hours 21 minutes 33.6 seconds.
 File lengths (MBytes):  RWF=    164 Int=      0 D2E=      0 Chk=      7 Scr=      1
 Normal termination of Gaussian 09 at Sun Jun  7 20:55:03 2015.
