 Entering Gaussian System, Link 0=g09
 Initial command:
 /opt/gridware/applications/gaussian/g09/l1.exe "/lustre/SCRATCH5/gau/mlawal/918250.sched01/Gau-23084.inp" -scrdir="/lustre/SCRATCH5/gau/mlawal/918250.sched01/"
 Entering Link 1 = /opt/gridware/applications/gaussian/g09/l1.exe PID=     23085.
  
 Copyright (c) 1988,1990,1992,1993,1995,1998,2003,2009,2013,
            Gaussian, Inc.  All Rights Reserved.
  
 This is part of the Gaussian(R) 09 program.  It is based on
 the Gaussian(R) 03 system (copyright 2003, Gaussian, Inc.),
 the Gaussian(R) 98 system (copyright 1998, Gaussian, Inc.),
 the Gaussian(R) 94 system (copyright 1995, Gaussian, Inc.),
 the Gaussian 92(TM) system (copyright 1992, Gaussian, Inc.),
 the Gaussian 90(TM) system (copyright 1990, Gaussian, Inc.),
 the Gaussian 88(TM) system (copyright 1988, Gaussian, Inc.),
 the Gaussian 86(TM) system (copyright 1986, Carnegie Mellon
 University), and the Gaussian 82(TM) system (copyright 1983,
 Carnegie Mellon University). Gaussian is a federally registered
 trademark of Gaussian, Inc.
  
 This software contains proprietary and confidential information,
 including trade secrets, belonging to Gaussian, Inc.
  
 This software is provided under written license and may be
 used, copied, transmitted, or stored only in accord with that
 written license.
  
 The following legend is applicable only to US Government
 contracts under FAR:
  
                    RESTRICTED RIGHTS LEGEND
  
 Use, reproduction and disclosure by the US Government is
 subject to restrictions as set forth in subparagraphs (a)
 and (c) of the Commercial Computer Software - Restricted
 Rights clause in FAR 52.227-19.
  
 Gaussian, Inc.
 340 Quinnipiac St., Bldg. 40, Wallingford CT 06492
  
  
 ---------------------------------------------------------------
 Warning -- This program may not be used in any manner that
 competes with the business of Gaussian, Inc. or will provide
 assistance to any competitor of Gaussian, Inc.  The licensee
 of this program is prohibited from giving any competitor of
 Gaussian, Inc. access to this program.  By using this program,
 the user acknowledges that Gaussian, Inc. is engaged in the
 business of creating and licensing software in the field of
 computational chemistry and represents and warrants to the
 licensee that it is not a competitor of Gaussian, Inc. and that
 it will not use this program in any manner prohibited above.
 ---------------------------------------------------------------
  

 Cite this work as:
 Gaussian 09, Revision D.01,
 M. J. Frisch, G. W. Trucks, H. B. Schlegel, G. E. Scuseria, 
 M. A. Robb, J. R. Cheeseman, G. Scalmani, V. Barone, B. Mennucci, 
 G. A. Petersson, H. Nakatsuji, M. Caricato, X. Li, H. P. Hratchian, 
 A. F. Izmaylov, J. Bloino, G. Zheng, J. L. Sonnenberg, M. Hada, 
 M. Ehara, K. Toyota, R. Fukuda, J. Hasegawa, M. Ishida, T. Nakajima, 
 Y. Honda, O. Kitao, H. Nakai, T. Vreven, J. A. Montgomery, Jr., 
 J. E. Peralta, F. Ogliaro, M. Bearpark, J. J. Heyd, E. Brothers, 
 K. N. Kudin, V. N. Staroverov, T. Keith, R. Kobayashi, J. Normand, 
 K. Raghavachari, A. Rendell, J. C. Burant, S. S. Iyengar, J. Tomasi, 
 M. Cossi, N. Rega, J. M. Millam, M. Klene, J. E. Knox, J. B. Cross, 
 V. Bakken, C. Adamo, J. Jaramillo, R. Gomperts, R. E. Stratmann, 
 O. Yazyev, A. J. Austin, R. Cammi, C. Pomelli, J. W. Ochterski, 
 R. L. Martin, K. Morokuma, V. G. Zakrzewski, G. A. Voth, 
 P. Salvador, J. J. Dannenberg, S. Dapprich, A. D. Daniels, 
 O. Farkas, J. B. Foresman, J. V. Ortiz, J. Cioslowski, 
 and D. J. Fox, Gaussian, Inc., Wallingford CT, 2013.
 
 ******************************************
 Gaussian 09:  EM64L-G09RevD.01 24-Apr-2013
                 5-Jun-2015 
 ******************************************
 %nprocshared=8
 Will use up to    8 processors via shared memory.
 %nprocl=1
 Will use up to    1 processors via Linda.
 ----------------------------------------------------------------------
 # opt=(calcfc,ts,noeigentest) freq=noraman b3lyp/def2tzvp geom=connect
 ivity
 ----------------------------------------------------------------------
 1/5=1,10=4,11=1,14=-1,18=20,26=3,38=1,57=2/1,3;
 2/9=110,12=2,17=6,18=5,40=1/2;
 3/5=44,7=101,11=2,16=1,25=1,30=1,71=2,74=-5,140=1/1,2,3;
 4//1;
 5/5=2,38=5/2;
 8/6=4,10=90,11=11/1;
 11/6=1,8=1,9=11,15=111,16=1/1,2,10;
 10/6=1,13=1/2;
 6/7=2,8=2,9=2,10=2,28=1/1;
 7/10=1,18=20,25=1/1,2,3,16;
 1/5=1,10=4,11=1,14=-1,18=20,26=3/3(2);
 2/9=110/2;
 99//99;
 2/9=110/2;
 3/5=44,7=101,11=2,16=1,25=1,30=1,71=1,74=-5/1,2,3;
 4/5=5,16=3,69=1/1;
 5/5=2,38=5/2;
 7//1,2,3,16;
 1/5=1,11=1,14=-1,18=20,26=3/3(-5);
 2/9=110/2;
 6/7=2,8=2,9=2,10=2,19=2,28=1/1;
 99/9=1/99;
 -------
 ts631oh
 -------
 Symbolic Z-matrix:
 Charge =  0 Multiplicity = 1
 O                     0.05477  -0.12893  -1.10184 
 O                    -2.06666  -0.73895  -0.09636 
 H                    -1.24844  -0.55305  -0.91672 
 H                    -1.19432  -0.73192   0.79281 
 O                     0.04168  -0.77291   1.10819 
 H                     0.18535  -0.12562   1.82617 
 C                     0.91662  -0.35544  -0.16678 
 C                     1.92975  -1.46364  -0.25921 
 H                     1.50148  -2.41914   0.07657 
 H                     2.81594  -1.25515   0.35661 
 H                     2.25787  -1.58494  -1.30197 
 O                     1.54636   0.80026   0.36717 
 C                    -2.90657   0.43396   0.00204 
 H                    -3.50134   0.31322   0.91351 
 H                    -2.30252   1.34539   0.02892 
 H                    -3.55705   0.42488  -0.88138 
 C                     1.01104   2.0797   -0.03488 
 H                     1.82694   2.77118   0.20125 
 H                     0.78664   2.07659  -1.10948 
 H                     0.11507   2.29531   0.54937 
 
 Add virtual bond connecting atoms H3         and O2         Dist= 2.22D+00.
 Add virtual bond connecting atoms H4         and O2         Dist= 2.35D+00.
 Add virtual bond connecting atoms O5         and H4         Dist= 2.41D+00.
 Add virtual bond connecting atoms H3         and O1         Dist= 2.61D+00.

 GradGradGradGradGradGradGradGradGradGradGradGradGradGradGradGradGradGrad
 Berny optimization.
 Initialization pass.
                           ----------------------------
                           !    Initial Parameters    !
                           ! (Angstroms and Degrees)  !
 --------------------------                            --------------------------
 ! Name  Definition              Value          Derivative Info.                !
 --------------------------------------------------------------------------------
 ! R1    R(1,3)                  1.3829         calculate D2E/DX2 analytically  !
 ! R2    R(1,7)                  1.2917         calculate D2E/DX2 analytically  !
 ! R3    R(2,3)                  1.1735         calculate D2E/DX2 analytically  !
 ! R4    R(2,4)                  1.2457         calculate D2E/DX2 analytically  !
 ! R5    R(2,13)                 1.446          calculate D2E/DX2 analytically  !
 ! R6    R(4,5)                  1.2763         calculate D2E/DX2 analytically  !
 ! R7    R(5,6)                  0.9773         calculate D2E/DX2 analytically  !
 ! R8    R(7,8)                  1.5044         calculate D2E/DX2 analytically  !
 ! R9    R(7,12)                 1.4203         calculate D2E/DX2 analytically  !
 ! R10   R(8,9)                  1.0996         calculate D2E/DX2 analytically  !
 ! R11   R(8,10)                 1.0991         calculate D2E/DX2 analytically  !
 ! R12   R(8,11)                 1.0999         calculate D2E/DX2 analytically  !
 ! R13   R(12,17)                1.444          calculate D2E/DX2 analytically  !
 ! R14   R(13,14)                1.095          calculate D2E/DX2 analytically  !
 ! R15   R(13,15)                1.0938         calculate D2E/DX2 analytically  !
 ! R16   R(13,16)                1.0971         calculate D2E/DX2 analytically  !
 ! R17   R(17,18)                1.0953         calculate D2E/DX2 analytically  !
 ! R18   R(17,19)                1.0978         calculate D2E/DX2 analytically  !
 ! R19   R(17,20)                1.0911         calculate D2E/DX2 analytically  !
 ! A1    A(3,1,7)              118.5604         calculate D2E/DX2 analytically  !
 ! A2    A(3,2,4)               90.5634         calculate D2E/DX2 analytically  !
 ! A3    A(3,2,13)             108.9104         calculate D2E/DX2 analytically  !
 ! A4    A(4,2,13)             110.7097         calculate D2E/DX2 analytically  !
 ! A5    A(1,3,2)              143.0564         calculate D2E/DX2 analytically  !
 ! A6    A(2,4,5)              148.6967         calculate D2E/DX2 analytically  !
 ! A7    A(4,5,6)              107.6162         calculate D2E/DX2 analytically  !
 ! A8    A(1,7,8)              122.2805         calculate D2E/DX2 analytically  !
 ! A9    A(1,7,12)             115.1692         calculate D2E/DX2 analytically  !
 ! A10   A(8,7,12)             108.8994         calculate D2E/DX2 analytically  !
 ! A11   A(7,8,9)              111.0423         calculate D2E/DX2 analytically  !
 ! A12   A(7,8,10)             111.6439         calculate D2E/DX2 analytically  !
 ! A13   A(7,8,11)             109.9013         calculate D2E/DX2 analytically  !
 ! A14   A(9,8,10)             107.9248         calculate D2E/DX2 analytically  !
 ! A15   A(9,8,11)             108.0509         calculate D2E/DX2 analytically  !
 ! A16   A(10,8,11)            108.155          calculate D2E/DX2 analytically  !
 ! A17   A(7,12,17)            116.8664         calculate D2E/DX2 analytically  !
 ! A18   A(2,13,14)            106.4216         calculate D2E/DX2 analytically  !
 ! A19   A(2,13,15)            110.9047         calculate D2E/DX2 analytically  !
 ! A20   A(2,13,16)            106.4326         calculate D2E/DX2 analytically  !
 ! A21   A(14,13,15)           111.8014         calculate D2E/DX2 analytically  !
 ! A22   A(14,13,16)           110.3221         calculate D2E/DX2 analytically  !
 ! A23   A(15,13,16)           110.7398         calculate D2E/DX2 analytically  !
 ! A24   A(12,17,18)           102.8969         calculate D2E/DX2 analytically  !
 ! A25   A(12,17,19)           110.2315         calculate D2E/DX2 analytically  !
 ! A26   A(12,17,20)           109.2932         calculate D2E/DX2 analytically  !
 ! A27   A(18,17,19)           111.4142         calculate D2E/DX2 analytically  !
 ! A28   A(18,17,20)           111.8081         calculate D2E/DX2 analytically  !
 ! A29   A(19,17,20)           110.9066         calculate D2E/DX2 analytically  !
 ! D1    D(7,1,3,2)             31.3705         calculate D2E/DX2 analytically  !
 ! D2    D(3,1,7,8)            102.5706         calculate D2E/DX2 analytically  !
 ! D3    D(3,1,7,12)          -121.3623         calculate D2E/DX2 analytically  !
 ! D4    D(4,2,3,1)            -17.2471         calculate D2E/DX2 analytically  !
 ! D5    D(13,2,3,1)            94.9129         calculate D2E/DX2 analytically  !
 ! D6    D(3,2,4,5)            -13.1957         calculate D2E/DX2 analytically  !
 ! D7    D(13,2,4,5)          -123.696          calculate D2E/DX2 analytically  !
 ! D8    D(3,2,13,14)         -167.6578         calculate D2E/DX2 analytically  !
 ! D9    D(3,2,13,15)          -45.8522         calculate D2E/DX2 analytically  !
 ! D10   D(3,2,13,16)           74.67           calculate D2E/DX2 analytically  !
 ! D11   D(4,2,13,14)          -69.5737         calculate D2E/DX2 analytically  !
 ! D12   D(4,2,13,15)           52.232          calculate D2E/DX2 analytically  !
 ! D13   D(4,2,13,16)          172.7542         calculate D2E/DX2 analytically  !
 ! D14   D(2,4,5,6)            138.7854         calculate D2E/DX2 analytically  !
 ! D15   D(1,7,8,9)            -84.3129         calculate D2E/DX2 analytically  !
 ! D16   D(1,7,8,10)           155.1943         calculate D2E/DX2 analytically  !
 ! D17   D(1,7,8,11)            35.183          calculate D2E/DX2 analytically  !
 ! D18   D(12,7,8,9)           137.2716         calculate D2E/DX2 analytically  !
 ! D19   D(12,7,8,10)           16.7788         calculate D2E/DX2 analytically  !
 ! D20   D(12,7,8,11)         -103.2325         calculate D2E/DX2 analytically  !
 ! D21   D(1,7,12,17)            9.4192         calculate D2E/DX2 analytically  !
 ! D22   D(8,7,12,17)          151.1025         calculate D2E/DX2 analytically  !
 ! D23   D(7,12,17,18)        -161.4093         calculate D2E/DX2 analytically  !
 ! D24   D(7,12,17,19)         -42.4902         calculate D2E/DX2 analytically  !
 ! D25   D(7,12,17,20)          79.6473         calculate D2E/DX2 analytically  !
 --------------------------------------------------------------------------------
 Trust Radius=3.00D-01 FncErr=1.00D-07 GrdErr=1.00D-06
 Number of steps in this run=     83 maximum allowed number of steps=    120.
 Search for a saddle point of order  1.
 GradGradGradGradGradGradGradGradGradGradGradGradGradGradGradGradGradGrad

                          Input orientation:                          
 ---------------------------------------------------------------------
 Center     Atomic      Atomic             Coordinates (Angstroms)
 Number     Number       Type             X           Y           Z
 ---------------------------------------------------------------------
      1          8           0        0.054772   -0.128927   -1.101841
      2          8           0       -2.066657   -0.738946   -0.096355
      3          1           0       -1.248439   -0.553054   -0.916723
      4          1           0       -1.194315   -0.731918    0.792813
      5          8           0        0.041678   -0.772911    1.108190
      6          1           0        0.185350   -0.125624    1.826173
      7          6           0        0.916620   -0.355440   -0.166784
      8          6           0        1.929754   -1.463642   -0.259212
      9          1           0        1.501483   -2.419144    0.076570
     10          1           0        2.815944   -1.255146    0.356609
     11          1           0        2.257868   -1.584943   -1.301974
     12          8           0        1.546364    0.800261    0.367173
     13          6           0       -2.906568    0.433957    0.002042
     14          1           0       -3.501336    0.313224    0.913511
     15          1           0       -2.302518    1.345390    0.028915
     16          1           0       -3.557046    0.424876   -0.881381
     17          6           0        1.011044    2.079701   -0.034877
     18          1           0        1.826939    2.771177    0.201254
     19          1           0        0.786639    2.076590   -1.109477
     20          1           0        0.115074    2.295308    0.549371
 ---------------------------------------------------------------------
                    Distance matrix (angstroms):
                    1          2          3          4          5
     1  O    0.000000
     2  O    2.425610   0.000000
     3  H    1.382936   1.173474   0.000000
     4  H    2.348091   1.245652   1.719719   0.000000
     5  O    2.301983   2.428407   2.411019   1.276253   0.000000
     6  H    2.930926   3.023874   3.124408   1.827266   0.977303
     7  C    1.291674   3.008651   2.299770   2.349172   1.601675
     8  C    2.450927   4.064850   3.370816   3.376682   2.431405
     9  H    2.954102   3.947732   3.468572   3.259918   2.430093
    10  H    3.319566   4.930662   4.316656   4.067704   2.914443
    11  H    2.648333   4.568451   3.675242   4.127148   3.373394
    12  O    2.290467   3.954483   3.360175   3.168606   2.299577
    13  C    3.210129   1.445972   2.137221   2.217294   3.372276
    14  H    4.111331   2.045775   3.029148   2.535594   3.710867
    15  H    3.001506   2.101376   2.368418   2.475250   3.338756
    16  H    3.660673   2.047439   2.507441   3.118268   4.282978
    17  C    2.632661   4.173822   3.579709   3.667953   3.222370
    18  H    3.639950   5.250678   4.664583   4.663646   4.070657
    19  H    2.323788   4.134605   3.330724   3.928181   3.686824
    20  H    2.933778   3.792573   3.481633   3.307244   3.119557
                    6          7          8          9         10
     6  H    0.000000
     7  C    2.135287   0.000000
     8  C    3.030193   1.504359   0.000000
     9  H    3.170733   2.158740   1.099613   0.000000
    10  H    3.217991   2.165835   1.099108   1.777954   0.000000
    11  H    4.026195   2.144593   1.099875   1.779998   1.780762
    12  O    2.199614   1.420328   2.380043   3.232806   2.415915
    13  C    3.633255   3.907482   5.201841   5.251348   5.977117
    14  H    3.823244   4.597008   5.833461   5.761467   6.532836
    15  H    3.403455   3.646090   5.087809   5.352047   5.750550
    16  H    4.651820   4.597089   5.835972   5.881737   6.705975
    17  C    3.001456   2.440538   3.667374   4.526871   3.812103
    18  H    3.704947   3.277174   4.261020   5.202009   4.148921
    19  H    3.718782   2.611577   3.816137   4.704183   4.167487
    20  H    2.737896   2.860388   4.251656   4.936773   4.465152
                   11         12         13         14         15
    11  H    0.000000
    12  O    2.996913   0.000000
    13  C    5.696298   4.482868   0.000000
    14  H    6.455993   5.100487   1.095035   0.000000
    15  H    5.581688   3.901984   1.093759   1.812468   0.000000
    16  H    6.166806   5.267314   1.097105   1.799224   1.802727
    17  C    4.073048   1.444015   4.249414   4.937758   3.394551
    18  H    4.628302   1.997689   5.282837   5.910952   4.372069
    19  H    3.950746   2.094443   4.192075   5.058524   3.372459
    20  H    4.803685   2.077728   3.590894   4.140009   2.649145
                   16         17         18         19         20
    16  H    0.000000
    17  C    4.931781   0.000000
    18  H    5.971978   1.095254   0.000000
    19  H    4.652718   1.097785   1.811820   0.000000
    20  H    4.362343   1.091144   1.810558   1.802946   0.000000
 Stoichiometry    C4H12O4
 Framework group  C1[X(C4H12O4)]
 Deg. of freedom    54
 Full point group                 C1      NOp   1
 Largest Abelian subgroup         C1      NOp   1
 Largest concise Abelian subgroup C1      NOp   1
                         Standard orientation:                         
 ---------------------------------------------------------------------
 Center     Atomic      Atomic             Coordinates (Angstroms)
 Number     Number       Type             X           Y           Z
 ---------------------------------------------------------------------
      1          8           0        0.054772   -0.128927   -1.101841
      2          8           0       -2.066657   -0.738946   -0.096355
      3          1           0       -1.248439   -0.553054   -0.916723
      4          1           0       -1.194315   -0.731918    0.792813
      5          8           0        0.041678   -0.772911    1.108190
      6          1           0        0.185350   -0.125624    1.826173
      7          6           0        0.916620   -0.355440   -0.166784
      8          6           0        1.929754   -1.463642   -0.259212
      9          1           0        1.501483   -2.419144    0.076570
     10          1           0        2.815944   -1.255146    0.356609
     11          1           0        2.257868   -1.584943   -1.301974
     12          8           0        1.546364    0.800261    0.367173
     13          6           0       -2.906568    0.433957    0.002042
     14          1           0       -3.501336    0.313224    0.913511
     15          1           0       -2.302518    1.345390    0.028915
     16          1           0       -3.557046    0.424876   -0.881381
     17          6           0        1.011044    2.079701   -0.034877
     18          1           0        1.826939    2.771177    0.201254
     19          1           0        0.786639    2.076590   -1.109477
     20          1           0        0.115074    2.295308    0.549371
 ---------------------------------------------------------------------
 Rotational constants (GHZ):      2.6242499      1.3276814      1.0788649
 Standard basis: def2TZVP (5D, 7F)
 There are   360 symmetry adapted cartesian basis functions of A   symmetry.
 There are   320 symmetry adapted basis functions of A   symmetry.
   320 basis functions,   504 primitive gaussians,   360 cartesian basis functions
    34 alpha electrons       34 beta electrons
       nuclear repulsion energy       449.4321926256 Hartrees.
 NAtoms=   20 NActive=   20 NUniq=   20 SFac= 1.00D+00 NAtFMM=   60 NAOKFM=F Big=F
 Integral buffers will be    131072 words long.
 Raffenetti 2 integral format.
 Two-electron integral symmetry is turned on.
 One-electron integrals computed using PRISM.
 PrsmSu:  requested number of processors reduced to:   4 ShMem   1 Linda.
   1 Symmetry operations used in ECPInt.
 ECPInt:  NShTT=    9316 NPrTT=   27240 LenC2=    9079 LenP2D=   20952.
 LDataN:  DoStor=T MaxTD1= 6 Len=  172
 NBasis=   320 RedAO= T EigKep=  2.88D-04  NBF=   320
 NBsUse=   320 1.00D-06 EigRej= -1.00D+00 NBFU=   320
 ExpMin= 9.52D-02 ExpMax= 2.70D+04 ExpMxC= 9.22D+02 IAcc=2 IRadAn=         4 AccDes= 0.00D+00
 Harris functional with IExCor=  402 and IRadAn=       4 diagonalized for initial guess.
 HarFok:  IExCor=  402 AccDes= 0.00D+00 IRadAn=         4 IDoV= 1 UseB2=F ITyADJ=14
 ICtDFT=  3500011 ScaDFX=  1.000000  1.000000  1.000000  1.000000
 FoFCou: FMM=F IPFlag=           0 FMFlag=      100000 FMFlg1=           0
         NFxFlg=           0 DoJE=T BraDBF=F KetDBF=T FulRan=T
         wScrn=  0.000000 ICntrl=     500 IOpCl=  0 I1Cent=   200000004 NGrid=           0
         NMat0=    1 NMatS0=      1 NMatT0=    0 NMatD0=    1 NMtDS0=    0 NMtDT0=    0
 Petite list used in FoFCou.
 Requested convergence on RMS density matrix=1.00D-08 within 128 cycles.
 Requested convergence on MAX density matrix=1.00D-06.
 Requested convergence on             energy=1.00D-06.
 No special actions if energy rises.
 Integral accuracy reduced to 1.0D-05 until final iterations.
 Initial convergence to 1.0D-05 achieved.  Increase integral accuracy.
 SCF Done:  E(RB3LYP) =  -460.686952514     A.U. after   13 cycles
            NFock= 13  Conv=0.45D-08     -V/T= 2.0051
 DoSCS=F DFT=T ScalE2(SS,OS)=  1.000000  1.000000
 Range of M.O.s used for correlation:     1   320
 NBasis=   320 NAE=    34 NBE=    34 NFC=     0 NFV=     0
 NROrb=    320 NOA=    34 NOB=    34 NVA=   286 NVB=   286

 **** Warning!!: The largest alpha MO coefficient is  0.14734750D+02

 PrsmSu:  requested number of processors reduced to:   4 ShMem   1 Linda.
 PrsmSu:  requested number of processors reduced to:   4 ShMem   1 Linda.
   1 Symmetry operations used in ECPInt.
 ECPInt:  NShTT=    9316 NPrTT=   27240 LenC2=    9079 LenP2D=   20952.
 LDataN:  DoStor=T MaxTD1= 7 Len=  274
 Number of processors reduced to   2 by ecpmxn.
 Symmetrizing basis deriv contribution to polar:
 IMax=3 JMax=2 DiffMx= 0.00D+00
 G2DrvN: will do     1 centers at a time, making   21 passes.
 Calling FoFCou, ICntrl=  3107 FMM=F I1Cent=   0 AccDes= 0.00D+00.
 Calling FoFCou, ICntrl=  3107 FMM=F I1Cent=   0 AccDes= 0.00D+00.
 Calling FoFCou, ICntrl=  3107 FMM=F I1Cent=   0 AccDes= 0.00D+00.
 Calling FoFCou, ICntrl=  3107 FMM=F I1Cent=   0 AccDes= 0.00D+00.
 Calling FoFCou, ICntrl=  3107 FMM=F I1Cent=   0 AccDes= 0.00D+00.
 Calling FoFCou, ICntrl=  3107 FMM=F I1Cent=   0 AccDes= 0.00D+00.
 Calling FoFCou, ICntrl=  3107 FMM=F I1Cent=   0 AccDes= 0.00D+00.
 Calling FoFCou, ICntrl=  3107 FMM=F I1Cent=   0 AccDes= 0.00D+00.
 Calling FoFCou, ICntrl=  3107 FMM=F I1Cent=   0 AccDes= 0.00D+00.
 Calling FoFCou, ICntrl=  3107 FMM=F I1Cent=   0 AccDes= 0.00D+00.
 Calling FoFCou, ICntrl=  3107 FMM=F I1Cent=   0 AccDes= 0.00D+00.
 Calling FoFCou, ICntrl=  3107 FMM=F I1Cent=   0 AccDes= 0.00D+00.
 Calling FoFCou, ICntrl=  3107 FMM=F I1Cent=   0 AccDes= 0.00D+00.
 Calling FoFCou, ICntrl=  3107 FMM=F I1Cent=   0 AccDes= 0.00D+00.
 Calling FoFCou, ICntrl=  3107 FMM=F I1Cent=   0 AccDes= 0.00D+00.
 Calling FoFCou, ICntrl=  3107 FMM=F I1Cent=   0 AccDes= 0.00D+00.
 Calling FoFCou, ICntrl=  3107 FMM=F I1Cent=   0 AccDes= 0.00D+00.
 Calling FoFCou, ICntrl=  3107 FMM=F I1Cent=   0 AccDes= 0.00D+00.
 Calling FoFCou, ICntrl=  3107 FMM=F I1Cent=   0 AccDes= 0.00D+00.
 Calling FoFCou, ICntrl=  3107 FMM=F I1Cent=   0 AccDes= 0.00D+00.
 Calling FoFCou, ICntrl=  3107 FMM=F I1Cent=   0 AccDes= 0.00D+00.
 End of G2Drv F.D. properties file   721 does not exist.
 End of G2Drv F.D. properties file   722 does not exist.
 End of G2Drv F.D. properties file   788 does not exist.
          IDoAtm=11111111111111111111
          Differentiating once with respect to nuclear coordinates.
 PrRfSu:  requested number of processors reduced to:   5 ShMem   1 Linda.
 PrRfSu:  requested number of processors reduced to:   5 ShMem   1 Linda.
 PrRfSu:  requested number of processors reduced to:   5 ShMem   1 Linda.
          There are    63 degrees of freedom in the 1st order CPHF.  IDoFFX=6 NUNeed=     0.
     60 vectors produced by pass  0 Test12= 1.54D-14 1.59D-09 XBig12= 8.65D-02 6.16D-02.
 AX will form    24 AO Fock derivatives at one time.
 PrRfSu:  requested number of processors reduced to:   5 ShMem   1 Linda.
 PrRfSu:  requested number of processors reduced to:   5 ShMem   1 Linda.
 PrRfSu:  requested number of processors reduced to:   6 ShMem   1 Linda.
     57 vectors produced by pass  1 Test12= 1.54D-14 1.59D-09 XBig12= 6.61D-03 1.54D-02.
 PrRfSu:  requested number of processors reduced to:   5 ShMem   1 Linda.
 PrRfSu:  requested number of processors reduced to:   5 ShMem   1 Linda.
 PrRfSu:  requested number of processors reduced to:   6 ShMem   1 Linda.
     57 vectors produced by pass  2 Test12= 1.54D-14 1.59D-09 XBig12= 7.14D-05 1.19D-03.
 PrRfSu:  requested number of processors reduced to:   5 ShMem   1 Linda.
 PrRfSu:  requested number of processors reduced to:   5 ShMem   1 Linda.
 PrRfSu:  requested number of processors reduced to:   6 ShMem   1 Linda.
     57 vectors produced by pass  3 Test12= 1.54D-14 1.59D-09 XBig12= 3.81D-07 5.66D-05.
 PrRfSu:  requested number of processors reduced to:   5 ShMem   1 Linda.
 PrRfSu:  requested number of processors reduced to:   5 ShMem   1 Linda.
 PrRfSu:  requested number of processors reduced to:   6 ShMem   1 Linda.
     57 vectors produced by pass  4 Test12= 1.54D-14 1.59D-09 XBig12= 9.25D-10 3.48D-06.
 PrRfSu:  requested number of processors reduced to:   5 ShMem   1 Linda.
 PrRfSu:  requested number of processors reduced to:   5 ShMem   1 Linda.
 PrRfSu:  requested number of processors reduced to:   6 ShMem   1 Linda.
     44 vectors produced by pass  5 Test12= 1.54D-14 1.59D-09 XBig12= 1.55D-12 1.48D-07.
 PrRfSu:  requested number of processors reduced to:   5 ShMem   1 Linda.
 PrRfSu:  requested number of processors reduced to:   5 ShMem   1 Linda.
      8 vectors produced by pass  6 Test12= 1.54D-14 1.59D-09 XBig12= 3.00D-15 8.74D-09.
 PrRfSu:  requested number of processors reduced to:   6 ShMem   1 Linda.
 InvSVY:  IOpt=1 It=  1 EMax= 3.89D-16
 Solved reduced A of dimension   340 with    63 vectors.
 End of Minotr F.D. properties file   721 does not exist.
 End of Minotr F.D. properties file   722 does not exist.
 End of Minotr F.D. properties file   788 does not exist.

 **********************************************************************

            Population analysis using the SCF density.

 **********************************************************************

 Orbital symmetries:
       Occupied  (A) (A) (A) (A) (A) (A) (A) (A) (A) (A) (A) (A)
                 (A) (A) (A) (A) (A) (A) (A) (A) (A) (A) (A) (A)
                 (A) (A) (A) (A) (A) (A) (A) (A) (A) (A)
       Virtual   (A) (A) (A) (A) (A) (A) (A) (A) (A) (A) (A) (A)
                 (A) (A) (A) (A) (A) (A) (A) (A) (A) (A) (A) (A)
                 (A) (A) (A) (A) (A) (A) (A) (A) (A) (A) (A) (A)
                 (A) (A) (A) (A) (A) (A) (A) (A) (A) (A) (A) (A)
                 (A) (A) (A) (A) (A) (A) (A) (A) (A) (A) (A) (A)
                 (A) (A) (A) (A) (A) (A) (A) (A) (A) (A) (A) (A)
                 (A) (A) (A) (A) (A) (A) (A) (A) (A) (A) (A) (A)
                 (A) (A) (A) (A) (A) (A) (A) (A) (A) (A) (A) (A)
                 (A) (A) (A) (A) (A) (A) (A) (A) (A) (A) (A) (A)
                 (A) (A) (A) (A) (A) (A) (A) (A) (A) (A) (A) (A)
                 (A) (A) (A) (A) (A) (A) (A) (A) (A) (A) (A) (A)
                 (A) (A) (A) (A) (A) (A) (A) (A) (A) (A) (A) (A)
                 (A) (A) (A) (A) (A) (A) (A) (A) (A) (A) (A) (A)
                 (A) (A) (A) (A) (A) (A) (A) (A) (A) (A) (A) (A)
                 (A) (A) (A) (A) (A) (A) (A) (A) (A) (A) (A) (A)
                 (A) (A) (A) (A) (A) (A) (A) (A) (A) (A) (A) (A)
                 (A) (A) (A) (A) (A) (A) (A) (A) (A) (A) (A) (A)
                 (A) (A) (A) (A) (A) (A) (A) (A) (A) (A) (A) (A)
                 (A) (A) (A) (A) (A) (A) (A) (A) (A) (A) (A) (A)
                 (A) (A) (A) (A) (A) (A) (A) (A) (A) (A) (A) (A)
                 (A) (A) (A) (A) (A) (A) (A) (A) (A) (A) (A) (A)
                 (A) (A) (A) (A) (A) (A) (A) (A) (A) (A) (A) (A)
                 (A) (A) (A) (A) (A) (A) (A) (A) (A) (A) (A) (A)
                 (A) (A) (A) (A) (A) (A) (A) (A) (A) (A)
 The electronic state is 1-A.
 Alpha  occ. eigenvalues --  -19.15507 -19.15299 -19.12930 -19.07494 -10.31523
 Alpha  occ. eigenvalues --  -10.23232 -10.21173 -10.15839  -1.08458  -1.03161
 Alpha  occ. eigenvalues --   -0.99935  -0.96823  -0.74941  -0.69856  -0.68127
 Alpha  occ. eigenvalues --   -0.57300  -0.54749  -0.53704  -0.50977  -0.47435
 Alpha  occ. eigenvalues --   -0.46290  -0.45669  -0.44585  -0.42406  -0.41576
 Alpha  occ. eigenvalues --   -0.39131  -0.38021  -0.36655  -0.35824  -0.33788
 Alpha  occ. eigenvalues --   -0.30732  -0.27776  -0.27325  -0.25784
 Alpha virt. eigenvalues --    0.01037   0.04739   0.05946   0.06501   0.07710
 Alpha virt. eigenvalues --    0.08960   0.09820   0.10341   0.10656   0.11486
 Alpha virt. eigenvalues --    0.12792   0.14382   0.14487   0.15331   0.16672
 Alpha virt. eigenvalues --    0.17318   0.19757   0.20620   0.21182   0.23781
 Alpha virt. eigenvalues --    0.24438   0.25346   0.26239   0.28005   0.29429
 Alpha virt. eigenvalues --    0.30817   0.31921   0.34231   0.35260   0.37135
 Alpha virt. eigenvalues --    0.38015   0.38787   0.39062   0.39810   0.42244
 Alpha virt. eigenvalues --    0.42707   0.43361   0.44149   0.45372   0.46544
 Alpha virt. eigenvalues --    0.47501   0.48109   0.48974   0.49859   0.50980
 Alpha virt. eigenvalues --    0.52391   0.53668   0.54812   0.57273   0.58663
 Alpha virt. eigenvalues --    0.60155   0.61031   0.63046   0.64971   0.66240
 Alpha virt. eigenvalues --    0.67468   0.71859   0.72804   0.73741   0.75353
 Alpha virt. eigenvalues --    0.77076   0.79868   0.81817   0.82537   0.86743
 Alpha virt. eigenvalues --    0.89322   0.90080   0.91342   0.92874   0.96342
 Alpha virt. eigenvalues --    0.97186   0.99188   1.00269   1.01561   1.03460
 Alpha virt. eigenvalues --    1.05645   1.09082   1.09916   1.13453   1.18308
 Alpha virt. eigenvalues --    1.19107   1.25431   1.32908   1.35508   1.37110
 Alpha virt. eigenvalues --    1.41044   1.43463   1.45296   1.46313   1.47570
 Alpha virt. eigenvalues --    1.48116   1.48714   1.49473   1.52287   1.53660
 Alpha virt. eigenvalues --    1.54438   1.55070   1.55433   1.57702   1.58536
 Alpha virt. eigenvalues --    1.59184   1.60793   1.61669   1.64009   1.68219
 Alpha virt. eigenvalues --    1.72264   1.74910   1.75262   1.77630   1.79765
 Alpha virt. eigenvalues --    1.80593   1.82893   1.84703   1.86016   1.89358
 Alpha virt. eigenvalues --    1.89869   1.92193   1.92891   1.95711   1.97418
 Alpha virt. eigenvalues --    1.98708   2.00530   2.02248   2.03926   2.07854
 Alpha virt. eigenvalues --    2.10951   2.13526   2.14805   2.16904   2.18262
 Alpha virt. eigenvalues --    2.21250   2.22210   2.23335   2.24539   2.26444
 Alpha virt. eigenvalues --    2.27142   2.28583   2.30417   2.30694   2.31613
 Alpha virt. eigenvalues --    2.32472   2.34303   2.36477   2.36786   2.42826
 Alpha virt. eigenvalues --    2.43714   2.48622   2.49320   2.49769   2.52098
 Alpha virt. eigenvalues --    2.53196   2.54002   2.54863   2.57073   2.59264
 Alpha virt. eigenvalues --    2.60951   2.63989   2.65680   2.69712   2.70202
 Alpha virt. eigenvalues --    2.72296   2.73933   2.76159   2.78731   2.79025
 Alpha virt. eigenvalues --    2.81697   2.89957   2.92653   2.93966   2.97596
 Alpha virt. eigenvalues --    3.00385   3.00985   3.02169   3.04719   3.07515
 Alpha virt. eigenvalues --    3.08531   3.08858   3.12037   3.13676   3.15685
 Alpha virt. eigenvalues --    3.19060   3.20568   3.21414   3.23165   3.27619
 Alpha virt. eigenvalues --    3.30432   3.31655   3.34048   3.34548   3.34821
 Alpha virt. eigenvalues --    3.37103   3.38136   3.39203   3.40308   3.44361
 Alpha virt. eigenvalues --    3.48392   3.49524   3.51544   3.52274   3.54474
 Alpha virt. eigenvalues --    3.55488   3.58653   3.59041   3.61095   3.64984
 Alpha virt. eigenvalues --    3.70594   3.73521   3.81282   3.82047   3.90278
 Alpha virt. eigenvalues --    3.93703   3.96978   3.99665   4.06918   4.10646
 Alpha virt. eigenvalues --    4.11143   4.17035   4.18180   4.26294   4.34909
 Alpha virt. eigenvalues --    4.38375   4.38880   4.41316   4.44298   4.49127
 Alpha virt. eigenvalues --    4.51008   4.54224   4.64456   4.79745   4.89584
 Alpha virt. eigenvalues --    5.16241   5.19355   5.23252   5.25439   5.28273
 Alpha virt. eigenvalues --    5.30003   5.33474   5.36626   5.40371   5.43563
 Alpha virt. eigenvalues --    5.52498   5.54850   5.57215   5.57815   5.67256
 Alpha virt. eigenvalues --    5.69181   5.73033   5.77590   5.80270   5.82959
 Alpha virt. eigenvalues --    5.95640   6.00164   6.11438   6.13519   6.15753
 Alpha virt. eigenvalues --    6.26201   6.29801   6.44823   6.52027   6.54063
 Alpha virt. eigenvalues --    6.59406   6.62680   6.64749   6.68032   6.73589
 Alpha virt. eigenvalues --    6.79308   6.82165   6.86210   6.92363   7.00565
 Alpha virt. eigenvalues --    7.02390   7.07134   7.09681   7.11462   7.20525
 Alpha virt. eigenvalues --    7.27104   7.33564   7.40928  22.24446  22.24570
 Alpha virt. eigenvalues --   22.29361  22.88687  43.72011  43.83670  44.00666
 Alpha virt. eigenvalues --   44.17405
          Condensed to atoms (all electrons):
               1          2          3          4          5          6
     1  O    8.305919  -0.102529   0.128077   0.010627  -0.107888   0.007977
     2  O   -0.102529   8.158163   0.208102   0.188726  -0.115486   0.002950
     3  H    0.128077   0.208102   0.327773  -0.021377   0.007703  -0.000160
     4  H    0.010627   0.188726  -0.021377   0.333391   0.151567  -0.004541
     5  O   -0.107888  -0.115486   0.007703   0.151567   8.204848   0.275232
     6  H    0.007977   0.002950  -0.000160  -0.004541   0.275232   0.396836
     7  C    0.469107   0.023150  -0.010903  -0.013162   0.214771  -0.012358
     8  C   -0.083201  -0.003375  -0.002401   0.004118  -0.067086   0.004521
     9  H    0.002943   0.000379   0.000305  -0.000023   0.003291  -0.000237
    10  H    0.005521   0.000069   0.000137  -0.000254   0.004396  -0.000414
    11  H    0.004618   0.000199   0.000153  -0.000224   0.005561  -0.000501
    12  O   -0.084873  -0.002451   0.004996   0.005840  -0.095585   0.013610
    13  C    0.008209   0.213801  -0.016130  -0.012649   0.013505   0.000571
    14  H   -0.000032  -0.034008   0.004474  -0.008793   0.000454   0.000001
    15  H    0.006881  -0.054569  -0.000383   0.000636  -0.000897  -0.000464
    16  H   -0.000404  -0.033512  -0.007334   0.004298  -0.000403   0.000056
    17  C   -0.009212  -0.000987  -0.000557   0.000590  -0.002739   0.002616
    18  H    0.002873  -0.000012  -0.000076   0.000113  -0.000411  -0.000046
    19  H    0.018750   0.000439  -0.000358  -0.000099   0.000611   0.000492
    20  H   -0.005587   0.000516   0.000017  -0.001647   0.009215  -0.003837
               7          8          9         10         11         12
     1  O    0.469107  -0.083201   0.002943   0.005521   0.004618  -0.084873
     2  O    0.023150  -0.003375   0.000379   0.000069   0.000199  -0.002451
     3  H   -0.010903  -0.002401   0.000305   0.000137   0.000153   0.004996
     4  H   -0.013162   0.004118  -0.000023  -0.000254  -0.000224   0.005840
     5  O    0.214771  -0.067086   0.003291   0.004396   0.005561  -0.095585
     6  H   -0.012358   0.004521  -0.000237  -0.000414  -0.000501   0.013610
     7  C    4.448729   0.257845  -0.028906  -0.036453  -0.027571   0.348941
     8  C    0.257845   5.143074   0.385441   0.378340   0.378931  -0.100775
     9  H   -0.028906   0.385441   0.559667  -0.022436  -0.021374   0.004512
    10  H   -0.036453   0.378340  -0.022436   0.566341  -0.017621   0.010689
    11  H   -0.027571   0.378931  -0.021374  -0.017621   0.565580   0.000278
    12  O    0.348941  -0.100775   0.004512   0.010689   0.000278   8.147238
    13  C    0.000875   0.001553  -0.000102  -0.000041  -0.000053  -0.000417
    14  H   -0.000302   0.000002   0.000001  -0.000001   0.000000  -0.000013
    15  H   -0.002672  -0.000131   0.000011   0.000001  -0.000008  -0.000029
    16  H    0.000391  -0.000014   0.000000   0.000001   0.000001  -0.000006
    17  C   -0.062373   0.013496  -0.000688   0.000247  -0.001392   0.232277
    18  H    0.004714   0.001732  -0.000021  -0.000710  -0.000012  -0.036882
    19  H   -0.017144  -0.001029  -0.000127   0.000264   0.000393  -0.037835
    20  H    0.007216  -0.000961   0.000169   0.000023  -0.000035  -0.056518
              13         14         15         16         17         18
     1  O    0.008209  -0.000032   0.006881  -0.000404  -0.009212   0.002873
     2  O    0.213801  -0.034008  -0.054569  -0.033512  -0.000987  -0.000012
     3  H   -0.016130   0.004474  -0.000383  -0.007334  -0.000557  -0.000076
     4  H   -0.012649  -0.008793   0.000636   0.004298   0.000590   0.000113
     5  O    0.013505   0.000454  -0.000897  -0.000403  -0.002739  -0.000411
     6  H    0.000571   0.000001  -0.000464   0.000056   0.002616  -0.000046
     7  C    0.000875  -0.000302  -0.002672   0.000391  -0.062373   0.004714
     8  C    0.001553   0.000002  -0.000131  -0.000014   0.013496   0.001732
     9  H   -0.000102   0.000001   0.000011   0.000000  -0.000688  -0.000021
    10  H   -0.000041  -0.000001   0.000001   0.000001   0.000247  -0.000710
    11  H   -0.000053   0.000000  -0.000008   0.000001  -0.001392  -0.000012
    12  O   -0.000417  -0.000013  -0.000029  -0.000006   0.232277  -0.036882
    13  C    4.763892   0.407655   0.395276   0.411144  -0.001997   0.000077
    14  H    0.407655   0.572934  -0.040878  -0.023376   0.000119   0.000006
    15  H    0.395276  -0.040878   0.615364  -0.036380  -0.000146  -0.000064
    16  H    0.411144  -0.023376  -0.036380   0.558164   0.000051  -0.000004
    17  C   -0.001997   0.000119  -0.000146   0.000051   4.790916   0.394765
    18  H    0.000077   0.000006  -0.000064  -0.000004   0.394765   0.569612
    19  H    0.000183   0.000038   0.000027  -0.000036   0.422158  -0.022309
    20  H   -0.000309  -0.000141   0.000512   0.000111   0.388596  -0.034381
              19         20
     1  O    0.018750  -0.005587
     2  O    0.000439   0.000516
     3  H   -0.000358   0.000017
     4  H   -0.000099  -0.001647
     5  O    0.000611   0.009215
     6  H    0.000492  -0.003837
     7  C   -0.017144   0.007216
     8  C   -0.001029  -0.000961
     9  H   -0.000127   0.000169
    10  H    0.000264   0.000023
    11  H    0.000393  -0.000035
    12  O   -0.037835  -0.056518
    13  C    0.000183  -0.000309
    14  H    0.000038  -0.000141
    15  H    0.000027   0.000512
    16  H   -0.000036   0.000111
    17  C    0.422158   0.388596
    18  H   -0.022309  -0.034381
    19  H    0.544914  -0.049782
    20  H   -0.049782   0.670254
 Mulliken charges:
               1
     1  O   -0.577775
     2  O   -0.449566
     3  H    0.377943
     4  H    0.362864
     5  O   -0.500659
     6  H    0.317695
     7  C    0.436104
     8  C   -0.310080
     9  H    0.117194
    10  H    0.111902
    11  H    0.113077
    12  O   -0.352999
    13  C   -0.185044
    14  H    0.121860
    15  H    0.117914
    16  H    0.127253
    17  C   -0.165739
    18  H    0.121036
    19  H    0.140450
    20  H    0.076570
 Sum of Mulliken charges =   0.00000
 Mulliken charges with hydrogens summed into heavy atoms:
               1
     1  O   -0.577775
     2  O    0.291241
     5  O   -0.182964
     7  C    0.436104
     8  C    0.032093
    12  O   -0.352999
    13  C    0.181983
    17  C    0.172317
 APT charges:
               1
     1  O   -0.538685
     2  O   -0.274835
     3  H    0.319923
     4  H    0.307873
     5  O   -0.640162
     6  H    0.544407
     7  C    0.183976
     8  C   -1.123017
     9  H    0.343422
    10  H    0.441460
    11  H    0.416590
    12  O   -0.232806
    13  C   -0.991342
    14  H    0.496737
    15  H    0.092163
    16  H    0.531650
    17  C   -0.888323
    18  H    0.581710
    19  H    0.256040
    20  H    0.173222
 Sum of APT charges =   0.00000
 APT charges with hydrogens summed into heavy atoms:
               1
     1  O   -0.538685
     2  O    0.352960
     5  O   -0.095755
     7  C    0.183976
     8  C    0.078454
    12  O   -0.232806
    13  C    0.129207
    17  C    0.122649
 Electronic spatial extent (au):  <R**2>=           1203.6366
 Charge=              0.0000 electrons
 Dipole moment (field-independent basis, Debye):
    X=             -1.6192    Y=              1.6510    Z=              1.7883  Tot=              2.9233
 Quadrupole moment (field-independent basis, Debye-Ang):
   XX=            -47.3033   YY=            -49.8675   ZZ=            -50.2779
   XY=             -3.6108   XZ=             -1.2297   YZ=              0.8116
 Traceless Quadrupole moment (field-independent basis, Debye-Ang):
   XX=              1.8463   YY=             -0.7179   ZZ=             -1.1284
   XY=             -3.6108   XZ=             -1.2297   YZ=              0.8116
 Octapole moment (field-independent basis, Debye-Ang**2):
  XXX=            -19.8438  YYY=              4.6162  ZZZ=             12.0238  XYY=              6.2597
  XXY=              4.1950  XXZ=             -2.1012  XZZ=             -5.1688  YZZ=              0.8185
  YYZ=             -1.6247  XYZ=              0.0746
 Hexadecapole moment (field-independent basis, Debye-Ang**3):
 XXXX=           -887.3283 YYYY=           -445.6190 ZZZZ=           -167.4480 XXXY=            -12.7607
 XXXZ=              1.7103 YYYX=             17.4915 YYYZ=             -0.3031 ZZZX=              3.0734
 ZZZY=              0.7063 XXYY=           -233.5921 XXZZ=           -173.6199 YYZZ=           -109.6798
 XXYZ=             -2.5148 YYXZ=             -0.4221 ZZXY=              3.5268
 N-N= 4.494321926256D+02 E-N=-1.980495602995D+03  KE= 4.583396351326D+02
  Exact polarizability:   0.000   0.000   0.000   0.000   0.000   0.000
 Approx polarizability: 107.115   0.846  95.656   2.677   0.001  99.115
 PrsmSu:  requested number of processors reduced to:   4 ShMem   1 Linda.
 PrsmSu:  requested number of processors reduced to:   4 ShMem   1 Linda.
   1 Symmetry operations used in ECPInt.
 ECPInt:  NShTT=    9316 NPrTT=   27240 LenC2=    9079 LenP2D=   20952.
 LDataN:  DoStor=T MaxTD1= 8 Len=  415
 Calling FoFJK, ICntrl=    100147 FMM=F ISym2X=0 I1Cent= 0 IOpClX= 0 NMat=1 NMatS=1 NMatT=0.
 CoulSu:  requested number of processors reduced to:   4 ShMem   1 Linda.
 ***** Axes restored to original set *****
 -------------------------------------------------------------------
 Center     Atomic                   Forces (Hartrees/Bohr)
 Number     Number              X              Y              Z
 -------------------------------------------------------------------
      1        8           0.002129842   -0.010235862   -0.019814388
      2        8           0.017463606    0.009052885   -0.002919897
      3        1           0.002930917    0.002280006    0.033997743
      4        1           0.007039552   -0.005653668   -0.027526986
      5        8          -0.029258037   -0.003649541    0.036127444
      6        1           0.005991814   -0.007129457   -0.009602483
      7        6          -0.016830595    0.025564764    0.007064006
      8        6           0.011347286   -0.015013594   -0.005997821
      9        1           0.000835199    0.006368825   -0.003914288
     10        1          -0.006826641    0.000350095   -0.002138907
     11        1          -0.002394326    0.002918971    0.005183174
     12        8           0.007195666    0.005144125   -0.012784889
     13        6          -0.000378614   -0.015460218   -0.004172376
     14        1           0.000028996    0.005199521   -0.003883907
     15        1          -0.002381210   -0.000229105    0.000424496
     16        1           0.000471525    0.004912522    0.005760290
     17        6           0.011411531   -0.013944844   -0.000053922
     18        1          -0.007590228    0.001741952   -0.001129144
     19        1           0.000120394    0.002227029    0.007006101
     20        1          -0.001306678    0.005555596   -0.001624246
 -------------------------------------------------------------------
 Cartesian Forces:  Max     0.036127444 RMS     0.011449394
 FormGI is forming the generalized inverse of G from B-inverse, IUseBI=4.

 GradGradGradGradGradGradGradGradGradGradGradGradGradGradGradGradGradGrad
 Berny optimization.
 Internal  Forces:  Max     0.109025694 RMS     0.018864203
 Search for a saddle point.
 Step number   1 out of a maximum of   83
 All quantities printed in internal units (Hartrees-Bohrs-Radians)
 Swapping is turned off.
 Second derivative matrix not updated -- analytic derivatives used.
 ITU=  0
     Eigenvalues ---   -0.07290  -0.01924  -0.01119  -0.00738   0.00043
     Eigenvalues ---    0.00128   0.00214   0.00463   0.00767   0.03120
     Eigenvalues ---    0.03894   0.04803   0.04969   0.05583   0.05651
     Eigenvalues ---    0.06253   0.06370   0.08208   0.08319   0.08344
     Eigenvalues ---    0.09655   0.12117   0.12147   0.13165   0.13489
     Eigenvalues ---    0.14126   0.14477   0.16255   0.17742   0.18318
     Eigenvalues ---    0.18389   0.18805   0.18875   0.19464   0.22697
     Eigenvalues ---    0.25411   0.30246   0.31901   0.32161   0.32211
     Eigenvalues ---    0.32400   0.32501   0.32740   0.32847   0.32924
     Eigenvalues ---    0.33891   0.35566   0.35844   0.43790   0.47312
     Eigenvalues ---    0.48123   1.00062   2.38316   4.22730
 Eigenvectors required to have negative eigenvalues:
                          R4        R6        R1        R3        R2
   1                    0.50808  -0.49537   0.47977  -0.38144  -0.12703
                          D22       D2        D19       D20       D15
   1                    0.11154  -0.10341  -0.09595  -0.09224   0.09029
 RFO step:  Lambda0=8.521365592D-04 Lambda=-2.96266580D-02.
 Linear search not attempted -- option 19 set.
 Maximum step size (   0.300) exceeded in Quadratic search.
    -- Step size scaled by   0.610
 Iteration  1 RMS(Cart)=  0.11588148 RMS(Int)=  0.02070635
 Iteration  2 RMS(Cart)=  0.05931676 RMS(Int)=  0.00181799
 Iteration  3 RMS(Cart)=  0.00245507 RMS(Int)=  0.00024214
 Iteration  4 RMS(Cart)=  0.00000840 RMS(Int)=  0.00024201
 Iteration  5 RMS(Cart)=  0.00000000 RMS(Int)=  0.00024201
 Variable       Old X    -DE/DX   Delta X   Delta X   Delta X     New X
                                 (Linear)    (Quad)   (Total)
    R1        2.61337   0.00526   0.00000  -0.10309  -0.10309   2.51028
    R2        2.44091  -0.01246   0.00000  -0.00748  -0.00748   2.43343
    R3        2.21754  -0.00127   0.00000  -0.04141  -0.04141   2.17613
    R4        2.35394  -0.01217   0.00000  -0.10144  -0.10144   2.25251
    R5        2.73249  -0.00335   0.00000  -0.01906  -0.01906   2.71344
    R6        2.41177  -0.01563   0.00000  -0.03282  -0.03282   2.37894
    R7        1.84684  -0.01090   0.00000  -0.01739  -0.01739   1.82945
    R8        2.84283   0.00637   0.00000   0.00953   0.00953   2.85236
    R9        2.68403   0.00172   0.00000  -0.04610  -0.04610   2.63793
   R10        2.07797  -0.00706   0.00000  -0.01324  -0.01324   2.06473
   R11        2.07701  -0.00663   0.00000  -0.01201  -0.01201   2.06501
   R12        2.07846  -0.00595   0.00000  -0.01043  -0.01043   2.06803
   R13        2.72879  -0.00605   0.00000  -0.01817  -0.01817   2.71063
   R14        2.06932  -0.00382   0.00000  -0.00561  -0.00561   2.06371
   R15        2.06690  -0.00150   0.00000   0.00052   0.00052   2.06742
   R16        2.07323  -0.00496   0.00000  -0.00814  -0.00814   2.06509
   R17        2.06973  -0.00480   0.00000  -0.00781  -0.00781   2.06192
   R18        2.07451  -0.00689   0.00000  -0.01084  -0.01084   2.06368
   R19        2.06196   0.00130   0.00000   0.00373   0.00373   2.06569
    A1        2.06927   0.04001   0.00000  -0.03397  -0.03397   2.03530
    A2        1.58063   0.04200   0.00000  -0.04477  -0.04382   1.53681
    A3        1.90085  -0.02601   0.00000   0.05664   0.05633   1.95717
    A4        1.93225   0.00047   0.00000  -0.02889  -0.02801   1.90424
    A5        2.49681   0.10903   0.00000   0.14404   0.14404   2.64084
    A6        2.59525   0.06285   0.00000   0.12858   0.12858   2.72382
    A7        1.87826   0.01348   0.00000   0.09183   0.09183   1.97009
    A8        2.13420  -0.01260   0.00000  -0.03436  -0.03435   2.09985
    A9        2.01008   0.00738   0.00000   0.01995   0.01999   2.03007
   A10        1.90065  -0.00183   0.00000   0.01047   0.01054   1.91119
   A11        1.93805  -0.00096   0.00000  -0.00358  -0.00361   1.93444
   A12        1.94855  -0.00255   0.00000  -0.00872  -0.00877   1.93978
   A13        1.91814  -0.00250   0.00000  -0.01845  -0.01853   1.89961
   A14        1.88364   0.00242   0.00000   0.01081   0.01080   1.89445
   A15        1.88584   0.00146   0.00000   0.00801   0.00795   1.89379
   A16        1.88766   0.00243   0.00000   0.01339   0.01330   1.90096
   A17        2.03970   0.00065   0.00000   0.00384   0.00384   2.04354
   A18        1.85741   0.00652   0.00000   0.02137   0.02117   1.87857
   A19        1.93565  -0.00004   0.00000   0.00540   0.00532   1.94097
   A20        1.85760   0.00773   0.00000   0.02580   0.02556   1.88316
   A21        1.95130  -0.00424   0.00000  -0.02014  -0.02020   1.93110
   A22        1.92548  -0.00494   0.00000  -0.01266  -0.01305   1.91243
   A23        1.93277  -0.00407   0.00000  -0.01611  -0.01623   1.91655
   A24        1.79589   0.00766   0.00000   0.02419   0.02399   1.81988
   A25        1.92390   0.00146   0.00000   0.00859   0.00844   1.93234
   A26        1.90753   0.00674   0.00000   0.01976   0.01960   1.92713
   A27        1.94454  -0.00322   0.00000  -0.00804  -0.00823   1.93631
   A28        1.95142  -0.00662   0.00000  -0.02314  -0.02336   1.92806
   A29        1.93568  -0.00478   0.00000  -0.01719  -0.01731   1.91837
    D1        0.54752  -0.02027   0.00000  -0.26564  -0.26564   0.28188
    D2        1.79019  -0.00484   0.00000  -0.00521  -0.00514   1.78505
    D3       -2.11817  -0.01459   0.00000  -0.00446  -0.00453  -2.12270
    D4       -0.30102  -0.02844   0.00000   0.14988   0.15041  -0.15061
    D5        1.65654  -0.01614   0.00000   0.11079   0.11026   1.76680
    D6       -0.23031  -0.01777   0.00000   0.20577   0.20643  -0.02388
    D7       -2.15890  -0.00686   0.00000   0.16723   0.16658  -1.99233
    D8       -2.92618  -0.01766   0.00000   0.02324   0.02366  -2.90252
    D9       -0.80027  -0.01874   0.00000   0.01535   0.01561  -0.78466
   D10        1.30324  -0.01892   0.00000   0.01482   0.01498   1.31822
   D11       -1.21429   0.01926   0.00000  -0.01503  -0.01517  -1.22946
   D12        0.91162   0.01819   0.00000  -0.02292  -0.02322   0.88840
   D13        3.01513   0.01800   0.00000  -0.02345  -0.02385   2.99128
   D14        2.42226  -0.00464   0.00000  -0.33359  -0.33359   2.08867
   D15       -1.47154  -0.00093   0.00000   0.03436   0.03434  -1.43720
   D16        2.70865  -0.00161   0.00000   0.02899   0.02902   2.73767
   D17        0.61406  -0.00134   0.00000   0.03014   0.03013   0.64419
   D18        2.39584   0.00441   0.00000   0.02853   0.02851   2.42435
   D19        0.29285   0.00373   0.00000   0.02316   0.02320   0.31604
   D20       -1.80175   0.00400   0.00000   0.02431   0.02430  -1.77744
   D21        0.16440   0.00722   0.00000   0.04647   0.04642   0.21081
   D22        2.63724  -0.00658   0.00000   0.02710   0.02714   2.66438
   D23       -2.81712  -0.00116   0.00000  -0.02018  -0.02015  -2.83727
   D24       -0.74159  -0.00004   0.00000  -0.01229  -0.01222  -0.75382
   D25        1.39011  -0.00063   0.00000  -0.01523  -0.01532   1.37479
         Item               Value     Threshold  Converged?
 Maximum Force            0.109026     0.000450     NO 
 RMS     Force            0.018864     0.000300     NO 
 Maximum Displacement     0.498229     0.001800     NO 
 RMS     Displacement     0.139751     0.001200     NO 
 Predicted change in Energy=-1.730846D-02
 GradGradGradGradGradGradGradGradGradGradGradGradGradGradGradGradGradGrad

                          Input orientation:                          
 ---------------------------------------------------------------------
 Center     Atomic      Atomic             Coordinates (Angstroms)
 Number     Number       Type             X           Y           Z
 ---------------------------------------------------------------------
      1          8           0        0.097184   -0.082164   -1.134026
      2          8           0       -2.016173   -0.752459   -0.207245
      3          1           0       -1.161579   -0.446109   -0.915700
      4          1           0       -1.212016   -0.813696    0.670471
      5          8           0       -0.066318   -0.747734    1.187976
      6          1           0       -0.008889   -0.085706    1.891993
      7          6           0        0.932387   -0.290807   -0.176362
      8          6           0        1.882356   -1.462274   -0.235695
      9          1           0        1.390673   -2.378685    0.099311
     10          1           0        2.760451   -1.289791    0.391451
     11          1           0        2.207756   -1.601281   -1.271266
     12          8           0        1.604795    0.830134    0.313520
     13          6           0       -2.916958    0.334394    0.055649
     14          1           0       -3.539698    0.049572    0.906344
     15          1           0       -2.371019    1.258066    0.269397
     16          1           0       -3.544902    0.471406   -0.828159
     17          6           0        1.118296    2.115205   -0.098090
     18          1           0        1.941785    2.797027    0.119930
     19          1           0        0.883008    2.115728   -1.164493
     20          1           0        0.231511    2.389961    0.478993
 ---------------------------------------------------------------------
                    Distance matrix (angstroms):
                    1          2          3          4          5
     1  O    0.000000
     2  O    2.403018   0.000000
     3  H    1.328384   1.151560   0.000000
     4  H    2.346350   1.191975   1.628989   0.000000
     5  O    2.421035   2.397624   2.390821   1.258883   0.000000
     6  H    3.027880   2.980026   3.056423   1.862687   0.968101
     7  C    1.287718   2.984641   2.226079   2.364108   1.751459
     8  C    2.428692   3.962723   3.280325   3.288910   2.516890
     9  H    2.910025   3.787504   3.358435   3.090212   2.442952
    10  H    3.298248   4.843893   4.219332   4.010613   2.986453
    11  H    2.604049   4.437817   3.579563   4.010671   3.456563
    12  O    2.280476   3.985876   3.285209   3.280856   2.459056
    13  C    3.267093   1.435888   2.152686   2.145447   3.252585
    14  H    4.172215   2.050479   3.036609   2.493787   3.574827
    15  H    3.139719   2.096500   2.402376   2.407560   3.190402
    16  H    3.696591   2.054360   2.555334   3.056099   4.201387
    17  C    2.635197   4.249742   3.525144   3.820930   3.354652
    18  H    3.642074   5.326474   4.606661   4.825648   4.211713
    19  H    2.334347   4.189041   3.287132   4.041998   3.825538
    20  H    2.954873   3.924004   3.453861   3.519071   3.230555
                    6          7          8          9         10
     6  H    0.000000
     7  C    2.281701   0.000000
     8  C    3.162088   1.509403   0.000000
     9  H    3.229588   2.155286   1.092607   0.000000
    10  H    3.372045   2.159213   1.092755   1.774072   0.000000
    11  H    4.149300   2.131367   1.094357   1.774955   1.779642
    12  O    2.436045   1.395932   2.373566   3.223082   2.415719
    13  C    3.464897   3.906681   5.132865   5.091010   5.914703
    14  H    3.668300   4.613855   5.743570   5.554845   6.461493
    15  H    3.165154   3.675622   5.074107   5.234999   5.730485
    16  H    4.495887   4.588238   5.791827   5.774351   6.659336
    17  C    3.174112   2.414452   3.660748   4.506462   3.811865
    18  H    3.905827   3.262115   4.274535   5.205012   4.176843
    19  H    3.870904   2.601970   3.829290   4.696240   4.188474
    20  H    2.860645   2.847320   4.251562   4.922175   4.465846
                   11         12         13         14         15
    11  H    0.000000
    12  O    2.964270   0.000000
    13  C    5.636509   4.556150   0.000000
    14  H    6.364003   5.237034   1.092068   0.000000
    15  H    5.613795   3.999021   1.094033   1.797768   0.000000
    16  H    6.130698   5.286918   1.092796   1.785069   1.789264
    17  C    4.046669   1.434402   4.413411   5.193519   3.611794
    18  H    4.620745   2.004920   5.447575   6.181716   4.581595
    19  H    3.947469   2.087642   4.370542   5.302612   3.657911
    20  H    4.785287   2.084790   3.783839   4.458932   2.845748
                   16         17         18         19         20
    16  H    0.000000
    17  C    4.998049   0.000000
    18  H    6.034163   1.091122   0.000000
    19  H    4.735325   1.092051   1.798589   0.000000
    20  H    4.432922   1.093117   1.794342   1.789050   0.000000
 Stoichiometry    C4H12O4
 Framework group  C1[X(C4H12O4)]
 Deg. of freedom    54
 Full point group                 C1      NOp   1
 Largest Abelian subgroup         C1      NOp   1
 Largest concise Abelian subgroup C1      NOp   1
                         Standard orientation:                         
 ---------------------------------------------------------------------
 Center     Atomic      Atomic             Coordinates (Angstroms)
 Number     Number       Type             X           Y           Z
 ---------------------------------------------------------------------
      1          8           0        0.098864   -0.063050   -1.123347
      2          8           0       -2.070894   -0.609292   -0.246840
      3          1           0       -1.185755   -0.343006   -0.933651
      4          1           0       -1.286968   -0.754417    0.639277
      5          8           0       -0.147744   -0.786010    1.174026
      6          1           0       -0.054716   -0.151592    1.899339
      7          6           0        0.902077   -0.359793   -0.161573
      8          6           0        1.767654   -1.593526   -0.245094
      9          1           0        1.207204   -2.482443    0.054094
     10          1           0        2.645787   -1.503230    0.398989
     11          1           0        2.098639   -1.723596   -1.280057
     12          8           0        1.644280    0.694948    0.372546
     13          6           0       -2.896596    0.530355    0.038111
     14          1           0       -3.551203    0.264683    0.870889
     15          1           0       -2.290141    1.405865    0.288313
     16          1           0       -3.499321    0.738674   -0.849318
     17          6           0        1.256387    2.023367   -0.004748
     18          1           0        2.122497    2.637873    0.245823
     19          1           0        1.038506    2.073250   -1.073680
     20          1           0        0.382293    2.342751    0.568713
 ---------------------------------------------------------------------
 Rotational constants (GHZ):      2.5809585      1.3026832      1.0726379
 Standard basis: def2TZVP (5D, 7F)
 There are   360 symmetry adapted cartesian basis functions of A   symmetry.
 There are   320 symmetry adapted basis functions of A   symmetry.
   320 basis functions,   504 primitive gaussians,   360 cartesian basis functions
    34 alpha electrons       34 beta electrons
       nuclear repulsion energy       446.8566159903 Hartrees.
 NAtoms=   20 NActive=   20 NUniq=   20 SFac= 1.00D+00 NAtFMM=   60 NAOKFM=F Big=F
 Integral buffers will be    131072 words long.
 Raffenetti 2 integral format.
 Two-electron integral symmetry is turned on.
 One-electron integrals computed using PRISM.
 PrsmSu:  requested number of processors reduced to:   4 ShMem   1 Linda.
   1 Symmetry operations used in ECPInt.
 ECPInt:  NShTT=    9316 NPrTT=   27240 LenC2=    9073 LenP2D=   20911.
 LDataN:  DoStor=T MaxTD1= 6 Len=  172
 NBasis=   320 RedAO= T EigKep=  2.98D-04  NBF=   320
 NBsUse=   320 1.00D-06 EigRej= -1.00D+00 NBFU=   320
 Initial guess from the checkpoint file:  "/lustre/SCRATCH5/gau/mlawal/918250.sched01/Gau-23085.chk"
 B after Tr=     0.000000    0.000000    0.000000
         Rot=    0.999268   -0.012428    0.009887    0.034806 Ang=  -4.39 deg.
 ExpMin= 9.52D-02 ExpMax= 2.70D+04 ExpMxC= 9.22D+02 IAcc=2 IRadAn=         4 AccDes= 0.00D+00
 Harris functional with IExCor=  402 and IRadAn=       4 diagonalized for initial guess.
 HarFok:  IExCor=  402 AccDes= 0.00D+00 IRadAn=         4 IDoV= 1 UseB2=F ITyADJ=14
 ICtDFT=  3500011 ScaDFX=  1.000000  1.000000  1.000000  1.000000
 FoFCou: FMM=F IPFlag=           0 FMFlag=      100000 FMFlg1=           0
         NFxFlg=           0 DoJE=T BraDBF=F KetDBF=T FulRan=T
         wScrn=  0.000000 ICntrl=     500 IOpCl=  0 I1Cent=   200000004 NGrid=           0
         NMat0=    1 NMatS0=      1 NMatT0=    0 NMatD0=    1 NMtDS0=    0 NMtDT0=    0
 Petite list used in FoFCou.
 Requested convergence on RMS density matrix=1.00D-08 within 128 cycles.
 Requested convergence on MAX density matrix=1.00D-06.
 Requested convergence on             energy=1.00D-06.
 No special actions if energy rises.
 Integral accuracy reduced to 1.0D-05 until final iterations.
 Initial convergence to 1.0D-05 achieved.  Increase integral accuracy.
 SCF Done:  E(RB3LYP) =  -460.701381753     A.U. after   12 cycles
            NFock= 12  Conv=0.56D-08     -V/T= 2.0050
 PrsmSu:  requested number of processors reduced to:   4 ShMem   1 Linda.
   1 Symmetry operations used in ECPInt.
 ECPInt:  NShTT=    9316 NPrTT=   27240 LenC2=    9073 LenP2D=   20911.
 LDataN:  DoStor=T MaxTD1= 7 Len=  274
 Calling FoFJK, ICntrl=      2127 FMM=F ISym2X=0 I1Cent= 0 IOpClX= 0 NMat=1 NMatS=1 NMatT=0.
 ***** Axes restored to original set *****
 -------------------------------------------------------------------
 Center     Atomic                   Forces (Hartrees/Bohr)
 Number     Number              X              Y              Z
 -------------------------------------------------------------------
      1        8           0.002187377   -0.005634346   -0.002658994
      2        8           0.006689673    0.004140252   -0.002827792
      3        1          -0.000590817   -0.001267599    0.017164922
      4        1           0.006680053    0.001537085   -0.005595741
      5        8          -0.011031459   -0.003399502    0.009847748
      6        1           0.003165851   -0.001281612   -0.004374266
      7        6          -0.003731535    0.017464128   -0.005738188
      8        6           0.002918194   -0.008161527    0.001056339
      9        1           0.000400897    0.002699883   -0.002546338
     10        1          -0.003268044    0.000071287   -0.000445267
     11        1          -0.000854696    0.002349045    0.002135544
     12        8          -0.001652362   -0.004643129   -0.005728560
     13        6           0.000220994   -0.007178125   -0.005666822
     14        1          -0.000014471    0.002857055   -0.001166521
     15        1          -0.001240108   -0.000112616    0.000376167
     16        1          -0.000139426    0.002055042    0.002950899
     17        6           0.003870312   -0.005902664    0.001512749
     18        1          -0.003572871    0.000999835   -0.000275455
     19        1           0.000184216    0.000959836    0.002983072
     20        1          -0.000221781    0.002447671   -0.001003494
 -------------------------------------------------------------------
 Cartesian Forces:  Max     0.017464128 RMS     0.004934457

 GradGradGradGradGradGradGradGradGradGradGradGradGradGradGradGradGradGrad
 Berny optimization.
 FormGI is forming the generalized inverse of G from B-inverse, IUseBI=4.
 Internal  Forces:  Max     0.028334042 RMS     0.005170190
 Search for a saddle point.
 Step number   2 out of a maximum of   83
 All quantities printed in internal units (Hartrees-Bohrs-Radians)
 Swapping is turned off.
 Update second derivatives using D2CorX and points    1    2
 ITU=  0  0
     Eigenvalues ---   -0.07204  -0.01409  -0.00788  -0.00303   0.00027
     Eigenvalues ---    0.00128   0.00211   0.00490   0.00901   0.03114
     Eigenvalues ---    0.04041   0.04840   0.05006   0.05582   0.05651
     Eigenvalues ---    0.06252   0.06368   0.08207   0.08319   0.08453
     Eigenvalues ---    0.09591   0.12113   0.12146   0.13169   0.13483
     Eigenvalues ---    0.14132   0.14485   0.16254   0.17723   0.18314
     Eigenvalues ---    0.18394   0.18795   0.18873   0.19574   0.22716
     Eigenvalues ---    0.25398   0.30245   0.31901   0.32160   0.32211
     Eigenvalues ---    0.32401   0.32500   0.32740   0.32847   0.32924
     Eigenvalues ---    0.33891   0.35564   0.35836   0.43789   0.47304
     Eigenvalues ---    0.48127   1.00064   2.38779   4.24220
 Eigenvectors required to have negative eigenvalues:
                          R4        R6        R1        R3        R2
   1                    0.50334  -0.50139   0.47042  -0.38072  -0.12566
                          D22       D2        D19       D15       D20
   1                    0.11662  -0.10410  -0.09266   0.09253  -0.08911
 RFO step:  Lambda0=9.015496578D-04 Lambda=-1.52909594D-02.
 Linear search not attempted -- option 19 set.
 Maximum step size (   0.300) exceeded in Quadratic search.
    -- Step size scaled by   0.639
 Iteration  1 RMS(Cart)=  0.20825244 RMS(Int)=  0.01391634
 Iteration  2 RMS(Cart)=  0.03981518 RMS(Int)=  0.00039637
 Iteration  3 RMS(Cart)=  0.00133577 RMS(Int)=  0.00012084
 Iteration  4 RMS(Cart)=  0.00000064 RMS(Int)=  0.00012084
 Variable       Old X    -DE/DX   Delta X   Delta X   Delta X     New X
                                 (Linear)    (Quad)   (Total)
    R1        2.51028  -0.00106   0.00000  -0.20976  -0.20976   2.30052
    R2        2.43343  -0.01116   0.00000  -0.00583  -0.00583   2.42760
    R3        2.17613  -0.00682   0.00000   0.06659   0.06659   2.24273
    R4        2.25251  -0.00073   0.00000   0.00964   0.00964   2.26214
    R5        2.71344  -0.00171   0.00000  -0.01436  -0.01436   2.69908
    R6        2.37894  -0.00516   0.00000  -0.03320  -0.03320   2.34574
    R7        1.82945  -0.00387   0.00000  -0.00768  -0.00768   1.82177
    R8        2.85236   0.00185   0.00000  -0.00379  -0.00379   2.84857
    R9        2.63793  -0.00647   0.00000  -0.06179  -0.06179   2.57614
   R10        2.06473  -0.00323   0.00000  -0.00704  -0.00704   2.05768
   R11        2.06501  -0.00287   0.00000  -0.00682  -0.00682   2.05819
   R12        2.06803  -0.00257   0.00000  -0.00408  -0.00408   2.06395
   R13        2.71063  -0.00235   0.00000   0.00001   0.00001   2.71064
   R14        2.06371  -0.00165   0.00000  -0.00058  -0.00058   2.06313
   R15        2.06742  -0.00064   0.00000   0.00361   0.00361   2.07103
   R16        2.06509  -0.00205   0.00000  -0.00173  -0.00173   2.06335
   R17        2.06192  -0.00213   0.00000  -0.00477  -0.00477   2.05715
   R18        2.06368  -0.00296   0.00000  -0.00638  -0.00638   2.05730
   R19        2.06569   0.00027   0.00000   0.00008   0.00008   2.06577
    A1        2.03530   0.00034   0.00000  -0.06014  -0.06014   1.97516
    A2        1.53681   0.00919   0.00000  -0.03236  -0.03226   1.50454
    A3        1.95717  -0.00781   0.00000  -0.02245  -0.02229   1.93488
    A4        1.90424   0.00176   0.00000   0.01629   0.01598   1.92022
    A5        2.64084   0.02833   0.00000   0.15016   0.15016   2.79100
    A6        2.72382   0.01729   0.00000  -0.03605  -0.03605   2.68778
    A7        1.97009   0.00500   0.00000   0.02700   0.02700   1.99709
    A8        2.09985  -0.00463   0.00000   0.00409   0.00375   2.10360
    A9        2.03007   0.00482   0.00000   0.00373   0.00333   2.03340
   A10        1.91119   0.00001   0.00000   0.02205   0.02176   1.93295
   A11        1.93444  -0.00021   0.00000  -0.00255  -0.00257   1.93187
   A12        1.93978  -0.00101   0.00000  -0.00729  -0.00731   1.93247
   A13        1.89961  -0.00228   0.00000  -0.01285  -0.01289   1.88672
   A14        1.89445   0.00116   0.00000   0.00723   0.00723   1.90167
   A15        1.89379   0.00098   0.00000   0.00603   0.00600   1.89979
   A16        1.90096   0.00144   0.00000   0.01005   0.01000   1.91096
   A17        2.04354   0.00088   0.00000   0.00412   0.00412   2.04766
   A18        1.87857   0.00301   0.00000   0.02302   0.02284   1.90142
   A19        1.94097   0.00006   0.00000   0.00671   0.00665   1.94761
   A20        1.88316   0.00391   0.00000   0.01761   0.01744   1.90060
   A21        1.93110  -0.00227   0.00000  -0.02087  -0.02094   1.91017
   A22        1.91243  -0.00244   0.00000  -0.01102  -0.01131   1.90113
   A23        1.91655  -0.00208   0.00000  -0.01409  -0.01416   1.90239
   A24        1.81988   0.00356   0.00000   0.00785   0.00783   1.82771
   A25        1.93234   0.00047   0.00000   0.00388   0.00386   1.93620
   A26        1.92713   0.00294   0.00000   0.00800   0.00798   1.93511
   A27        1.93631  -0.00136   0.00000  -0.00141  -0.00144   1.93487
   A28        1.92806  -0.00321   0.00000  -0.00794  -0.00797   1.92009
   A29        1.91837  -0.00211   0.00000  -0.00941  -0.00943   1.90895
    D1        0.28188  -0.00140   0.00000  -0.04492  -0.04492   0.23696
    D2        1.78505   0.00016   0.00000  -0.26138  -0.26129   1.52376
    D3       -2.12270   0.00061   0.00000  -0.21218  -0.21227  -2.33497
    D4       -0.15061  -0.00492   0.00000   0.23015   0.22979   0.07918
    D5        1.76680  -0.00001   0.00000   0.23175   0.23211   1.99891
    D6       -0.02388  -0.00639   0.00000  -0.14368  -0.14380  -0.16768
    D7       -1.99233  -0.00160   0.00000  -0.10988  -0.10977  -2.10209
    D8       -2.90252  -0.00363   0.00000   0.01810   0.01825  -2.88427
    D9       -0.78466  -0.00444   0.00000   0.01136   0.01141  -0.77325
   D10        1.31822  -0.00446   0.00000   0.00934   0.00931   1.32752
   D11       -1.22946   0.00466   0.00000  -0.02056  -0.02052  -1.24998
   D12        0.88840   0.00385   0.00000  -0.02730  -0.02736   0.86104
   D13        2.99128   0.00383   0.00000  -0.02932  -0.02947   2.96181
   D14        2.08867  -0.00486   0.00000  -0.13757  -0.13757   1.95110
   D15       -1.43720   0.00290   0.00000   0.07617   0.07624  -1.36096
   D16        2.73767   0.00225   0.00000   0.07365   0.07374   2.81142
   D17        0.64419   0.00254   0.00000   0.07398   0.07405   0.71824
   D18        2.42435   0.00040   0.00000   0.03657   0.03648   2.46083
   D19        0.31604  -0.00025   0.00000   0.03404   0.03398   0.35002
   D20       -1.77744   0.00005   0.00000   0.03437   0.03429  -1.74316
   D21        0.21081   0.00279   0.00000   0.04936   0.04926   0.26008
   D22        2.66438   0.00095   0.00000   0.08693   0.08702   2.75140
   D23       -2.83727  -0.00087   0.00000  -0.05549  -0.05549  -2.89276
   D24       -0.75382  -0.00020   0.00000  -0.05067  -0.05066  -0.80448
   D25        1.37479  -0.00056   0.00000  -0.05453  -0.05454   1.32025
         Item               Value     Threshold  Converged?
 Maximum Force            0.028334     0.000450     NO 
 RMS     Force            0.005170     0.000300     NO 
 Maximum Displacement     0.614892     0.001800     NO 
 RMS     Displacement     0.236350     0.001200     NO 
 Predicted change in Energy=-6.737536D-03
 GradGradGradGradGradGradGradGradGradGradGradGradGradGradGradGradGradGrad

                          Input orientation:                          
 ---------------------------------------------------------------------
 Center     Atomic      Atomic             Coordinates (Angstroms)
 Number     Number       Type             X           Y           Z
 ---------------------------------------------------------------------
      1          8           0        0.057602    0.114266   -1.059731
      2          8           0       -1.924831   -0.826130   -0.170950
      3          1           0       -1.042361   -0.334564   -0.793930
      4          1           0       -1.182826   -0.777927    0.767182
      5          8           0       -0.082032   -0.594364    1.310703
      6          1           0       -0.042898    0.183202    1.879235
      7          6           0        0.948520   -0.178299   -0.181693
      8          6           0        1.723016   -1.467996   -0.277024
      9          1           0        1.121065   -2.304992    0.073334
     10          1           0        2.634653   -1.414848    0.316551
     11          1           0        1.980059   -1.632738   -1.325681
     12          8           0        1.755769    0.840634    0.228843
     13          6           0       -2.998562    0.098808    0.006828
     14          1           0       -3.663460   -0.275815    0.787540
     15          1           0       -2.632139    1.093263    0.285896
     16          1           0       -3.557717    0.175405   -0.927881
     17          6           0        1.342713    2.176929   -0.089329
     18          1           0        2.225275    2.788948    0.088333
     19          1           0        1.023840    2.248685   -1.127781
     20          1           0        0.526964    2.498322    0.563553
 ---------------------------------------------------------------------
                    Distance matrix (angstroms):
                    1          2          3          4          5
     1  O    0.000000
     2  O    2.367344   0.000000
     3  H    1.217382   1.186799   0.000000
     4  H    2.381655   1.197074   1.628917   0.000000
     5  O    2.478026   2.375904   2.327920   1.241313   0.000000
     6  H    2.941492   2.960351   2.900486   1.860071   0.964037
     7  C    1.284632   2.945496   2.088747   2.408849   1.860751
     8  C    2.426888   3.705406   3.033014   3.163934   2.557794
     9  H    2.875343   3.394729   3.052073   2.849783   2.429973
    10  H    3.297503   4.623109   3.990064   3.896393   3.006976
    11  H    2.611243   4.151166   3.332123   3.887752   3.504420
    12  O    2.252067   4.060142   3.202606   3.397777   2.570438
    13  C    3.236963   1.428291   2.157718   2.154925   3.269056
    14  H    4.172634   2.060190   3.061805   2.531023   3.633428
    15  H    3.162887   2.095964   2.394182   2.415264   3.225115
    16  H    3.618240   2.059693   2.570025   3.069559   4.205258
    17  C    2.616824   4.438679   3.534493   3.980343   3.416146
    18  H    3.629157   5.509936   4.605666   4.979818   4.273717
    19  H    2.343927   4.366312   3.324729   4.197695   3.905393
    20  H    2.922170   4.195566   3.511521   3.701169   3.239416
                    6          7          8          9         10
     6  H    0.000000
     7  C    2.315387   0.000000
     8  C    3.239500   1.507399   0.000000
     9  H    3.287430   2.148868   1.088880   0.000000
    10  H    3.487839   2.149498   1.089145   1.772699   0.000000
    11  H    4.202556   2.118531   1.092196   1.773990   1.781262
    12  O    2.528085   1.363237   2.363630   3.212787   2.422257
    13  C    3.499854   3.961286   4.982846   4.770116   5.841249
    14  H    3.809325   4.713733   5.618604   5.245886   6.417589
    15  H    3.173501   3.828398   5.083729   5.067530   5.833580
    16  H    4.498213   4.581275   5.568710   5.389416   6.513291
    17  C    3.125717   2.389773   3.669514   4.490345   3.838581
    18  H    3.891253   3.241539   4.302014   5.212268   4.229843
    19  H    3.800829   2.605956   3.876384   4.710426   4.254678
    20  H    2.723150   2.810231   4.227149   4.864679   4.451546
                   11         12         13         14         15
    11  H    0.000000
    12  O    2.929918   0.000000
    13  C    5.436957   4.816976   0.000000
    14  H    6.177074   5.561172   1.091761   0.000000
    15  H    5.594697   4.395544   1.095941   1.785957   0.000000
    16  H    5.839057   5.478474   1.091880   1.776922   1.781127
    17  C    4.055655   1.434409   4.813991   5.643281   4.136977
    18  H    4.648750   2.009006   5.876391   6.675242   5.148674
    19  H    4.002370   2.087763   4.699897   5.657945   4.086523
    20  H    4.769313   2.090436   4.300808   5.030472   3.468604
                   16         17         18         19         20
    16  H    0.000000
    17  C    5.359430   0.000000
    18  H    6.426997   1.088598   0.000000
    19  H    5.032804   1.088675   1.792837   0.000000
    20  H    4.930004   1.093159   1.787333   1.780398   0.000000
 Stoichiometry    C4H12O4
 Framework group  C1[X(C4H12O4)]
 Deg. of freedom    54
 Full point group                 C1      NOp   1
 Largest Abelian subgroup         C1      NOp   1
 Largest concise Abelian subgroup C1      NOp   1
                         Standard orientation:                         
 ---------------------------------------------------------------------
 Center     Atomic      Atomic             Coordinates (Angstroms)
 Number     Number       Type             X           Y           Z
 ---------------------------------------------------------------------
      1          8           0        0.067072    0.111597   -1.052371
      2          8           0       -2.082657   -0.439921   -0.228472
      3          1           0       -1.106195   -0.114686   -0.819434
      4          1           0       -1.366169   -0.577369    0.720601
      5          8           0       -0.262707   -0.640520    1.285616
      6          1           0       -0.079493    0.091641    1.885400
      7          6           0        0.861884   -0.387272   -0.175054
      8          6           0        1.362045   -1.802679   -0.311844
      9          1           0        0.596321   -2.512748   -0.003417
     10          1           0        2.252911   -1.956995    0.295429
     11          1           0        1.602645   -1.977484   -1.362772
     12          8           0        1.849278    0.431380    0.286765
     13          6           0       -2.951174    0.676088   -0.027935
     14          1           0       -3.694323    0.415464    0.728205
     15          1           0       -2.397599    1.564852    0.295702
     16          1           0       -3.463505    0.898523   -0.966147
     17          6           0        1.721176    1.834375    0.017090
     18          1           0        2.705126    2.248110    0.230893
     19          1           0        1.445344    2.007230   -1.021779
     20          1           0        0.973456    2.290103    0.671478
 ---------------------------------------------------------------------
 Rotational constants (GHZ):      2.6678632      1.2402258      1.0493197
 Standard basis: def2TZVP (5D, 7F)
 There are   360 symmetry adapted cartesian basis functions of A   symmetry.
[...]
 0,0.02846555,-0.01161708,-0.00185081,-0.00072284,-0.00004025,0.0021883
 1,0.00122110,-0.00143953,0.00120221,0.00115984,0.00118219,-0.00998236,
 0.00965870,0.01264227,-0.00177733,-0.00074376,0.00195694,-0.10057507,0
 .05485090,-0.01123831,0.56493505,0.01080701,0.00219215,0.00420321,0.00
 004377,-0.00016892,-0.00088344,-0.00053443,-0.00037924,0.00046201,0.00
 107741,0.00061578,0.00082899,0.00160527,-0.00051043,-0.00227362,-0.000
 14333,-0.00025502,0.00052765,0.04710374,-0.17448042,0.00366314,0.05425
 449,0.51616601,-0.02844635,0.02344739,-0.00182583,0.00084400,-0.000228
 76,0.00343026,0.00245458,0.00235726,-0.00276943,-0.00346902,-0.0010908
 2,-0.00356556,0.01848537,-0.01486501,-0.01829362,0.00368102,0.00002938
 ,-0.00276878,-0.00635882,-0.00094110,-0.06314583,0.02182547,-0.0084603
 8,0.57775067,0.00049256,-0.00105679,0.00075174,0.00001698,-0.00025128,
 0.00016983,0.00024550,0.00056826,-0.00030576,-0.00002855,0.00027659,0.
 00014577,0.00050413,0.00071256,-0.00034962,-0.00011187,0.00012601,-0.0
 0015424,0.01019525,0.01173867,-0.00132633,-0.17001889,-0.13783150,0.01
 576660,0.18085235,0.00105946,0.00337844,-0.00072338,-0.00018558,0.0003
 8065,-0.00013959,0.00023418,-0.00090413,0.00025428,0.00042140,-0.00049
 649,-0.00029712,0.00061482,0.00147027,0.00053557,-0.00040923,0.0003751
 7,0.00042279,-0.02427125,-0.02038464,0.00209826,-0.13109954,-0.1969934
 3,0.01952017,0.14543945,0.21502505,-0.00069530,-0.00022023,-0.00063408
 ,-0.00026660,-0.00010088,-0.00022400,-0.00001407,0.00047132,0.00025326
 ,0.00052254,-0.00023622,0.00026166,-0.00011456,-0.00017177,-0.00055394
 ,-0.00005960,0.00019666,-0.00002070,0.00090690,-0.00145344,-0.00222140
 ,0.01596339,0.02082593,-0.04778901,-0.01897839,-0.02107655,0.04775497,
 -0.00164820,0.00481437,-0.00042062,0.00001130,0.00009977,0.00080866,0.
 00120556,0.00006505,-0.00074978,-0.00077278,-0.00033806,-0.00078375,0.
 00136441,-0.00036869,0.00137357,-0.00010715,-0.00004142,0.00005921,-0.
 01226410,-0.00265702,-0.01353166,-0.16214427,0.00593466,-0.13478109,-0
 .01240257,0.00206393,-0.01479697,0.17370127,0.00667741,-0.00587798,0.0
 0116528,0.00029534,0.00028133,-0.00078404,-0.00128277,-0.00099403,0.00
 087376,0.00039796,0.00008551,0.00045109,-0.00126543,-0.00018687,-0.000
 20430,0.00026351,-0.00003688,-0.00001734,0.01747732,0.00367691,0.02403
 963,0.00210349,-0.04917115,0.00258680,-0.01441136,0.00224181,-0.019114
 66,-0.00696815,0.04983680,-0.00011876,-0.00026993,0.00206671,-0.000251
 02,-0.00009608,0.00029339,0.00041090,0.00038816,-0.00026879,-0.0001041
 7,-0.00008111,-0.00017455,0.00108991,-0.00027840,0.00038561,-0.0000087
 2,-0.00002654,0.00010988,0.00109471,-0.00158689,-0.00235365,-0.1381658
 2,0.00746194,-0.20563405,0.00357128,-0.00096083,0.00331683,0.14926699,
 -0.00574152,0.22014037,0.00119838,0.00002013,-0.00223984,-0.00038796,0
 .00002255,-0.00056792,-0.00015323,-0.00020034,0.00055326,0.00091619,0.
 00005912,0.00052990,-0.00024345,0.00265502,0.00153232,-0.00097284,-0.0
 0001271,0.00057922,-0.00944089,-0.00014621,0.01493066,-0.10868834,0.01
 405319,0.10898967,-0.00978606,0.00354213,0.01736593,0.01232578,-0.0026
 3669,-0.01778210,0.11486572,-0.00233516,0.00038573,0.00129050,0.000451
 56,0.00013441,0.00079817,0.00019064,0.00026070,-0.00036739,-0.00102788
 ,-0.00061087,-0.00104327,0.00329386,-0.00209946,-0.00256754,0.00079487
 ,0.00040471,-0.00056022,0.01364567,-0.00327493,-0.02570431,0.01354347,
 -0.05061347,-0.02147492,-0.01051616,0.00384137,0.02156174,-0.00116133,
 -0.00093731,0.00116115,-0.01654210,0.05185821,-0.00077196,-0.00006296,
 0.00088901,0.00012932,-0.00005561,0.00064721,0.00061711,0.00035892,-0.
 00028828,-0.00074381,-0.00027484,-0.00065014,0.00068617,-0.00094145,0.
 00133618,0.00028950,0.00001215,0.00010110,0.00056687,0.00046235,-0.003
 48966,0.10992733,-0.02234082,-0.24338352,0.00033793,0.00024758,-0.0017
 4534,0.01248177,-0.00214829,-0.01848338,-0.12288072,0.02522438,0.26404
 565,-0.05887234,-0.03693795,-0.02883604,-0.00790939,-0.00146368,0.0021
 8897,0.00931712,0.00176279,-0.00876766,0.00381305,0.00096364,0.0037999
 8,-0.02088379,-0.01530599,0.02004431,-0.00132209,-0.00174652,-0.000851
 43,-0.13951636,-0.04412577,-0.03998483,0.00874570,0.00531737,0.0025993
 7,-0.00035147,0.00284957,0.00015187,0.00062016,-0.00054675,0.00074870,
 0.00023086,0.00001959,-0.00057291,0.30570141,-0.03973784,0.00876242,-0
 .01708505,-0.01025426,-0.00123015,0.00092291,0.01075996,0.00259236,-0.
 00468354,0.00516282,0.00100158,0.00443226,-0.02002813,-0.00455153,0.01
 513361,-0.00199751,-0.00200441,0.00085647,-0.05282604,-0.19476305,-0.0
 1992472,-0.02732503,-0.04624474,-0.00068325,0.00425856,-0.00718380,-0.
 00036525,-0.00161513,0.00054994,-0.00007844,-0.00105112,0.00084178,-0.
 00022675,0.04728396,0.48941484,-0.05318484,-0.02416031,0.00017645,-0.0
 0366611,-0.00126123,0.01001197,0.01271586,0.00391851,-0.01005684,-0.00
 779677,-0.00109480,-0.00758171,0.02295619,0.01712536,-0.00342954,-0.00
 281176,0.00044184,0.00343958,-0.01419136,0.00219231,-0.07145821,0.0016
 3375,-0.00132668,0.00535480,0.00002360,0.00098500,0.00120276,0.0007227
 8,-0.00099524,0.00055329,-0.00084689,0.00094717,0.00090752,0.07503711,
 -0.03812331,0.13375186,0.01030941,0.00101564,-0.00096262,-0.16318601,0
 .06561654,0.00270185,-0.02283507,0.00483924,0.00717764,-0.02401618,0.0
 0954519,-0.00397983,0.00835430,-0.00055593,0.00147789,-0.00017616,0.00
 012397,-0.00051974,-0.00596639,-0.00101020,-0.00147569,0.00033620,-0.0
 0020557,-0.00003058,-0.00021084,0.00034587,0.00006225,0.00010472,-0.00
 004913,0.00006653,0.00017068,-0.00006676,-0.00006969,0.00228929,0.0032
 9180,0.00047019,0.50412702,-0.01352794,-0.00469498,0.00408965,0.077689
 35,-0.12745980,-0.00378621,0.01203122,0.00937438,-0.01218716,0.0109937
 1,0.00465281,0.01138860,-0.00979455,-0.00303361,-0.00488706,-0.0015495
 4,0.00031598,-0.00037841,0.00545063,0.00082046,0.00244334,-0.00019895,
 -0.00009776,0.00015463,0.00007853,-0.00011716,-0.00004375,-0.00001659,
 0.00003875,-0.00007906,-0.00007137,0.00010193,0.00004256,-0.00196173,-
 0.00335525,-0.00086901,0.05995870,0.51901538,0.00682173,0.00390298,-0.
 00157584,0.00604705,-0.00551584,-0.08901505,0.00311005,-0.01566891,0.0
 0660149,-0.00301748,0.01769251,0.01120624,-0.00644916,-0.00448303,-0.0
 0346948,-0.00158709,-0.00015812,-0.00022074,-0.00085855,0.00070015,-0.
 00441094,-0.00000049,-0.00000644,0.00018950,-0.00002780,-0.00003364,-0
 .00003872,0.00007926,-0.00003669,-0.00000237,-0.00006052,0.00000511,0.
 00004893,0.00019762,0.00020527,0.00097193,0.00701188,-0.00461504,0.589
 87487,-0.00061440,-0.00023520,0.00101597,-0.03020322,0.00512266,-0.024
 55205,0.00120231,0.00031797,-0.00198383,0.00416198,0.00422654,0.005110
 81,-0.00342394,-0.00161562,-0.00140693,-0.00057955,0.00000741,0.000025
 26,0.00079448,0.00021769,-0.00125866,-0.00003371,-0.00000950,0.0001431
 8,0.00002354,-0.00004630,-0.00003665,0.00002074,-0.00001379,-0.0000042
 4,-0.00005811,0.00003388,0.00003016,-0.00029287,-0.00041816,0.00015889
 ,-0.11919808,-0.02456334,-0.11012558,0.14059562,0.00027892,0.00007655,
 -0.00013912,0.02233458,0.00130049,0.02092919,-0.00090952,0.00008276,0.
 00044009,-0.00212519,-0.00298604,-0.00313587,0.00236657,0.00120851,0.0
 0121738,0.00059301,-0.00001796,0.00014431,-0.00041139,-0.00019069,0.00
 041589,0.00004267,0.00001298,-0.00004630,-0.00000772,0.00002201,0.0000
 2016,-0.00000741,-0.00000401,0.00000426,0.00002199,-0.00001150,-0.0000
 1468,0.00016770,0.00029122,-0.00003994,-0.02818823,-0.05727463,-0.0395
 6026,0.01752715,0.05903602,-0.00077791,-0.00021818,0.00008585,-0.00047
 708,0.00287211,0.00869630,0.00108849,0.00073852,-0.00028781,0.00164888
 ,-0.00021460,0.00084784,-0.00030680,0.00003574,0.00010861,0.00012552,0
 .00004360,-0.00000458,0.00048293,0.00002194,-0.00001440,-0.00003964,0.
 00001251,0.00001770,0.00001196,-0.00001966,-0.00000297,-0.00000771,0.0
 0000665,-0.00000407,-0.00001519,0.00001064,0.00000765,-0.00021101,-0.0
 0023330,-0.00003664,-0.11679675,-0.03494868,-0.23274727,0.12823266,0.0
 3749664,0.24395866,-0.00485270,-0.00165575,0.00076404,-0.02984464,0.00
 269056,0.02527245,0.00453840,0.00464097,-0.00446298,0.00124403,-0.0000
 6756,0.00196402,-0.00032494,-0.00005509,-0.00127105,-0.00019556,-0.000
 02895,0.00010414,0.00157503,-0.00027291,0.00244163,-0.00005853,0.00003
 277,-0.00009903,0.00003030,-0.00003696,0.00001181,-0.00005353,0.000034
 39,-0.00002011,-0.00000065,0.00000025,-0.00001387,-0.00046564,-0.00055
 338,-0.00054288,-0.11464800,-0.03701246,0.10339795,0.01138500,0.004476
 42,-0.01349230,0.13520570,0.00303647,0.00136682,-0.00085983,0.02174724
 ,0.00415744,-0.02169695,-0.00228782,-0.00335599,0.00264890,-0.00080290
 ,0.00029987,-0.00035321,0.00012887,-0.00001965,0.00012698,-0.00002620,
 -0.00005464,0.00007613,-0.00077166,0.00004291,-0.00102592,0.00001572,0
 .00001273,-0.00001355,-0.00001388,0.00001654,-0.00000518,0.00001172,-0
 .00000431,0.00000862,0.00000494,-0.00001373,0.00000500,0.00027688,0.00
 047965,0.00027510,-0.04066456,-0.06932581,0.05980308,0.00269396,0.0022
 6029,-0.00549825,0.03200376,0.07093728,0.00095328,0.00014270,-0.000092
 00,0.00440361,-0.00370631,0.00531547,-0.00196073,-0.00041744,0.0012295
 6,-0.00130299,-0.00073019,-0.00041248,0.00063592,0.00020561,0.00017702
 ,0.00008007,0.00001894,-0.00003745,-0.00068058,-0.00006468,-0.00024397
 ,0.00006331,-0.00001840,-0.00002446,-0.00001225,0.00002590,0.00000467,
 0.00001439,-0.00000878,0.00001033,0.00001284,-0.00001452,-0.00000383,0
 .00025266,0.00029548,0.00007462,0.10876461,0.05553534,-0.22329194,0.01
 349552,0.00836004,-0.02070597,-0.12238816,-0.05901759,0.23499087,-0.00
 007082,-0.00050299,-0.00017470,-0.00076461,0.03830653,0.00255833,0.002
 29629,0.00119462,-0.00095210,0.00247751,0.00092518,0.00105152,-0.00004
 095,-0.00054043,0.00024927,-0.00020401,-0.00003406,-0.00015891,-0.0000
 5575,0.00027207,-0.00008345,0.00001122,0.00005825,0.00004155,0.0000389
 4,-0.00007606,0.00000047,-0.00001923,-0.00002084,0.00001140,-0.0000249
 0,-0.00000673,0.00000242,-0.00003416,-0.00023334,-0.00003220,-0.075737
 78,-0.07692553,-0.00452307,-0.00374245,-0.01621187,0.00054369,-0.00353
 088,-0.01546630,-0.00233248,0.07952406,0.00250506,0.00120129,-0.000685
 46,0.01450429,-0.02294525,-0.00168669,-0.00397651,-0.00180540,0.002974
 03,-0.00383450,-0.00106299,-0.00308653,0.00197517,0.00084317,0.0010126
 2,0.00051423,-0.00004233,0.00016225,-0.00091660,-0.00043595,-0.0005054
 7,-0.00005204,-0.00003985,-0.00001434,-0.00005088,0.00008223,0.0000079
 3,0.00000855,0.00002053,0.00000795,0.00002393,0.00000901,-0.00000901,0
 .00036726,0.00081209,0.00016112,-0.07257606,-0.27042395,-0.01216661,-0
 .00342319,-0.00367119,-0.00020568,-0.00446900,-0.00660537,-0.00048188,
 0.06921998,0.30436580,-0.00068943,0.00032205,-0.00045521,0.00112038,-0
 .00217667,0.00314300,0.00014281,-0.00080883,0.00012608,-0.00069513,0.0
 0067974,-0.00025500,0.00095303,-0.00021290,-0.00028223,-0.00020409,0.0
 0001887,-0.00002567,0.00005221,-0.00015396,0.00119724,-0.00001388,0.00
 002119,-0.00011348,-0.00001058,0.00001543,0.00000084,-0.00002082,0.000
 03243,-0.00001007,0.00001594,-0.00002268,-0.00001737,0.00001218,0.0001
 0328,-0.00016482,-0.00413219,-0.01160497,-0.05409930,-0.00876626,-0.02
 609632,0.00010495,0.00834744,0.02546921,0.00300273,0.00382324,0.014455
 28,0.04777311,-0.00543091,-0.00259094,-0.00005654,-0.00150240,-0.00002
 282,0.00017253,0.00136808,0.00001547,-0.00079172,0.00061674,-0.0002065
 6,0.00067982,-0.00256758,-0.00066238,-0.00002341,0.00074197,-0.0010740
 5,0.00043067,0.01783723,-0.02079492,0.00986550,-0.00167247,-0.00228404
 ,-0.00139952,0.00060988,-0.00076949,-0.00007278,0.00001880,0.00000318,
 0.00011450,-0.00000677,-0.00023720,-0.00000691,-0.10442233,0.05090588,
 -0.02216160,0.00044296,-0.00079696,0.00002324,-0.00002466,0.00011303,-
 0.00000362,-0.00006114,0.00012126,0.00002321,-0.00013969,0.00024684,0.
 00000859,0.58611307,0.01513040,0.00053555,0.00621459,0.00543112,0.0006
 1932,-0.00064416,-0.00495052,-0.00152872,0.00303057,-0.00303893,-0.000
 47260,-0.00217803,0.00791334,0.00317709,-0.00370161,-0.00183594,0.0010
 5914,0.00120364,-0.01713581,-0.06237032,0.00133768,-0.00308330,0.00143
 066,-0.00014586,0.00071237,0.00010644,-0.00025139,0.00037338,0.0001382
 8,0.00025929,0.00029982,-0.00022009,-0.00028884,0.02747007,-0.16478505
 ,0.02427079,-0.00164839,0.00190851,-0.00003489,0.00019698,-0.00020709,
 0.00010691,0.00026991,-0.00026345,-0.00014010,0.00016203,-0.00047994,-
 0.00005363,0.06077601,0.46523679,-0.00029357,-0.00003981,-0.00526033,-
 0.00066641,-0.00008144,-0.00064823,-0.00000894,-0.00013323,0.00058444,
 0.00110444,0.00036089,0.00065491,-0.00068914,-0.00050715,-0.00006211,0
 .00049994,0.00073700,-0.00102376,0.00831104,-0.00221796,0.00248050,-0.
 00322940,-0.00310724,0.00277390,0.00039727,-0.00104903,0.00041715,0.00
 022654,-0.00004345,0.00002009,-0.00014135,0.00074076,0.00011115,-0.019
 39254,0.03633857,-0.07268988,0.00024333,0.00002362,0.00001260,-0.00011
 097,-0.00006162,-0.00003763,-0.00003018,0.00000659,0.00000209,0.000067
 29,-0.00002746,0.00006017,0.00085156,0.03484600,0.57600423,0.00065435,
 -0.00189389,0.00053157,-0.00020212,-0.00007749,0.00014449,0.00039261,0
 .00019843,-0.00014803,0.00002094,0.00011621,-0.00009049,0.00024776,-0.
 00023630,0.00023217,-0.00016394,0.00008931,-0.00029389,-0.00196644,0.0
 0310035,-0.00151257,0.00047225,0.00026224,0.00009303,-0.00007055,0.000
 16342,-0.00000796,0.00003228,-0.00003672,-0.00000059,0.00000052,0.0000
 0189,0.00001289,0.01200796,0.01283633,0.00245273,0.00009120,0.00007586
 ,0.00001739,-0.00001246,-0.00001749,-0.00001284,-0.00003100,-0.0000252
 9,0.00001649,0.00003594,-0.00004704,-0.00002112,-0.21567072,-0.1314565
 0,-0.04492768,0.22531360,-0.00059913,0.00124064,-0.00013071,-0.0004086
 5,-0.00003557,0.00000956,0.00034217,0.00013170,-0.00018866,0.00028897,
 0.00003786,0.00019692,-0.00055194,-0.00005640,0.00031493,-0.00000450,-
 0.00010056,-0.00002235,0.00587577,-0.00241288,0.00182768,-0.00121481,-
 0.00087886,-0.00014291,0.00028125,-0.00041437,-0.00002315,-0.00001499,
 0.00005065,0.00002981,0.00000626,-0.00004295,-0.00003735,-0.02382555,-
 0.03675843,-0.00373619,0.00014028,-0.00016023,-0.00000295,-0.00001727,
 0.00001775,-0.00000891,-0.00002020,0.00002119,0.00001260,-0.00002087,0
 .00004207,0.00000848,-0.11949400,-0.13712588,-0.03471801,0.13384658,0.
 16707636,0.00004623,-0.00151641,0.00113096,-0.00021648,0.00000818,0.00
 019267,0.00046367,-0.00002070,-0.00023955,-0.00008287,-0.00006632,-0.0
 0009951,0.00000088,0.00025604,0.00008059,0.00015591,-0.00009173,0.0002
 4193,-0.00216117,0.00135268,-0.00138970,0.00030830,0.00022436,0.000222
 53,-0.00005257,0.00008502,0.00001066,0.00002753,-0.00003550,0.00000620
 ,-0.00002646,0.00003457,-0.00000399,0.00718500,0.00987399,0.00210611,0
 .00004530,-0.00010884,0.00002088,0.00001062,0.00001999,-0.00000165,-0.
 00001216,0.00002115,0.00000899,-0.00001720,0.00003286,-0.00001043,-0.0
 4658650,-0.03868645,-0.06521427,0.05017195,0.03542937,0.06157429,0.000
 30423,-0.00037974,0.00010311,0.00042673,0.00007725,-0.00033947,-0.0007
 1289,-0.00022632,0.00049106,0.00010461,0.00003690,0.00009407,0.0003820
 1,-0.00001647,-0.00028353,-0.00013644,0.00029652,-0.00014223,-0.000773
 72,-0.00215200,0.00058121,-0.00007945,0.00009309,-0.00031795,0.0000047
 9,0.00003028,0.00006133,-0.00000581,0.00004266,0.00002414,0.00002305,0
 .00000749,0.00002394,-0.00289183,0.00792238,-0.01196166,-0.00012951,0.
 00008893,-0.00004147,-0.00001149,-0.00003074,0.00000607,0.00004273,0.0
 0000524,-0.00002619,0.00000500,-0.00001079,0.00006047,-0.06396980,0.00
 152897,-0.05788974,-0.00385770,0.00059512,-0.02385469,0.06481394,-0.00
 228886,-0.00102080,-0.00149586,0.00005925,-0.00000835,-0.00048202,-0.0
 0065771,0.00000668,0.00016313,0.00048092,0.00008896,0.00049273,-0.0013
 8866,-0.00048844,0.00034062,0.00012608,-0.00017636,-0.00008739,0.00664
 214,0.00486120,0.00379772,0.00004692,0.00001014,-0.00068819,-0.0000468
 9,-0.00006776,-0.00008525,-0.00015996,0.00018873,-0.00006304,0.0000596
 0,-0.00021516,-0.00004223,0.01042354,-0.01857070,0.03599092,0.00003813
 ,-0.00001864,-0.00006172,-0.00001867,0.00001206,0.00000108,0.00002371,
 -0.00000742,-0.00000180,-0.00000938,0.00001730,0.00000728,-0.00085547,
 -0.04720948,-0.00278066,-0.00263423,0.00260529,-0.01844563,-0.00698305
 ,0.05770911,0.00149243,-0.00233746,0.00188617,0.00039291,0.00008104,0.
 00015001,-0.00000539,-0.00013841,-0.00006426,-0.00039911,-0.00011861,-
 0.00030988,0.00047910,0.00034369,0.00037342,-0.00014000,-0.00017582,0.
 00022704,-0.00470442,-0.00259489,-0.00213836,0.00025088,0.00023796,-0.
 00003790,-0.00000742,0.00011169,0.00001324,0.00009643,-0.00006743,0.00
 003878,0.00004424,0.00000795,-0.00001826,-0.00313251,0.01163698,-0.002
 14418,-0.00011510,0.00013406,0.00001614,0.00003397,0.00000894,0.000014
 26,0.00000440,-0.00003523,-0.00000078,-0.00000068,-0.00003537,-0.00004
 767,-0.05743661,0.00590095,-0.30363451,-0.00016431,-0.00105843,-0.0033
 3316,0.06728874,-0.01063897,0.32529874,0.00151630,-0.00023613,0.000283
 11,0.00031781,0.00005832,-0.00011801,-0.00042321,-0.00016904,0.0002651
 8,0.00000651,0.00002057,-0.00007080,0.00097763,0.00010416,-0.00073670,
 -0.00004549,0.00040014,-0.00020744,-0.00316182,-0.00362092,-0.00072059
 ,0.00030917,0.00036513,-0.00002149,-0.00003343,0.00012988,-0.00000361,
 0.00001261,-0.00006365,0.00005645,0.00003202,-0.00008984,-0.00004554,-
 0.00576327,0.01361824,0.00102496,-0.00012177,0.00005202,-0.00001494,0.
 00001128,-0.00001248,0.00000065,0.00004600,0.00001256,-0.00001250,-0.0
 0002375,-0.00000869,0.00001722,-0.21228024,0.04288499,0.11567852,-0.01
 729447,0.00479552,0.01459472,0.00646153,-0.00285742,-0.00397756,0.2294
 5661,-0.00214606,-0.00001584,-0.00076711,-0.00034054,0.00000602,0.0001
 6825,0.00048844,-0.00011739,-0.00036165,-0.00008577,-0.00014531,0.0000
 7948,-0.00153548,0.00109883,0.00133151,0.00006643,-0.00083923,0.000999
 70,0.00859269,0.00441294,-0.00169016,-0.00092257,-0.00060717,0.0006997
 9,-0.00000579,-0.00037819,0.00006398,-0.00002268,0.00010330,-0.0000593
 2,-0.00010815,0.00020164,0.00008988,0.02901156,-0.02529874,-0.01470142
 ,0.00004945,-0.00026639,0.00003503,0.00001681,0.00004249,0.00000093,-0
 .00000048,0.00005564,0.00000510,-0.00009027,0.00011871,-0.00000326,0.0
 3760717,-0.05954918,-0.02828637,-0.01426567,0.00676260,0.01163338,-0.0
 0092572,0.00228363,-0.00126262,-0.05538335,0.07213165,-0.00088316,0.00
 127842,0.00017455,-0.00030814,0.00007854,-0.00028851,-0.00008699,-0.00
 016032,0.00007667,0.00052195,-0.00002434,0.00044751,-0.00085466,-0.000
 38288,-0.00017528,0.00034635,0.00030716,-0.00015778,0.00170480,0.00015
 002,0.00158947,0.00003055,-0.00005188,-0.00038788,0.00004899,-0.000001
 87,-0.00000589,-0.00006472,0.00004160,-0.00001056,0.00000702,-0.000027
 26,-0.00001061,-0.01046885,0.00160479,0.00901093,0.00006069,-0.0003036
 2,-0.00007092,-0.00001185,0.00003723,0.00000116,0.00002484,0.00006496,
 -0.00000348,-0.00007439,0.00009047,0.00007313,0.11636958,-0.03104547,-
 0.13455051,-0.00649322,0.00224027,0.00469646,0.02612279,-0.00592071,-0
 .01628881,-0.12599160,0.03202490,0.13588035\\-0.00000796,-0.00001350,-
 0.00001167,0.00000858,0.00000018,-0.00000310,-0.00000077,0.00001081,0.
 00000672,0.00000132,0.00000752,0.00000418,-0.00001052,-0.00000837,0.00
 001419,0.00000033,0.00000134,0.00000172,0.00000584,0.00000830,0.000005
 18,0.00000187,-0.00000183,0.00000104,0.00000050,-0.00000007,0.00000021
 ,-0.00000135,0.00000020,0.00000370,0.00000343,-0.00000018,0.00000346,0
 .00000773,0.00000253,-0.00001317,-0.00000684,-0.00000457,-0.00000306,-
 0.00000037,-0.00000215,-0.00000007,0.00000135,0.00000042,0.00000035,-0
 .00000053,-0.00000059,-0.00000252,-0.00000061,-0.00000004,0.00000045,-
 0.00000110,0.00000086,-0.00000211,0.00000032,-0.00000123,-0.00000236,-
 0.00000122,0.00000038,-0.00000315\\\@


 THE PROGRESS OF RIVERS TO THE SEA IS NOT AS RAPID
 AS THAT OF MAN TO ERROR.
                                              -- VOLTAIRE
 Job cpu time:       0 days  2 hours  8 minutes  6.4 seconds.
 File lengths (MBytes):  RWF=    166 Int=      0 D2E=      0 Chk=      9 Scr=      1
 Normal termination of Gaussian 09 at Fri Jun  5 18:35:18 2015.
