 Entering Gaussian System, Link 0=g09
 Initial command:
 /opt/gridware/applications/gaussian/g09/l1.exe "/lustre/SCRATCH5/gau/mlawal/918252.sched01/Gau-32686.inp" -scrdir="/lustre/SCRATCH5/gau/mlawal/918252.sched01/"
 Entering Link 1 = /opt/gridware/applications/gaussian/g09/l1.exe PID=     32687.
  
 Copyright (c) 1988,1990,1992,1993,1995,1998,2003,2009,2013,
            Gaussian, Inc.  All Rights Reserved.
  
 This is part of the Gaussian(R) 09 program.  It is based on
 the Gaussian(R) 03 system (copyright 2003, Gaussian, Inc.),
 the Gaussian(R) 98 system (copyright 1998, Gaussian, Inc.),
 the Gaussian(R) 94 system (copyright 1995, Gaussian, Inc.),
 the Gaussian 92(TM) system (copyright 1992, Gaussian, Inc.),
 the Gaussian 90(TM) system (copyright 1990, Gaussian, Inc.),
 the Gaussian 88(TM) system (copyright 1988, Gaussian, Inc.),
 the Gaussian 86(TM) system (copyright 1986, Carnegie Mellon
 University), and the Gaussian 82(TM) system (copyright 1983,
 Carnegie Mellon University). Gaussian is a federally registered
 trademark of Gaussian, Inc.
  
 This software contains proprietary and confidential information,
 including trade secrets, belonging to Gaussian, Inc.
  
 This software is provided under written license and may be
 used, copied, transmitted, or stored only in accord with that
 written license.
  
 The following legend is applicable only to US Government
 contracts under FAR:
  
                    RESTRICTED RIGHTS LEGEND
  
 Use, reproduction and disclosure by the US Government is
 subject to restrictions as set forth in subparagraphs (a)
 and (c) of the Commercial Computer Software - Restricted
 Rights clause in FAR 52.227-19.
  
 Gaussian, Inc.
 340 Quinnipiac St., Bldg. 40, Wallingford CT 06492
  
  
 ---------------------------------------------------------------
 Warning -- This program may not be used in any manner that
 competes with the business of Gaussian, Inc. or will provide
 assistance to any competitor of Gaussian, Inc.  The licensee
 of this program is prohibited from giving any competitor of
 Gaussian, Inc. access to this program.  By using this program,
 the user acknowledges that Gaussian, Inc. is engaged in the
 business of creating and licensing software in the field of
 computational chemistry and represents and warrants to the
 licensee that it is not a competitor of Gaussian, Inc. and that
 it will not use this program in any manner prohibited above.
 ---------------------------------------------------------------
  

 Cite this work as:
 Gaussian 09, Revision D.01,
 M. J. Frisch, G. W. Trucks, H. B. Schlegel, G. E. Scuseria, 
 M. A. Robb, J. R. Cheeseman, G. Scalmani, V. Barone, B. Mennucci, 
 G. A. Petersson, H. Nakatsuji, M. Caricato, X. Li, H. P. Hratchian, 
 A. F. Izmaylov, J. Bloino, G. Zheng, J. L. Sonnenberg, M. Hada, 
 M. Ehara, K. Toyota, R. Fukuda, J. Hasegawa, M. Ishida, T. Nakajima, 
 Y. Honda, O. Kitao, H. Nakai, T. Vreven, J. A. Montgomery, Jr., 
 J. E. Peralta, F. Ogliaro, M. Bearpark, J. J. Heyd, E. Brothers, 
 K. N. Kudin, V. N. Staroverov, T. Keith, R. Kobayashi, J. Normand, 
 K. Raghavachari, A. Rendell, J. C. Burant, S. S. Iyengar, J. Tomasi, 
 M. Cossi, N. Rega, J. M. Millam, M. Klene, J. E. Knox, J. B. Cross, 
 V. Bakken, C. Adamo, J. Jaramillo, R. Gomperts, R. E. Stratmann, 
 O. Yazyev, A. J. Austin, R. Cammi, C. Pomelli, J. W. Ochterski, 
 R. L. Martin, K. Morokuma, V. G. Zakrzewski, G. A. Voth, 
 P. Salvador, J. J. Dannenberg, S. Dapprich, A. D. Daniels, 
 O. Farkas, J. B. Foresman, J. V. Ortiz, J. Cioslowski, 
 and D. J. Fox, Gaussian, Inc., Wallingford CT, 2013.
 
 ******************************************
 Gaussian 09:  EM64L-G09RevD.01 24-Apr-2013
                 5-Jun-2015 
 ******************************************
 %nprocshared=8
 Will use up to    8 processors via shared memory.
 %nprocl=1
 Will use up to    1 processors via Linda.
 ----------------------------------------------------------------------
 # opt=(calcfc,ts,noeigentest) freq=noraman b3lyp/def2tzvp geom=connect
 ivity
 ----------------------------------------------------------------------
 1/5=1,10=4,11=1,14=-1,18=20,26=3,38=1,57=2/1,3;
 2/9=110,12=2,17=6,18=5,40=1/2;
 3/5=44,7=101,11=2,16=1,25=1,30=1,71=2,74=-5,140=1/1,2,3;
 4//1;
 5/5=2,38=5/2;
 8/6=4,10=90,11=11/1;
 11/6=1,8=1,9=11,15=111,16=1/1,2,10;
 10/6=1,13=1/2;
 6/7=2,8=2,9=2,10=2,28=1/1;
 7/10=1,18=20,25=1/1,2,3,16;
 1/5=1,10=4,11=1,14=-1,18=20,26=3/3(2);
 2/9=110/2;
 99//99;
 2/9=110/2;
 3/5=44,7=101,11=2,16=1,25=1,30=1,71=1,74=-5/1,2,3;
 4/5=5,16=3,69=1/1;
 5/5=2,38=5/2;
 7//1,2,3,16;
 1/5=1,11=1,14=-1,18=20,26=3/3(-5);
 2/9=110/2;
 6/7=2,8=2,9=2,10=2,19=2,28=1/1;
 99/9=1/99;
 -------
 ts632oh
 -------
 Symbolic Z-matrix:
 Charge =  0 Multiplicity = 1
 O                     0.05413  -0.23955  -1.12049 
 O                    -1.8865    0.43423   0.15929 
 H                    -1.1313    0.33647  -0.74456 
 H                    -1.12018  -0.26603   0.88915 
 O                     0.02476  -0.72233   1.12467 
 H                     0.3594   -0.17505   1.8682 
 C                     0.92424  -0.4183   -0.18687 
 C                     1.8962   -1.56207  -0.2351 
 H                     1.45139  -2.47431   0.18917 
 H                     2.81714  -1.33756   0.32153 
 H                     2.17144  -1.77664  -1.2792 
 O                     1.59136   0.73698   0.30092 
 C                    -3.09412  -0.29684  -0.14702 
 H                    -3.67577  -0.33343   0.78002 
 H                    -3.62731   0.27745  -0.91315 
 H                    -2.85497  -1.30237  -0.50814 
 C                     1.03365   2.0149   -0.07449 
 H                     1.77186   2.7258    0.31143 
 H                     0.95277   2.07626  -1.1662 
 H                     0.05578   2.14852   0.39752 
 
 Add virtual bond connecting atoms H3         and O2         Dist= 2.23D+00.
 Add virtual bond connecting atoms O5         and H4         Dist= 2.37D+00.
 Add virtual bond connecting atoms H4         and O2         Dist= 2.40D+00.
 Add virtual bond connecting atoms H3         and O1         Dist= 2.59D+00.

 GradGradGradGradGradGradGradGradGradGradGradGradGradGradGradGradGradGrad
 Berny optimization.
 Initialization pass.
                           ----------------------------
                           !    Initial Parameters    !
                           ! (Angstroms and Degrees)  !
 --------------------------                            --------------------------
 ! Name  Definition              Value          Derivative Info.                !
 --------------------------------------------------------------------------------
 ! R1    R(1,3)                  1.3705         calculate D2E/DX2 analytically  !
 ! R2    R(1,7)                  1.2887         calculate D2E/DX2 analytically  !
 ! R3    R(2,3)                  1.1819         calculate D2E/DX2 analytically  !
 ! R4    R(2,4)                  1.269          calculate D2E/DX2 analytically  !
 ! R5    R(2,13)                 1.4445         calculate D2E/DX2 analytically  !
 ! R6    R(4,5)                  1.2548         calculate D2E/DX2 analytically  !
 ! R7    R(5,6)                  0.982          calculate D2E/DX2 analytically  !
 ! R8    R(7,8)                  1.5017         calculate D2E/DX2 analytically  !
 ! R9    R(7,12)                 1.4204         calculate D2E/DX2 analytically  !
 ! R10   R(8,9)                  1.1            calculate D2E/DX2 analytically  !
 ! R11   R(8,10)                 1.0993         calculate D2E/DX2 analytically  !
 ! R12   R(8,11)                 1.1009         calculate D2E/DX2 analytically  !
 ! R13   R(12,17)                1.444          calculate D2E/DX2 analytically  !
 ! R14   R(13,14)                1.095          calculate D2E/DX2 analytically  !
 ! R15   R(13,15)                1.0959         calculate D2E/DX2 analytically  !
 ! R16   R(13,16)                1.0948         calculate D2E/DX2 analytically  !
 ! R17   R(17,18)                1.0951         calculate D2E/DX2 analytically  !
 ! R18   R(17,19)                1.0964         calculate D2E/DX2 analytically  !
 ! R19   R(17,20)                1.094          calculate D2E/DX2 analytically  !
 ! A1    A(3,1,7)              116.3323         calculate D2E/DX2 analytically  !
 ! A2    A(3,2,4)               90.4775         calculate D2E/DX2 analytically  !
 ! A3    A(3,2,13)             109.2787         calculate D2E/DX2 analytically  !
 ! A4    A(4,2,13)             110.3367         calculate D2E/DX2 analytically  !
 ! A5    A(1,3,2)              142.8652         calculate D2E/DX2 analytically  !
 ! A6    A(2,4,5)              149.275          calculate D2E/DX2 analytically  !
 ! A7    A(4,5,6)              104.5007         calculate D2E/DX2 analytically  !
 ! A8    A(1,7,8)              121.2902         calculate D2E/DX2 analytically  !
 ! A9    A(1,7,12)             116.9421         calculate D2E/DX2 analytically  !
 ! A10   A(8,7,12)             109.057          calculate D2E/DX2 analytically  !
 ! A11   A(7,8,9)              110.948          calculate D2E/DX2 analytically  !
 ! A12   A(7,8,10)             111.7409         calculate D2E/DX2 analytically  !
 ! A13   A(7,8,11)             109.921          calculate D2E/DX2 analytically  !
 ! A14   A(9,8,10)             108.2305         calculate D2E/DX2 analytically  !
 ! A15   A(9,8,11)             107.7739         calculate D2E/DX2 analytically  !
 ! A16   A(10,8,11)            108.0949         calculate D2E/DX2 analytically  !
 ! A17   A(7,12,17)            116.687          calculate D2E/DX2 analytically  !
 ! A18   A(2,13,14)            106.3467         calculate D2E/DX2 analytically  !
 ! A19   A(2,13,15)            106.844          calculate D2E/DX2 analytically  !
 ! A20   A(2,13,16)            110.6183         calculate D2E/DX2 analytically  !
 ! A21   A(14,13,15)           110.5437         calculate D2E/DX2 analytically  !
 ! A22   A(14,13,16)           111.3813         calculate D2E/DX2 analytically  !
 ! A23   A(15,13,16)           110.9141         calculate D2E/DX2 analytically  !
 ! A24   A(12,17,18)           102.8573         calculate D2E/DX2 analytically  !
 ! A25   A(12,17,19)           109.6871         calculate D2E/DX2 analytically  !
 ! A26   A(12,17,20)           109.9471         calculate D2E/DX2 analytically  !
 ! A27   A(18,17,19)           111.3639         calculate D2E/DX2 analytically  !
 ! A28   A(18,17,20)           111.79           calculate D2E/DX2 analytically  !
 ! A29   A(19,17,20)           110.905          calculate D2E/DX2 analytically  !
 ! D1    D(7,1,3,2)            -30.7952         calculate D2E/DX2 analytically  !
 ! D2    D(3,1,7,8)            149.2699         calculate D2E/DX2 analytically  !
 ! D3    D(3,1,7,12)           -73.2106         calculate D2E/DX2 analytically  !
 ! D4    D(4,2,3,1)              2.4135         calculate D2E/DX2 analytically  !
 ! D5    D(13,2,3,1)          -109.3706         calculate D2E/DX2 analytically  !
 ! D6    D(3,2,4,5)             21.0728         calculate D2E/DX2 analytically  !
 ! D7    D(13,2,4,5)           131.8793         calculate D2E/DX2 analytically  !
 ! D8    D(3,2,13,14)          169.7006         calculate D2E/DX2 analytically  !
 ! D9    D(3,2,13,15)          -72.2068         calculate D2E/DX2 analytically  !
 ! D10   D(3,2,13,16)           48.6172         calculate D2E/DX2 analytically  !
 ! D11   D(4,2,13,14)           71.7074         calculate D2E/DX2 analytically  !
 ! D12   D(4,2,13,15)         -170.2            calculate D2E/DX2 analytically  !
 ! D13   D(4,2,13,16)          -49.376          calculate D2E/DX2 analytically  !
 ! D14   D(2,4,5,6)            103.8593         calculate D2E/DX2 analytically  !
 ! D15   D(1,7,8,9)            -85.3816         calculate D2E/DX2 analytically  !
 ! D16   D(1,7,8,10)           153.7349         calculate D2E/DX2 analytically  !
 ! D17   D(1,7,8,11)            33.7231         calculate D2E/DX2 analytically  !
 ! D18   D(12,7,8,9)           134.1832         calculate D2E/DX2 analytically  !
 ! D19   D(12,7,8,10)           13.2997         calculate D2E/DX2 analytically  !
 ! D20   D(12,7,8,11)         -106.7121         calculate D2E/DX2 analytically  !
 ! D21   D(1,7,12,17)           13.2235         calculate D2E/DX2 analytically  !
 ! D22   D(8,7,12,17)          155.5925         calculate D2E/DX2 analytically  !
 ! D23   D(7,12,17,18)        -173.6018         calculate D2E/DX2 analytically  !
 ! D24   D(7,12,17,19)         -55.0129         calculate D2E/DX2 analytically  !
 ! D25   D(7,12,17,20)          67.1962         calculate D2E/DX2 analytically  !
 --------------------------------------------------------------------------------
 Trust Radius=3.00D-01 FncErr=1.00D-07 GrdErr=1.00D-06
 Number of steps in this run=     83 maximum allowed number of steps=    120.
 Search for a saddle point of order  1.
 GradGradGradGradGradGradGradGradGradGradGradGradGradGradGradGradGradGrad

                          Input orientation:                          
 ---------------------------------------------------------------------
 Center     Atomic      Atomic             Coordinates (Angstroms)
 Number     Number       Type             X           Y           Z
 ---------------------------------------------------------------------
      1          8           0        0.054128   -0.239550   -1.120492
      2          8           0       -1.886503    0.434230    0.159290
      3          1           0       -1.131301    0.336474   -0.744558
      4          1           0       -1.120177   -0.266032    0.889151
      5          8           0        0.024756   -0.722328    1.124673
      6          1           0        0.359402   -0.175045    1.868202
      7          6           0        0.924240   -0.418295   -0.186870
      8          6           0        1.896198   -1.562070   -0.235100
      9          1           0        1.451393   -2.474313    0.189165
     10          1           0        2.817139   -1.337559    0.321532
     11          1           0        2.171444   -1.776636   -1.279196
     12          8           0        1.591360    0.736983    0.300919
     13          6           0       -3.094120   -0.296836   -0.147024
     14          1           0       -3.675768   -0.333425    0.780024
     15          1           0       -3.627305    0.277445   -0.913153
     16          1           0       -2.854967   -1.302368   -0.508136
     17          6           0        1.033649    2.014901   -0.074489
     18          1           0        1.771864    2.725796    0.311430
     19          1           0        0.952767    2.076256   -1.166201
     20          1           0        0.055775    2.148522    0.397521
 ---------------------------------------------------------------------
                    Distance matrix (angstroms):
                    1          2          3          4          5
     1  O    0.000000
     2  O    2.420304   0.000000
     3  H    1.370537   1.181875   0.000000
     4  H    2.327737   1.268984   1.741305   0.000000
     5  O    2.296672   2.433619   2.439581   1.254810   0.000000
     6  H    3.004937   2.887159   3.051289   1.776506   0.982009
     7  C    1.288679   2.957516   2.259633   2.315307   1.619152
     8  C    2.434379   4.295298   3.609677   3.470183   2.460984
     9  H    2.943079   4.427422   3.929716   3.461135   2.445387
    10  H    3.304434   5.028897   4.419176   4.119808   2.970008
    11  H    2.621230   4.839845   3.957170   4.221187   3.390932
    12  O    2.310218   3.493887   2.943860   2.950337   2.293994
    13  C    3.295814   1.444515   2.147274   2.229587   3.394944
    14  H    4.187230   2.043545   3.040958   2.558808   3.736831
    15  H    3.723335   2.050636   2.502388   3.135181   4.299980
    16  H    3.157118   2.097416   2.390130   2.456807   3.360851
    17  C    2.671354   3.328733   2.820127   3.281802   3.154089
    18  H    3.714067   4.319499   3.905424   4.201035   3.950102
    19  H    2.484472   3.537602   2.747356   3.742710   3.733816
    20  H    2.829709   2.601537   2.448880   2.730318   2.961670
                    6          7          8          9         10
     6  H    0.000000
     7  C    2.145119   0.000000
     8  C    2.951179   1.501749   0.000000
     9  H    3.049302   2.155575   1.100018   0.000000
    10  H    3.127954   2.164852   1.099262   1.781851   0.000000
    11  H    3.969220   2.143311   1.100879   1.778007   1.781022
    12  O    2.192234   1.420442   2.380312   3.216287   2.409706
    13  C    4.000348   4.020393   5.148966   5.051348   6.020435
    14  H    4.182321   4.701293   5.795416   5.587512   6.586072
    15  H    4.882061   4.661341   5.861114   5.880514   6.757481
    16  H    4.153313   3.894509   4.766085   4.517125   5.732571
    17  C    3.004084   2.438246   3.683003   4.516311   3.817939
    18  H    3.582383   3.294249   4.324344   5.211409   4.195659
    19  H    3.824662   2.680054   3.872264   4.774235   4.164537
    20  H    2.766596   2.772056   4.189971   4.833401   4.447883
                   11         12         13         14         15
    11  H    0.000000
    12  O    3.025151   0.000000
    13  C    5.585498   4.819041   0.000000
    14  H    6.364993   5.396105   1.095021   0.000000
    15  H    6.162688   5.377696   1.095919   1.800655   0.000000
    16  H    5.107276   4.958160   1.094847   1.808845   1.804537
    17  C    4.137831   1.443969   4.731582   5.331363   5.044463
    18  H    4.791832   1.997015   5.746676   6.265390   6.053516
    19  H    4.042613   2.086599   4.800790   5.569353   4.927151
    20  H    4.763854   2.088012   4.024692   4.497864   4.334037
                   16         17         18         19         20
    16  H    0.000000
    17  C    5.129684   0.000000
    18  H    6.189132   1.095110   0.000000
    19  H    5.132932   1.096422   1.810032   0.000000
    20  H    4.604484   1.094023   1.812627   1.804174   0.000000
 Stoichiometry    C4H12O4
 Framework group  C1[X(C4H12O4)]
 Deg. of freedom    54
 Full point group                 C1      NOp   1
 Largest Abelian subgroup         C1      NOp   1
 Largest concise Abelian subgroup C1      NOp   1
                         Standard orientation:                         
 ---------------------------------------------------------------------
 Center     Atomic      Atomic             Coordinates (Angstroms)
 Number     Number       Type             X           Y           Z
 ---------------------------------------------------------------------
      1          8           0        0.054128   -0.239550   -1.120492
      2          8           0       -1.886503    0.434230    0.159290
      3          1           0       -1.131301    0.336474   -0.744558
      4          1           0       -1.120177   -0.266032    0.889151
      5          8           0        0.024756   -0.722328    1.124673
      6          1           0        0.359402   -0.175045    1.868202
      7          6           0        0.924240   -0.418295   -0.186870
      8          6           0        1.896198   -1.562070   -0.235100
      9          1           0        1.451393   -2.474313    0.189165
     10          1           0        2.817139   -1.337559    0.321532
     11          1           0        2.171444   -1.776636   -1.279196
     12          8           0        1.591360    0.736983    0.300919
     13          6           0       -3.094120   -0.296836   -0.147024
     14          1           0       -3.675768   -0.333425    0.780024
     15          1           0       -3.627305    0.277445   -0.913153
     16          1           0       -2.854967   -1.302368   -0.508136
     17          6           0        1.033649    2.014901   -0.074489
     18          1           0        1.771864    2.725796    0.311430
     19          1           0        0.952767    2.076256   -1.166201
     20          1           0        0.055775    2.148522    0.397521
 ---------------------------------------------------------------------
 Rotational constants (GHZ):      2.7250735      1.2997172      1.0818712
 Standard basis: def2TZVP (5D, 7F)
 There are   360 symmetry adapted cartesian basis functions of A   symmetry.
 There are   320 symmetry adapted basis functions of A   symmetry.
   320 basis functions,   504 primitive gaussians,   360 cartesian basis functions
    34 alpha electrons       34 beta electrons
       nuclear repulsion energy       450.5354241802 Hartrees.
 NAtoms=   20 NActive=   20 NUniq=   20 SFac= 1.00D+00 NAtFMM=   60 NAOKFM=F Big=F
 Integral buffers will be    131072 words long.
 Raffenetti 2 integral format.
 Two-electron integral symmetry is turned on.
 One-electron integrals computed using PRISM.
 PrsmSu:  requested number of processors reduced to:   4 ShMem   1 Linda.
   1 Symmetry operations used in ECPInt.
 ECPInt:  NShTT=    9316 NPrTT=   27240 LenC2=    9061 LenP2D=   20869.
 LDataN:  DoStor=T MaxTD1= 6 Len=  172
 NBasis=   320 RedAO= T EigKep=  2.58D-04  NBF=   320
 NBsUse=   320 1.00D-06 EigRej= -1.00D+00 NBFU=   320
 ExpMin= 9.52D-02 ExpMax= 2.70D+04 ExpMxC= 9.22D+02 IAcc=2 IRadAn=         4 AccDes= 0.00D+00
 Harris functional with IExCor=  402 and IRadAn=       4 diagonalized for initial guess.
 HarFok:  IExCor=  402 AccDes= 0.00D+00 IRadAn=         4 IDoV= 1 UseB2=F ITyADJ=14
 ICtDFT=  3500011 ScaDFX=  1.000000  1.000000  1.000000  1.000000
 FoFCou: FMM=F IPFlag=           0 FMFlag=      100000 FMFlg1=           0
         NFxFlg=           0 DoJE=T BraDBF=F KetDBF=T FulRan=T
         wScrn=  0.000000 ICntrl=     500 IOpCl=  0 I1Cent=   200000004 NGrid=           0
         NMat0=    1 NMatS0=      1 NMatT0=    0 NMatD0=    1 NMtDS0=    0 NMtDT0=    0
 Petite list used in FoFCou.
 Requested convergence on RMS density matrix=1.00D-08 within 128 cycles.
 Requested convergence on MAX density matrix=1.00D-06.
 Requested convergence on             energy=1.00D-06.
 No special actions if energy rises.
 Integral accuracy reduced to 1.0D-05 until final iterations.
 Initial convergence to 1.0D-05 achieved.  Increase integral accuracy.
 SCF Done:  E(RB3LYP) =  -460.688707256     A.U. after   13 cycles
            NFock= 13  Conv=0.50D-08     -V/T= 2.0051
 DoSCS=F DFT=T ScalE2(SS,OS)=  1.000000  1.000000
 Range of M.O.s used for correlation:     1   320
 NBasis=   320 NAE=    34 NBE=    34 NFC=     0 NFV=     0
 NROrb=    320 NOA=    34 NOB=    34 NVA=   286 NVB=   286

 **** Warning!!: The largest alpha MO coefficient is  0.15719086D+02

 PrsmSu:  requested number of processors reduced to:   4 ShMem   1 Linda.
 PrsmSu:  requested number of processors reduced to:   4 ShMem   1 Linda.
   1 Symmetry operations used in ECPInt.
 ECPInt:  NShTT=    9316 NPrTT=   27240 LenC2=    9061 LenP2D=   20869.
 LDataN:  DoStor=T MaxTD1= 7 Len=  274
 Number of processors reduced to   2 by ecpmxn.
 Symmetrizing basis deriv contribution to polar:
 IMax=3 JMax=2 DiffMx= 0.00D+00
 G2DrvN: will do     1 centers at a time, making   21 passes.
 Calling FoFCou, ICntrl=  3107 FMM=F I1Cent=   0 AccDes= 0.00D+00.
 Calling FoFCou, ICntrl=  3107 FMM=F I1Cent=   0 AccDes= 0.00D+00.
 Calling FoFCou, ICntrl=  3107 FMM=F I1Cent=   0 AccDes= 0.00D+00.
 Calling FoFCou, ICntrl=  3107 FMM=F I1Cent=   0 AccDes= 0.00D+00.
 Calling FoFCou, ICntrl=  3107 FMM=F I1Cent=   0 AccDes= 0.00D+00.
 Calling FoFCou, ICntrl=  3107 FMM=F I1Cent=   0 AccDes= 0.00D+00.
 Calling FoFCou, ICntrl=  3107 FMM=F I1Cent=   0 AccDes= 0.00D+00.
 Calling FoFCou, ICntrl=  3107 FMM=F I1Cent=   0 AccDes= 0.00D+00.
 Calling FoFCou, ICntrl=  3107 FMM=F I1Cent=   0 AccDes= 0.00D+00.
 Calling FoFCou, ICntrl=  3107 FMM=F I1Cent=   0 AccDes= 0.00D+00.
 Calling FoFCou, ICntrl=  3107 FMM=F I1Cent=   0 AccDes= 0.00D+00.
 Calling FoFCou, ICntrl=  3107 FMM=F I1Cent=   0 AccDes= 0.00D+00.
 Calling FoFCou, ICntrl=  3107 FMM=F I1Cent=   0 AccDes= 0.00D+00.
 Calling FoFCou, ICntrl=  3107 FMM=F I1Cent=   0 AccDes= 0.00D+00.
 Calling FoFCou, ICntrl=  3107 FMM=F I1Cent=   0 AccDes= 0.00D+00.
 Calling FoFCou, ICntrl=  3107 FMM=F I1Cent=   0 AccDes= 0.00D+00.
 Calling FoFCou, ICntrl=  3107 FMM=F I1Cent=   0 AccDes= 0.00D+00.
 Calling FoFCou, ICntrl=  3107 FMM=F I1Cent=   0 AccDes= 0.00D+00.
 Calling FoFCou, ICntrl=  3107 FMM=F I1Cent=   0 AccDes= 0.00D+00.
 Calling FoFCou, ICntrl=  3107 FMM=F I1Cent=   0 AccDes= 0.00D+00.
 Calling FoFCou, ICntrl=  3107 FMM=F I1Cent=   0 AccDes= 0.00D+00.
 End of G2Drv F.D. properties file   721 does not exist.
 End of G2Drv F.D. properties file   722 does not exist.
 End of G2Drv F.D. properties file   788 does not exist.
          IDoAtm=11111111111111111111
          Differentiating once with respect to nuclear coordinates.
 PrRfSu:  requested number of processors reduced to:   5 ShMem   1 Linda.
 PrRfSu:  requested number of processors reduced to:   5 ShMem   1 Linda.
 PrRfSu:  requested number of processors reduced to:   5 ShMem   1 Linda.
          There are    63 degrees of freedom in the 1st order CPHF.  IDoFFX=6 NUNeed=     0.
     60 vectors produced by pass  0 Test12= 1.54D-14 1.59D-09 XBig12= 8.59D-02 7.31D-02.
 AX will form    24 AO Fock derivatives at one time.
 PrRfSu:  requested number of processors reduced to:   5 ShMem   1 Linda.
 PrRfSu:  requested number of processors reduced to:   5 ShMem   1 Linda.
 PrRfSu:  requested number of processors reduced to:   6 ShMem   1 Linda.
     57 vectors produced by pass  1 Test12= 1.54D-14 1.59D-09 XBig12= 1.06D-02 1.51D-02.
 PrRfSu:  requested number of processors reduced to:   5 ShMem   1 Linda.
 PrRfSu:  requested number of processors reduced to:   5 ShMem   1 Linda.
 PrRfSu:  requested number of processors reduced to:   6 ShMem   1 Linda.
     57 vectors produced by pass  2 Test12= 1.54D-14 1.59D-09 XBig12= 1.37D-04 1.19D-03.
 PrRfSu:  requested number of processors reduced to:   5 ShMem   1 Linda.
 PrRfSu:  requested number of processors reduced to:   5 ShMem   1 Linda.
 PrRfSu:  requested number of processors reduced to:   6 ShMem   1 Linda.
     57 vectors produced by pass  3 Test12= 1.54D-14 1.59D-09 XBig12= 7.31D-07 8.70D-05.
 PrRfSu:  requested number of processors reduced to:   5 ShMem   1 Linda.
 PrRfSu:  requested number of processors reduced to:   5 ShMem   1 Linda.
 PrRfSu:  requested number of processors reduced to:   6 ShMem   1 Linda.
     57 vectors produced by pass  4 Test12= 1.54D-14 1.59D-09 XBig12= 1.73D-09 3.78D-06.
 PrRfSu:  requested number of processors reduced to:   5 ShMem   1 Linda.
 PrRfSu:  requested number of processors reduced to:   5 ShMem   1 Linda.
 PrRfSu:  requested number of processors reduced to:   6 ShMem   1 Linda.
     43 vectors produced by pass  5 Test12= 1.54D-14 1.59D-09 XBig12= 2.01D-12 1.55D-07.
 PrRfSu:  requested number of processors reduced to:   5 ShMem   1 Linda.
 PrRfSu:  requested number of processors reduced to:   5 ShMem   1 Linda.
      7 vectors produced by pass  6 Test12= 1.54D-14 1.59D-09 XBig12= 2.54D-15 4.05D-09.
 PrRfSu:  requested number of processors reduced to:   6 ShMem   1 Linda.
 InvSVY:  IOpt=1 It=  1 EMax= 3.33D-16
 Solved reduced A of dimension   338 with    63 vectors.
 End of Minotr F.D. properties file   721 does not exist.
 End of Minotr F.D. properties file   722 does not exist.
 End of Minotr F.D. properties file   788 does not exist.

 **********************************************************************

            Population analysis using the SCF density.

 **********************************************************************

 Orbital symmetries:
       Occupied  (A) (A) (A) (A) (A) (A) (A) (A) (A) (A) (A) (A)
                 (A) (A) (A) (A) (A) (A) (A) (A) (A) (A) (A) (A)
                 (A) (A) (A) (A) (A) (A) (A) (A) (A) (A)
       Virtual   (A) (A) (A) (A) (A) (A) (A) (A) (A) (A) (A) (A)
                 (A) (A) (A) (A) (A) (A) (A) (A) (A) (A) (A) (A)
                 (A) (A) (A) (A) (A) (A) (A) (A) (A) (A) (A) (A)
                 (A) (A) (A) (A) (A) (A) (A) (A) (A) (A) (A) (A)
                 (A) (A) (A) (A) (A) (A) (A) (A) (A) (A) (A) (A)
                 (A) (A) (A) (A) (A) (A) (A) (A) (A) (A) (A) (A)
                 (A) (A) (A) (A) (A) (A) (A) (A) (A) (A) (A) (A)
                 (A) (A) (A) (A) (A) (A) (A) (A) (A) (A) (A) (A)
                 (A) (A) (A) (A) (A) (A) (A) (A) (A) (A) (A) (A)
                 (A) (A) (A) (A) (A) (A) (A) (A) (A) (A) (A) (A)
                 (A) (A) (A) (A) (A) (A) (A) (A) (A) (A) (A) (A)
                 (A) (A) (A) (A) (A) (A) (A) (A) (A) (A) (A) (A)
                 (A) (A) (A) (A) (A) (A) (A) (A) (A) (A) (A) (A)
                 (A) (A) (A) (A) (A) (A) (A) (A) (A) (A) (A) (A)
                 (A) (A) (A) (A) (A) (A) (A) (A) (A) (A) (A) (A)
                 (A) (A) (A) (A) (A) (A) (A) (A) (A) (A) (A) (A)
                 (A) (A) (A) (A) (A) (A) (A) (A) (A) (A) (A) (A)
                 (A) (A) (A) (A) (A) (A) (A) (A) (A) (A) (A) (A)
                 (A) (A) (A) (A) (A) (A) (A) (A) (A) (A) (A) (A)
                 (A) (A) (A) (A) (A) (A) (A) (A) (A) (A) (A) (A)
                 (A) (A) (A) (A) (A) (A) (A) (A) (A) (A) (A) (A)
                 (A) (A) (A) (A) (A) (A) (A) (A) (A) (A) (A) (A)
                 (A) (A) (A) (A) (A) (A) (A) (A) (A) (A) (A) (A)
                 (A) (A) (A) (A) (A) (A) (A) (A) (A) (A)
 The electronic state is 1-A.
 Alpha  occ. eigenvalues --  -19.15288 -19.14887 -19.12904 -19.07938 -10.31602
 Alpha  occ. eigenvalues --  -10.22687 -10.21044 -10.16195  -1.08499  -1.02580
 Alpha  occ. eigenvalues --   -0.99759  -0.97242  -0.75197  -0.69217  -0.68101
 Alpha  occ. eigenvalues --   -0.57119  -0.54180  -0.53338  -0.51406  -0.47196
 Alpha  occ. eigenvalues --   -0.46219  -0.45191  -0.44758  -0.42500  -0.41214
 Alpha  occ. eigenvalues --   -0.38962  -0.38259  -0.36991  -0.35267  -0.33993
 Alpha  occ. eigenvalues --   -0.30443  -0.27768  -0.27253  -0.26295
 Alpha virt. eigenvalues --    0.01906   0.04705   0.06405   0.06692   0.08134
 Alpha virt. eigenvalues --    0.08537   0.10126   0.10572   0.10961   0.11284
 Alpha virt. eigenvalues --    0.12598   0.13672   0.14212   0.15057   0.16385
 Alpha virt. eigenvalues --    0.17568   0.20578   0.20887   0.21469   0.23291
 Alpha virt. eigenvalues --    0.24759   0.25324   0.26121   0.27402   0.29589
 Alpha virt. eigenvalues --    0.30847   0.31668   0.33805   0.36243   0.37013
 Alpha virt. eigenvalues --    0.38306   0.39107   0.40212   0.40652   0.42020
 Alpha virt. eigenvalues --    0.42884   0.43804   0.44916   0.45450   0.45894
 Alpha virt. eigenvalues --    0.47159   0.47694   0.48777   0.49294   0.51095
 Alpha virt. eigenvalues --    0.51801   0.52901   0.55545   0.56414   0.58371
 Alpha virt. eigenvalues --    0.60584   0.63198   0.63815   0.65851   0.66955
 Alpha virt. eigenvalues --    0.68708   0.71020   0.72510   0.74918   0.75286
 Alpha virt. eigenvalues --    0.78187   0.79398   0.82184   0.84398   0.86282
 Alpha virt. eigenvalues --    0.90331   0.90923   0.91930   0.92898   0.96302
 Alpha virt. eigenvalues --    0.96714   0.98694   1.01073   1.02155   1.04359
 Alpha virt. eigenvalues --    1.06991   1.08288   1.10686   1.11710   1.18724
 Alpha virt. eigenvalues --    1.19620   1.24492   1.34669   1.35761   1.38394
 Alpha virt. eigenvalues --    1.40806   1.43982   1.45582   1.47303   1.47877
 Alpha virt. eigenvalues --    1.48790   1.49407   1.50736   1.52349   1.53328
 Alpha virt. eigenvalues --    1.54137   1.54906   1.55499   1.56488   1.57844
 Alpha virt. eigenvalues --    1.59503   1.61104   1.63083   1.65666   1.67864
 Alpha virt. eigenvalues --    1.69842   1.71683   1.74516   1.76875   1.78097
 Alpha virt. eigenvalues --    1.84345   1.85066   1.86038   1.88368   1.88909
 Alpha virt. eigenvalues --    1.91060   1.94608   1.96267   1.96855   1.97770
 Alpha virt. eigenvalues --    1.99734   2.00567   2.03433   2.04605   2.07156
 Alpha virt. eigenvalues --    2.08781   2.11912   2.15430   2.15870   2.19544
 Alpha virt. eigenvalues --    2.20490   2.21736   2.24235   2.25277   2.25966
 Alpha virt. eigenvalues --    2.26520   2.28031   2.29104   2.30768   2.32177
 Alpha virt. eigenvalues --    2.33295   2.35122   2.37228   2.42167   2.43104
 Alpha virt. eigenvalues --    2.44907   2.46195   2.49400   2.50346   2.51207
 Alpha virt. eigenvalues --    2.53280   2.53909   2.55484   2.57179   2.58006
 Alpha virt. eigenvalues --    2.60135   2.62906   2.65319   2.69252   2.69565
 Alpha virt. eigenvalues --    2.72242   2.74419   2.75616   2.78881   2.81831
 Alpha virt. eigenvalues --    2.87367   2.87995   2.90962   2.95520   2.99124
 Alpha virt. eigenvalues --    2.99756   3.00420   3.02000   3.05111   3.06247
 Alpha virt. eigenvalues --    3.08731   3.09727   3.13191   3.14782   3.16300
 Alpha virt. eigenvalues --    3.18851   3.20783   3.22488   3.25797   3.28434
 Alpha virt. eigenvalues --    3.30116   3.32069   3.32394   3.34483   3.35173
 Alpha virt. eigenvalues --    3.37577   3.38047   3.39636   3.42054   3.43849
 Alpha virt. eigenvalues --    3.46102   3.48833   3.51553   3.52566   3.53911
 Alpha virt. eigenvalues --    3.56456   3.58114   3.59919   3.61679   3.64334
 Alpha virt. eigenvalues --    3.69810   3.73309   3.80443   3.84133   3.90177
 Alpha virt. eigenvalues --    3.93026   3.98882   4.00393   4.07278   4.09603
 Alpha virt. eigenvalues --    4.11890   4.16935   4.18571   4.27127   4.33273
 Alpha virt. eigenvalues --    4.36659   4.38516   4.41029   4.43444   4.48573
 Alpha virt. eigenvalues --    4.51231   4.55435   4.62920   4.79884   4.88946
 Alpha virt. eigenvalues --    5.17521   5.20659   5.22108   5.26047   5.28488
 Alpha virt. eigenvalues --    5.30728   5.34059   5.35158   5.38371   5.42967
 Alpha virt. eigenvalues --    5.50846   5.54169   5.56209   5.63648   5.67744
 Alpha virt. eigenvalues --    5.69549   5.72299   5.77704   5.82118   5.88053
 Alpha virt. eigenvalues --    5.91209   5.96202   6.09671   6.12558   6.19899
 Alpha virt. eigenvalues --    6.26629   6.30705   6.45775   6.48089   6.50519
 Alpha virt. eigenvalues --    6.61091   6.62744   6.66917   6.70146   6.71453
 Alpha virt. eigenvalues --    6.77951   6.83466   6.88119   6.91125   6.96712
 Alpha virt. eigenvalues --    7.04842   7.06842   7.10047   7.15898   7.20908
 Alpha virt. eigenvalues --    7.28160   7.36015   7.38772  22.23358  22.26033
 Alpha virt. eigenvalues --   22.29391  22.87838  43.73637  43.83349  44.03202
 Alpha virt. eigenvalues --   44.19826
          Condensed to atoms (all electrons):
               1          2          3          4          5          6
     1  O    8.258931  -0.112304   0.139719   0.009328  -0.102324   0.008729
     2  O   -0.112304   8.210115   0.199085   0.178636  -0.120979   0.003946
     3  H    0.139719   0.199085   0.337379  -0.021798   0.010086  -0.000476
     4  H    0.009328   0.178636  -0.021798   0.346898   0.162706  -0.005321
     5  O   -0.102324  -0.120979   0.010086   0.162706   8.188115   0.274692
     6  H    0.008729   0.003946  -0.000476  -0.005321   0.274692   0.396381
     7  C    0.456837   0.039080  -0.025692  -0.019174   0.196311  -0.010766
     8  C   -0.061982  -0.002084   0.004318   0.006242  -0.035149  -0.000467
     9  H    0.001440   0.000093  -0.000140   0.000088   0.001599  -0.000376
    10  H    0.003681   0.000084  -0.000318  -0.000409   0.001754  -0.000070
    11  H    0.004288   0.000192  -0.000163  -0.000318   0.005104  -0.000380
    12  O   -0.091987  -0.000863  -0.002762   0.005688  -0.107966   0.015440
    13  C    0.007428   0.211995  -0.011925  -0.014906   0.005789  -0.000004
    14  H   -0.000557  -0.035666   0.005183  -0.007588   0.000890   0.000009
    15  H    0.000005  -0.034691  -0.007856   0.004859  -0.000853   0.000006
    16  H    0.006884  -0.049664  -0.003339  -0.001550   0.002244   0.000028
    17  C    0.013873  -0.011929   0.002859   0.001729   0.002210   0.001395
    18  H    0.002905   0.000104   0.000518   0.000237  -0.000488  -0.000290
    19  H    0.013829   0.000679   0.001412   0.000071   0.000312   0.000415
    20  H   -0.008791   0.006163  -0.004847  -0.003443   0.008744  -0.003531
               7          8          9         10         11         12
     1  O    0.456837  -0.061982   0.001440   0.003681   0.004288  -0.091987
     2  O    0.039080  -0.002084   0.000093   0.000084   0.000192  -0.000863
     3  H   -0.025692   0.004318  -0.000140  -0.000318  -0.000163  -0.002762
     4  H   -0.019174   0.006242   0.000088  -0.000409  -0.000318   0.005688
     5  O    0.196311  -0.035149   0.001599   0.001754   0.005104  -0.107966
     6  H   -0.010766  -0.000467  -0.000376  -0.000070  -0.000380   0.015440
     7  C    4.481848   0.255396  -0.034478  -0.040744  -0.032298   0.372244
     8  C    0.255396   5.063180   0.396160   0.395166   0.387281  -0.091423
     9  H   -0.034478   0.396160   0.555915  -0.024455  -0.021449   0.004022
    10  H   -0.040744   0.395166  -0.024455   0.556933  -0.018295   0.009313
    11  H   -0.032298   0.387281  -0.021449  -0.018295   0.559610   0.000354
    12  O    0.372244  -0.091423   0.004022   0.009313   0.000354   8.147211
    13  C   -0.002739  -0.000306  -0.000016   0.000003  -0.000011   0.000073
    14  H    0.000442  -0.000017   0.000006   0.000001   0.000000   0.000026
    15  H    0.000479  -0.000019   0.000000   0.000000   0.000005  -0.000009
    16  H   -0.001993   0.000253   0.000006  -0.000001  -0.000032   0.000100
    17  C   -0.064230   0.015541  -0.000753  -0.000415  -0.001557   0.215665
    18  H    0.002463   0.000694   0.000001  -0.000533  -0.000003  -0.032409
    19  H   -0.019176  -0.002206  -0.000101   0.000257   0.000430  -0.036797
    20  H    0.012920  -0.000258   0.000155   0.000125  -0.000048  -0.055955
              13         14         15         16         17         18
     1  O    0.007428  -0.000557   0.000005   0.006884   0.013873   0.002905
     2  O    0.211995  -0.035666  -0.034691  -0.049664  -0.011929   0.000104
     3  H   -0.011925   0.005183  -0.007856  -0.003339   0.002859   0.000518
     4  H   -0.014906  -0.007588   0.004859  -0.001550   0.001729   0.000237
     5  O    0.005789   0.000890  -0.000853   0.002244   0.002210  -0.000488
     6  H   -0.000004   0.000009   0.000006   0.000028   0.001395  -0.000290
     7  C   -0.002739   0.000442   0.000479  -0.001993  -0.064230   0.002463
     8  C   -0.000306  -0.000017  -0.000019   0.000253   0.015541   0.000694
     9  H   -0.000016   0.000006   0.000000   0.000006  -0.000753   0.000001
    10  H    0.000003   0.000001   0.000000  -0.000001  -0.000415  -0.000533
    11  H   -0.000011   0.000000   0.000005  -0.000032  -0.001557  -0.000003
    12  O    0.000073   0.000026  -0.000009   0.000100   0.215665  -0.032409
    13  C    4.755945   0.403095   0.406089   0.411813   0.000851  -0.000012
    14  H    0.403095   0.576597  -0.022804  -0.036645  -0.000078  -0.000003
    15  H    0.406089  -0.022804   0.571394  -0.038040   0.000070  -0.000002
    16  H    0.411813  -0.036645  -0.038040   0.583840  -0.000099   0.000004
    17  C    0.000851  -0.000078   0.000070  -0.000099   4.820002   0.389019
    18  H   -0.000012  -0.000003  -0.000002   0.000004   0.389019   0.570336
    19  H   -0.000111  -0.000004   0.000024  -0.000023   0.420063  -0.022087
    20  H   -0.000052  -0.000082  -0.000258   0.000284   0.400715  -0.030115
              19         20
     1  O    0.013829  -0.008791
     2  O    0.000679   0.006163
     3  H    0.001412  -0.004847
     4  H    0.000071  -0.003443
     5  O    0.000312   0.008744
     6  H    0.000415  -0.003531
     7  C   -0.019176   0.012920
     8  C   -0.002206  -0.000258
     9  H   -0.000101   0.000155
    10  H    0.000257   0.000125
    11  H    0.000430  -0.000048
    12  O   -0.036797  -0.055955
    13  C   -0.000111  -0.000052
    14  H   -0.000004  -0.000082
    15  H    0.000024  -0.000258
    16  H   -0.000023   0.000284
    17  C    0.420063   0.400715
    18  H   -0.022087  -0.030115
    19  H    0.561454  -0.049625
    20  H   -0.049625   0.608730
 Mulliken charges:
               1
     1  O   -0.549934
     2  O   -0.481992
     3  H    0.378756
     4  H    0.358026
     5  O   -0.492797
     6  H    0.320640
     7  C    0.433271
     8  C   -0.330319
     9  H    0.122283
    10  H    0.117923
    11  H    0.117290
    12  O   -0.349963
    13  C   -0.173000
    14  H    0.117194
    15  H    0.121603
    16  H    0.125933
    17  C   -0.204929
    18  H    0.119663
    19  H    0.131184
    20  H    0.119168
 Sum of Mulliken charges =   0.00000
 Mulliken charges with hydrogens summed into heavy atoms:
               1
     1  O   -0.549934
     2  O   -0.103236
     5  O    0.185868
     7  C    0.433271
     8  C    0.027177
    12  O   -0.349963
    13  C    0.191730
    17  C    0.165086
 APT charges:
               1
     1  O   -0.512003
     2  O   -0.336409
     3  H    0.351529
     4  H    0.343165
     5  O   -0.664069
     6  H    0.569869
     7  C    0.222255
     8  C   -1.191628
     9  H    0.348727
    10  H    0.454659
    11  H    0.425840
    12  O   -0.238988
    13  C   -1.077449
    14  H    0.486350
    15  H    0.475680
    16  H    0.217969
    17  C   -0.892699
    18  H    0.568114
    19  H    0.289862
    20  H    0.159226
 Sum of APT charges =   0.00000
 APT charges with hydrogens summed into heavy atoms:
               1
     1  O   -0.512003
     2  O    0.015120
     5  O    0.248965
     7  C    0.222255
     8  C    0.037598
    12  O   -0.238988
    13  C    0.102550
    17  C    0.124503
 Electronic spatial extent (au):  <R**2>=           1207.7095
 Charge=              0.0000 electrons
 Dipole moment (field-independent basis, Debye):
    X=             -1.4579    Y=              0.2407    Z=              1.5853  Tot=              2.1671
 Quadrupole moment (field-independent basis, Debye-Ang):
   XX=            -45.8104   YY=            -49.3052   ZZ=            -50.3389
   XY=              0.8548   XZ=              0.4883   YZ=             -0.3185
 Traceless Quadrupole moment (field-independent basis, Debye-Ang):
   XX=              2.6744   YY=             -0.8203   ZZ=             -1.8541
   XY=              0.8548   XZ=              0.4883   YZ=             -0.3185
 Octapole moment (field-independent basis, Debye-Ang**2):
  XXX=            -25.1113  YYY=              5.9760  ZZZ=             14.6395  XYY=              5.6079
  XXY=             -7.5615  XXZ=             -3.3371  XZZ=             -1.9367  YZZ=              3.7777
  YYZ=             -1.8765  XYZ=              1.5618
 Hexadecapole moment (field-independent basis, Debye-Ang**3):
 XXXX=           -904.0016 YYYY=           -423.0553 ZZZZ=           -169.1479 XXXY=              5.0962
 XXXZ=              3.9618 YYYX=             14.3868 YYYZ=              1.3843 ZZZX=              1.9192
 ZZZY=             -1.5465 XXYY=           -227.9943 XXZZ=           -180.8885 YYZZ=           -105.8018
 XXYZ=             -3.5544 YYXZ=              1.9960 ZZXY=             -1.9209
 N-N= 4.505354241802D+02 E-N=-1.982759807573D+03  KE= 4.583425482869D+02
  Exact polarizability:   0.000   0.000   0.000   0.000   0.000   0.000
 Approx polarizability: 106.230  -2.331  95.615   2.471  -0.683  99.643
 PrsmSu:  requested number of processors reduced to:   4 ShMem   1 Linda.
 PrsmSu:  requested number of processors reduced to:   4 ShMem   1 Linda.
   1 Symmetry operations used in ECPInt.
 ECPInt:  NShTT=    9316 NPrTT=   27240 LenC2=    9061 LenP2D=   20869.
 LDataN:  DoStor=T MaxTD1= 8 Len=  415
 Calling FoFJK, ICntrl=    100147 FMM=F ISym2X=0 I1Cent= 0 IOpClX= 0 NMat=1 NMatS=1 NMatT=0.
 CoulSu:  requested number of processors reduced to:   4 ShMem   1 Linda.
 ***** Axes restored to original set *****
 -------------------------------------------------------------------
 Center     Atomic                   Forces (Hartrees/Bohr)
 Number     Number              X              Y              Z
 -------------------------------------------------------------------
      1        8           0.003614782   -0.002007179   -0.018273962
      2        8           0.008432704   -0.016450721   -0.010667922
      3        1           0.006156854   -0.011690075    0.032075935
      4        1           0.013193187    0.011738556   -0.020705112
      5        8          -0.027287024   -0.001890833    0.037939730
      6        1           0.000887778   -0.009584460   -0.011822867
      7        6          -0.016479853    0.030383391    0.006276981
      8        6           0.010050557   -0.016417205   -0.005951019
      9        1           0.001200029    0.006507857   -0.004182781
     10        1          -0.007176295    0.000603107   -0.002020846
     11        1          -0.002324552    0.003658927    0.005638287
     12        8           0.008798135    0.004599295   -0.011886370
     13        6           0.004951321    0.012169910    0.003356546
     14        1          -0.002163326   -0.002937023   -0.005810539
     15        1          -0.002251079   -0.005872654    0.002869381
     16        1          -0.002655966    0.001447862    0.000630972
     17        6           0.009610586   -0.012865441    0.002707767
     18        1          -0.006861094    0.001057901   -0.002922490
     19        1          -0.001172311    0.002680287    0.005123764
     20        1           0.001475568    0.004868499   -0.002375457
 -------------------------------------------------------------------
 Cartesian Forces:  Max     0.037939730 RMS     0.011470906
 FormGI is forming the generalized inverse of G from B-inverse, IUseBI=4.

 GradGradGradGradGradGradGradGradGradGradGradGradGradGradGradGradGradGrad
 Berny optimization.
 Internal  Forces:  Max     0.103913851 RMS     0.020173169
 Search for a saddle point.
 Step number   1 out of a maximum of   83
 All quantities printed in internal units (Hartrees-Bohrs-Radians)
 Swapping is turned off.
 Second derivative matrix not updated -- analytic derivatives used.
 ITU=  0
     Eigenvalues ---   -0.07808  -0.01294  -0.00935  -0.00039  -0.00021
     Eigenvalues ---    0.00131   0.00307   0.00864   0.01411   0.02897
     Eigenvalues ---    0.04188   0.04791   0.05474   0.05648   0.05722
     Eigenvalues ---    0.06295   0.06355   0.08338   0.08379   0.08819
     Eigenvalues ---    0.09203   0.12088   0.12233   0.13255   0.13615
     Eigenvalues ---    0.14197   0.14218   0.17066   0.17952   0.18346
     Eigenvalues ---    0.18561   0.18710   0.19062   0.19752   0.22777
     Eigenvalues ---    0.25762   0.30420   0.31842   0.32146   0.32332
     Eigenvalues ---    0.32474   0.32530   0.32624   0.32826   0.32864
     Eigenvalues ---    0.33863   0.35804   0.36046   0.43581   0.45854
     Eigenvalues ---    0.48016   0.93185   2.31335   3.99869
 Eigenvectors required to have negative eigenvalues:
                          R4        R6        R1        R3        D2
   1                   -0.52391   0.47409  -0.46246   0.38749   0.14893
                          R2        D22       D19       D20       D15
   1                    0.12904  -0.11730   0.09502   0.09440  -0.08940
 RFO step:  Lambda0=1.119751103D-03 Lambda=-2.85123722D-02.
 Linear search not attempted -- option 19 set.
 Maximum step size (   0.300) exceeded in Quadratic search.
    -- Step size scaled by   0.621
 Iteration  1 RMS(Cart)=  0.09900750 RMS(Int)=  0.01593767
 Iteration  2 RMS(Cart)=  0.09659068 RMS(Int)=  0.00245510
 Iteration  3 RMS(Cart)=  0.00400555 RMS(Int)=  0.00020376
 Iteration  4 RMS(Cart)=  0.00000539 RMS(Int)=  0.00020373
 Iteration  5 RMS(Cart)=  0.00000000 RMS(Int)=  0.00020373
 Variable       Old X    -DE/DX   Delta X   Delta X   Delta X     New X
                                 (Linear)    (Quad)   (Total)
    R1        2.58994  -0.00143   0.00000   0.00042   0.00042   2.59036
    R2        2.43525  -0.01240   0.00000  -0.01915  -0.01915   2.41610
    R3        2.23342   0.00025   0.00000  -0.11234  -0.11234   2.12108
    R4        2.39803  -0.00500   0.00000  -0.16461  -0.16461   2.23342
    R5        2.72974  -0.00088   0.00000  -0.00433  -0.00433   2.72541
    R6        2.37125  -0.01500   0.00000   0.06884   0.06884   2.44008
    R7        1.85573  -0.01399   0.00000  -0.01882  -0.01882   1.83691
    R8        2.83789   0.00564   0.00000   0.01247   0.01247   2.85036
    R9        2.68425   0.00263   0.00000  -0.02366  -0.02366   2.66058
   R10        2.07873  -0.00750   0.00000  -0.01364  -0.01364   2.06510
   R11        2.07730  -0.00691   0.00000  -0.01204  -0.01204   2.06526
   R12        2.08036  -0.00664   0.00000  -0.01190  -0.01190   2.06846
   R13        2.72871  -0.00559   0.00000  -0.01947  -0.01947   2.70923
   R14        2.06929  -0.00367   0.00000  -0.00749  -0.00749   2.06180
   R15        2.07099  -0.00400   0.00000  -0.00824  -0.00824   2.06275
   R16        2.06896  -0.00211   0.00000  -0.00406  -0.00406   2.06490
   R17        2.06946  -0.00497   0.00000  -0.00766  -0.00766   2.06179
   R18        2.07194  -0.00487   0.00000  -0.00744  -0.00744   2.06450
   R19        2.06740  -0.00174   0.00000  -0.00119  -0.00119   2.06621
    A1        2.03038   0.01835   0.00000  -0.00618  -0.00618   2.02420
    A2        1.57913   0.04510   0.00000  -0.03176  -0.03078   1.54835
    A3        1.90727  -0.01392   0.00000   0.06315   0.06306   1.97034
    A4        1.92574  -0.03130   0.00000  -0.02771  -0.02698   1.89875
    A5        2.49347   0.10391   0.00000   0.11332   0.11332   2.60678
    A6        2.60534   0.08160   0.00000   0.12322   0.12322   2.72856
    A7        1.82388   0.01070   0.00000   0.03889   0.03889   1.86277
    A8        2.11691  -0.01295   0.00000  -0.02248  -0.02248   2.09443
    A9        2.04103   0.00845   0.00000   0.01229   0.01219   2.05322
   A10        1.90340  -0.00308   0.00000  -0.00013  -0.00016   1.90325
   A11        1.93641  -0.00085   0.00000  -0.00559  -0.00563   1.93077
   A12        1.95025  -0.00291   0.00000  -0.00595  -0.00599   1.94426
   A13        1.91848  -0.00265   0.00000  -0.01911  -0.01919   1.89929
   A14        1.88898   0.00243   0.00000   0.01093   0.01093   1.89991
   A15        1.88101   0.00170   0.00000   0.00929   0.00921   1.89022
   A16        1.88661   0.00259   0.00000   0.01182   0.01175   1.89836
   A17        2.03657   0.00123   0.00000  -0.00200  -0.00200   2.03457
   A18        1.85610   0.00736   0.00000   0.01716   0.01706   1.87316
   A19        1.86478   0.00723   0.00000   0.01740   0.01729   1.88207
   A20        1.93065   0.00052   0.00000   0.00094   0.00091   1.93156
   A21        1.92935  -0.00542   0.00000  -0.01039  -0.01059   1.91876
   A22        1.94397  -0.00450   0.00000  -0.01299  -0.01301   1.93096
   A23        1.93582  -0.00422   0.00000  -0.00977  -0.00980   1.92601
   A24        1.79520   0.00694   0.00000   0.02567   0.02544   1.82064
   A25        1.91440   0.00287   0.00000   0.01147   0.01130   1.92570
   A26        1.91894   0.00605   0.00000   0.01886   0.01868   1.93762
   A27        1.94367  -0.00400   0.00000  -0.01049  -0.01072   1.93295
   A28        1.95110  -0.00597   0.00000  -0.02173  -0.02198   1.92913
   A29        1.93566  -0.00469   0.00000  -0.01927  -0.01940   1.91625
    D1       -0.53748  -0.05640   0.00000   0.32349   0.32349  -0.21398
    D2        2.60525  -0.00846   0.00000  -0.13549  -0.13545   2.46981
    D3       -1.27777  -0.02017   0.00000  -0.14969  -0.14973  -1.42749
    D4        0.04212  -0.03552   0.00000  -0.18097  -0.18132  -0.13919
    D5       -1.90888  -0.01711   0.00000  -0.14865  -0.14830  -2.05718
    D6        0.36779  -0.00333   0.00000  -0.19621  -0.19665   0.17114
    D7        2.30173  -0.00498   0.00000  -0.14505  -0.14461   2.15712
    D8        2.96183   0.01587   0.00000  -0.01199  -0.01235   2.94949
    D9       -1.26025   0.01685   0.00000  -0.00682  -0.00703  -1.26728
   D10        0.84853   0.01649   0.00000  -0.00737  -0.00765   0.84088
   D11        1.25153  -0.01701   0.00000   0.00874   0.00895   1.26048
   D12       -2.97055  -0.01603   0.00000   0.01390   0.01426  -2.95629
   D13       -0.86177  -0.01639   0.00000   0.01335   0.01364  -0.84813
   D14        1.81269  -0.00335   0.00000   0.21967   0.21967   2.03236
   D15       -1.49019  -0.00166   0.00000   0.02449   0.02450  -1.46569
   D16        2.68318  -0.00218   0.00000   0.01849   0.01856   2.70174
   D17        0.58858  -0.00177   0.00000   0.02028   0.02034   0.60892
   D18        2.34194   0.00448   0.00000   0.03210   0.03202   2.37396
   D19        0.23212   0.00397   0.00000   0.02610   0.02608   0.25820
   D20       -1.86248   0.00437   0.00000   0.02790   0.02785  -1.83462
   D21        0.23079   0.00706   0.00000   0.02686   0.02693   0.25772
   D22        2.71560  -0.00806   0.00000   0.00441   0.00433   2.71993
   D23       -3.02992  -0.00011   0.00000  -0.00820  -0.00819  -3.03811
   D24       -0.96016   0.00026   0.00000  -0.00145  -0.00136  -0.96152
   D25        1.17280   0.00024   0.00000  -0.00568  -0.00578   1.16701
         Item               Value     Threshold  Converged?
 Maximum Force            0.103914     0.000450     NO 
 RMS     Force            0.020173     0.000300     NO 
 Maximum Displacement     0.365117     0.001800     NO 
 RMS     Displacement     0.104945     0.001200     NO 
 Predicted change in Energy=-1.543692D-02
 GradGradGradGradGradGradGradGradGradGradGradGradGradGradGradGradGradGrad

                          Input orientation:                          
 ---------------------------------------------------------------------
 Center     Atomic      Atomic             Coordinates (Angstroms)
 Number     Number       Type             X           Y           Z
 ---------------------------------------------------------------------
      1          8           0        0.102275   -0.186676   -1.150539
      2          8           0       -1.890927    0.429469    0.046876
      3          1           0       -1.139823    0.248418   -0.767314
      4          1           0       -1.174176   -0.136167    0.797309
      5          8           0       -0.082365   -0.702737    1.190041
      6          1           0        0.256963   -0.172896    1.930992
      7          6           0        0.941767   -0.385601   -0.206949
      8          6           0        1.889270   -1.557234   -0.274966
      9          1           0        1.407109   -2.464363    0.097662
     10          1           0        2.794192   -1.372669    0.309377
     11          1           0        2.172083   -1.722513   -1.319382
     12          8           0        1.629492    0.732559    0.301961
     13          6           0       -3.095623   -0.345984   -0.118632
     14          1           0       -3.668860   -0.256905    0.805416
     15          1           0       -3.658713    0.084233   -0.948899
     16          1           0       -2.855815   -1.392132   -0.323718
     17          6           0        1.103964    2.020774   -0.044043
     18          1           0        1.835225    2.726126    0.353623
     19          1           0        1.022246    2.118514   -1.129077
     20          1           0        0.125688    2.181933    0.416948
 ---------------------------------------------------------------------
                    Distance matrix (angstroms):
                    1          2          3          4          5
     1  O    0.000000
     2  O    2.405471   0.000000
     3  H    1.370757   1.122427   0.000000
     4  H    2.329376   1.181873   1.611561   0.000000
     5  O    2.403898   2.420664   2.419535   1.291237   0.000000
     6  H    3.085441   2.919960   3.067469   1.826128   0.972051
     7  C    1.278546   2.958534   2.246999   2.355412   1.760967
     8  C    2.416280   4.282576   3.560645   3.543150   2.600722
     9  H    2.906623   4.387924   3.820239   3.545847   2.552479
    10  H    3.283953   5.026624   4.389038   4.185088   3.082038
    11  H    2.582906   4.796429   3.893336   4.265481   3.524157
    12  O    2.299378   3.542638   3.007797   2.976677   2.404000
    13  C    3.364040   1.442225   2.144588   2.138909   3.304485
    14  H    4.248783   2.051228   3.020738   2.497617   3.634508
    15  H    3.776120   2.058112   2.530759   3.044790   4.240832
    16  H    3.299554   2.094416   2.415121   2.379508   3.234000
    17  C    2.664686   3.392623   2.949398   3.248106   3.216809
    18  H    3.708103   4.387816   4.030687   4.176849   4.016696
    19  H    2.482077   3.566835   2.881436   3.690368   3.815486
    20  H    2.840400   2.697187   2.596627   2.684754   2.993706
                    6          7          8          9         10
     6  H    0.000000
     7  C    2.254992   0.000000
     8  C    3.073608   1.508348   0.000000
     9  H    3.151944   2.151879   1.092801   0.000000
    10  H    3.241391   2.161567   1.092888   1.777814   0.000000
    11  H    4.078471   2.130380   1.094580   1.773004   1.778277
    12  O    2.314611   1.407919   2.375602   3.211153   2.405944
    13  C    3.933288   4.038550   5.132322   4.980854   5.993930
    14  H    4.084858   4.722216   5.809552   5.580255   6.577387
    15  H    4.867485   4.683552   5.824837   5.766557   6.733930
    16  H    4.032324   3.930442   4.748207   4.415853   5.685400
    17  C    3.070890   2.417331   3.670446   4.497603   3.807523
    18  H    3.658323   3.285628   4.329575   5.214401   4.209714
    19  H    3.898748   2.669717   3.871997   4.759808   4.171007
    20  H    2.802638   2.765405   4.191699   4.830326   4.446085
                   11         12         13         14         15
    11  H    0.000000
    12  O    2.991745   0.000000
    13  C    5.575424   4.864860   0.000000
    14  H    6.385874   5.413413   1.091055   0.000000
    15  H    6.115535   5.472668   1.091559   1.787205   0.000000
    16  H    5.136171   5.002376   1.092700   1.795752   1.793084
    17  C    4.096287   1.433665   4.821166   5.356235   5.220350
    18  H    4.764746   2.004820   5.828734   6.276745   6.233739
    19  H    4.013954   2.082663   4.904242   5.602798   5.107068
    20  H    4.737855   2.091729   4.129655   4.527409   4.537353
                   16         17         18         19         20
    16  H    0.000000
    17  C    5.235074   0.000000
    18  H    6.278908   1.091055   0.000000
    19  H    5.292693   1.092487   1.796809   0.000000
    20  H    4.712949   1.093394   1.795180   1.788304   0.000000
 Stoichiometry    C4H12O4
 Framework group  C1[X(C4H12O4)]
 Deg. of freedom    54
 Full point group                 C1      NOp   1
 Largest Abelian subgroup         C1      NOp   1
 Largest concise Abelian subgroup C1      NOp   1
                         Standard orientation:                         
 ---------------------------------------------------------------------
 Center     Atomic      Atomic             Coordinates (Angstroms)
 Number     Number       Type             X           Y           Z
 ---------------------------------------------------------------------
      1          8           0        0.101150   -0.205627   -1.140199
      2          8           0       -1.878360    0.490492    0.035917
      3          1           0       -1.127746    0.276257   -0.770633
      4          1           0       -1.188020   -0.093869    0.796691
      5          8           0       -0.120082   -0.695390    1.202858
      6          1           0        0.231945   -0.171738    1.942282
      7          6           0        0.925612   -0.426255   -0.188219
      8          6           0        1.831545   -1.631165   -0.239098
      9          1           0        1.314648   -2.517562    0.136842
     10          1           0        2.737802   -1.473849    0.351118
     11          1           0        2.116548   -1.815001   -1.279811
     12          8           0        1.648463    0.671090    0.317308
     13          6           0       -3.108415   -0.243249   -0.133202
     14          1           0       -3.685401   -0.126299    0.785390
     15          1           0       -3.649361    0.199690   -0.971463
     16          1           0       -2.904188   -1.298886   -0.327926
     17          6           0        1.171617    1.974155   -0.043296
     18          1           0        1.924236    2.656501    0.354660
     19          1           0        1.101962    2.065709   -1.129710
     20          1           0        0.196058    2.173607    0.408383
 ---------------------------------------------------------------------
 Rotational constants (GHZ):      2.6881598      1.2718373      1.0721968
 Standard basis: def2TZVP (5D, 7F)
 There are   360 symmetry adapted cartesian basis functions of A   symmetry.
 There are   320 symmetry adapted basis functions of A   symmetry.
   320 basis functions,   504 primitive gaussians,   360 cartesian basis functions
    34 alpha electrons       34 beta electrons
       nuclear repulsion energy       447.6026617164 Hartrees.
 NAtoms=   20 NActive=   20 NUniq=   20 SFac= 1.00D+00 NAtFMM=   60 NAOKFM=F Big=F
 Integral buffers will be    131072 words long.
 Raffenetti 2 integral format.
 Two-electron integral symmetry is turned on.
 One-electron integrals computed using PRISM.
 PrsmSu:  requested number of processors reduced to:   4 ShMem   1 Linda.
   1 Symmetry operations used in ECPInt.
 ECPInt:  NShTT=    9316 NPrTT=   27240 LenC2=    9052 LenP2D=   20841.
 LDataN:  DoStor=T MaxTD1= 6 Len=  172
 NBasis=   320 RedAO= T EigKep=  2.88D-04  NBF=   320
 NBsUse=   320 1.00D-06 EigRej= -1.00D+00 NBFU=   320
 Initial guess from the checkpoint file:  "/lustre/SCRATCH5/gau/mlawal/918252.sched01/Gau-32687.chk"
 B after Tr=     0.000000    0.000000    0.000000
         Rot=    0.999796    0.002912    0.008216    0.018217 Ang=   2.31 deg.
 ExpMin= 9.52D-02 ExpMax= 2.70D+04 ExpMxC= 9.22D+02 IAcc=2 IRadAn=         4 AccDes= 0.00D+00
 Harris functional with IExCor=  402 and IRadAn=       4 diagonalized for initial guess.
 HarFok:  IExCor=  402 AccDes= 0.00D+00 IRadAn=         4 IDoV= 1 UseB2=F ITyADJ=14
 ICtDFT=  3500011 ScaDFX=  1.000000  1.000000  1.000000  1.000000
 FoFCou: FMM=F IPFlag=           0 FMFlag=      100000 FMFlg1=           0
         NFxFlg=           0 DoJE=T BraDBF=F KetDBF=T FulRan=T
         wScrn=  0.000000 ICntrl=     500 IOpCl=  0 I1Cent=   200000004 NGrid=           0
         NMat0=    1 NMatS0=      1 NMatT0=    0 NMatD0=    1 NMtDS0=    0 NMtDT0=    0
 Petite list used in FoFCou.
 Requested convergence on RMS density matrix=1.00D-08 within 128 cycles.
 Requested convergence on MAX density matrix=1.00D-06.
 Requested convergence on             energy=1.00D-06.
 No special actions if energy rises.
 Integral accuracy reduced to 1.0D-05 until final iterations.
 Initial convergence to 1.0D-05 achieved.  Increase integral accuracy.
 SCF Done:  E(RB3LYP) =  -460.701799869     A.U. after   12 cycles
            NFock= 12  Conv=0.73D-08     -V/T= 2.0050
 PrsmSu:  requested number of processors reduced to:   4 ShMem   1 Linda.
   1 Symmetry operations used in ECPInt.
 ECPInt:  NShTT=    9316 NPrTT=   27240 LenC2=    9052 LenP2D=   20841.
 LDataN:  DoStor=T MaxTD1= 7 Len=  274
 Calling FoFJK, ICntrl=      2127 FMM=F ISym2X=0 I1Cent= 0 IOpClX= 0 NMat=1 NMatS=1 NMatT=0.
 ***** Axes restored to original set *****
 -------------------------------------------------------------------
 Center     Atomic                   Forces (Hartrees/Bohr)
 Number     Number              X              Y              Z
 -------------------------------------------------------------------
      1        8           0.001767414   -0.005535126   -0.005876130
      2        8          -0.000207044   -0.010752576   -0.003881066
      3        1           0.004475853   -0.000766807    0.015085033
      4        1           0.013547389    0.000612305   -0.003492862
      5        8          -0.015437318    0.001619551    0.010686101
      6        1           0.002055848   -0.005192339   -0.005831637
      7        6          -0.003994554    0.024919245   -0.000825991
      8        6           0.000489744   -0.008728528    0.002592559
      9        1           0.000257572    0.002430882   -0.002061336
     10        1          -0.003687345    0.000292358   -0.000294836
     11        1          -0.001417171    0.002443983    0.002370838
     12        8           0.001873133   -0.002579993   -0.007769787
     13        6           0.002483765    0.006860883   -0.001927003
     14        1          -0.000897765   -0.001768189   -0.002273110
     15        1          -0.001188500   -0.002524974    0.001579616
     16        1          -0.001256179    0.000628034    0.000375105
     17        6           0.004178550   -0.006311841    0.001722328
     18        1          -0.003150003    0.000722889   -0.001311048
     19        1          -0.000646452    0.001346239    0.002107304
     20        1           0.000753064    0.002284003   -0.000974079
 -------------------------------------------------------------------
 Cartesian Forces:  Max     0.024919245 RMS     0.005854900

 GradGradGradGradGradGradGradGradGradGradGradGradGradGradGradGradGradGrad
 Berny optimization.
 FormGI is forming the generalized inverse of G from B-inverse, IUseBI=4.
 Internal  Forces:  Max     0.032895814 RMS     0.007206615
 Search for a saddle point.
 Step number   2 out of a maximum of   83
 All quantities printed in internal units (Hartrees-Bohrs-Radians)
 Swapping is turned off.
 Update second derivatives using D2CorX and points    1    2
 ITU=  0  0
     Eigenvalues ---   -0.07698  -0.01059  -0.00617  -0.00044   0.00131
     Eigenvalues ---    0.00165   0.00531   0.00910   0.01414   0.03111
     Eigenvalues ---    0.04195   0.04811   0.05438   0.05647   0.05697
     Eigenvalues ---    0.06294   0.06355   0.08338   0.08378   0.08807
     Eigenvalues ---    0.09373   0.12081   0.12242   0.13241   0.13609
     Eigenvalues ---    0.14208   0.14228   0.17037   0.17993   0.18341
     Eigenvalues ---    0.18558   0.18707   0.19059   0.19806   0.22824
     Eigenvalues ---    0.25746   0.30418   0.31842   0.32146   0.32330
     Eigenvalues ---    0.32474   0.32530   0.32624   0.32826   0.32864
     Eigenvalues ---    0.33863   0.35803   0.36040   0.43580   0.45848
     Eigenvalues ---    0.48006   0.93150   2.32033   4.00821
 Eigenvectors required to have negative eigenvalues:
                          R4        R1        R6        R3        D2
   1                    0.50803   0.47201  -0.46232  -0.40137  -0.16614
                          R2        D22       D15       D19       D20
   1                   -0.12970   0.11912   0.09102  -0.09085  -0.09022
 RFO step:  Lambda0=1.009734960D-03 Lambda=-1.22258394D-02.
 Linear search not attempted -- option 19 set.
 Maximum step size (   0.300) exceeded in Quadratic search.
    -- Step size scaled by   0.805
 Iteration  1 RMS(Cart)=  0.17430058 RMS(Int)=  0.03177296
 Iteration  2 RMS(Cart)=  0.03236343 RMS(Int)=  0.00218397
 Iteration  3 RMS(Cart)=  0.00313949 RMS(Int)=  0.00016691
 Iteration  4 RMS(Cart)=  0.00001900 RMS(Int)=  0.00016655
 Iteration  5 RMS(Cart)=  0.00000000 RMS(Int)=  0.00016655
 Variable       Old X    -DE/DX   Delta X   Delta X   Delta X     New X
                                 (Linear)    (Quad)   (Total)
    R1        2.59036  -0.00394   0.00000  -0.18574  -0.18574   2.40462
    R2        2.41610  -0.00939   0.00000  -0.00284  -0.00284   2.41326
    R3        2.12108  -0.00456   0.00000   0.05959   0.05959   2.18067
    R4        2.23342   0.00238   0.00000  -0.06071  -0.06071   2.17271
    R5        2.72541  -0.00074   0.00000  -0.02253  -0.02253   2.70287
    R6        2.44008  -0.00827   0.00000  -0.01922  -0.01922   2.42086
    R7        1.83691  -0.00656   0.00000  -0.01472  -0.01472   1.82219
    R8        2.85036  -0.00009   0.00000  -0.00014  -0.00014   2.85022
    R9        2.66058  -0.00438   0.00000  -0.06111  -0.06111   2.59948
   R10        2.06510  -0.00284   0.00000  -0.00968  -0.00968   2.05542
   R11        2.06526  -0.00316   0.00000  -0.00781  -0.00781   2.05745
   R12        2.06846  -0.00300   0.00000  -0.00611  -0.00611   2.06234
   R13        2.70923  -0.00255   0.00000  -0.00943  -0.00943   2.69980
   R14        2.06180  -0.00160   0.00000  -0.00162  -0.00162   2.06018
   R15        2.06275  -0.00158   0.00000  -0.00227  -0.00227   2.06048
   R16        2.06490  -0.00095   0.00000   0.00031   0.00031   2.06522
   R17        2.06179  -0.00212   0.00000  -0.00564  -0.00564   2.05615
   R18        2.06450  -0.00193   0.00000  -0.00540  -0.00540   2.05910
   R19        2.06621  -0.00075   0.00000   0.00121   0.00121   2.06743
    A1        2.02420  -0.00982   0.00000  -0.02684  -0.02684   1.99736
    A2        1.54835   0.00895   0.00000  -0.00874  -0.00794   1.54042
    A3        1.97034  -0.00097   0.00000  -0.02292  -0.02301   1.94733
    A4        1.89875  -0.00973   0.00000   0.09897   0.09926   1.99801
    A5        2.60678   0.02138   0.00000   0.11363   0.11363   2.72042
    A6        2.72856   0.02143   0.00000  -0.02952  -0.02952   2.69904
    A7        1.86277   0.00792   0.00000   0.09201   0.09201   1.95478
    A8        2.09443  -0.00209   0.00000  -0.01574  -0.01588   2.07856
    A9        2.05322   0.00234   0.00000   0.00946   0.00946   2.06268
   A10        1.90325  -0.00070   0.00000   0.02145   0.02141   1.92466
   A11        1.93077  -0.00019   0.00000  -0.00711  -0.00715   1.92362
   A12        1.94426  -0.00143   0.00000  -0.00716  -0.00720   1.93706
   A13        1.89929  -0.00259   0.00000  -0.01570  -0.01577   1.88352
   A14        1.89991   0.00119   0.00000   0.01143   0.01141   1.91132
   A15        1.89022   0.00117   0.00000   0.00914   0.00907   1.89928
   A16        1.89836   0.00198   0.00000   0.01015   0.01007   1.90843
   A17        2.03457   0.00078   0.00000  -0.00456  -0.00456   2.03001
   A18        1.87316   0.00304   0.00000   0.02447   0.02432   1.89747
   A19        1.88207   0.00360   0.00000   0.01403   0.01390   1.89597
   A20        1.93156   0.00022   0.00000   0.00570   0.00564   1.93720
   A21        1.91876  -0.00251   0.00000  -0.01278  -0.01301   1.90575
   A22        1.93096  -0.00212   0.00000  -0.01677  -0.01686   1.91411
   A23        1.92601  -0.00198   0.00000  -0.01301  -0.01305   1.91296
   A24        1.82064   0.00326   0.00000   0.01829   0.01819   1.83883
   A25        1.92570   0.00152   0.00000   0.00847   0.00840   1.93410
   A26        1.93762   0.00259   0.00000   0.00665   0.00660   1.94422
   A27        1.93295  -0.00193   0.00000  -0.00431  -0.00443   1.92851
   A28        1.92913  -0.00293   0.00000  -0.01482  -0.01489   1.91424
   A29        1.91625  -0.00224   0.00000  -0.01279  -0.01282   1.90343
    D1       -0.21398  -0.03290   0.00000  -0.13061  -0.13061  -0.34459
    D2        2.46981  -0.01278   0.00000  -0.19570  -0.19565   2.27416
    D3       -1.42749  -0.01365   0.00000  -0.16561  -0.16566  -1.59316
    D4       -0.13919  -0.01990   0.00000   0.28291   0.28295   0.14375
    D5       -2.05718  -0.01308   0.00000   0.18153   0.18150  -1.87569
    D6        0.17114  -0.00624   0.00000  -0.35897  -0.35945  -0.18831
    D7        2.15712  -0.00526   0.00000  -0.37410  -0.37361   1.78351
    D8        2.94949   0.00235   0.00000   0.01419   0.01384   2.96332
    D9       -1.26728   0.00292   0.00000   0.01965   0.01944  -1.24784
   D10        0.84088   0.00290   0.00000   0.01598   0.01567   0.85655
   D11        1.26048  -0.00307   0.00000  -0.01280  -0.01257   1.24790
   D12       -2.95629  -0.00250   0.00000  -0.00734  -0.00697  -2.96326
   D13       -0.84813  -0.00252   0.00000  -0.01101  -0.01074  -0.85887
   D14        2.03236  -0.00333   0.00000   0.23856   0.23856   2.27093
   D15       -1.46569   0.00151   0.00000   0.10043   0.10037  -1.36532
   D16        2.70174   0.00111   0.00000   0.09564   0.09563   2.79737
   D17        0.60892   0.00122   0.00000   0.09767   0.09764   0.70656
   D18        2.37396   0.00105   0.00000   0.07569   0.07570   2.44966
   D19        0.25820   0.00065   0.00000   0.07091   0.07096   0.32916
   D20       -1.83462   0.00076   0.00000   0.07294   0.07297  -1.76165
   D21        0.25772   0.00131   0.00000   0.10218   0.10198   0.35970
   D22        2.71993  -0.00022   0.00000   0.11465   0.11485   2.83478
   D23       -3.03811  -0.00009   0.00000  -0.03079  -0.03083  -3.06895
   D24       -0.96152   0.00023   0.00000  -0.02132  -0.02124  -0.98276
   D25        1.16701   0.00018   0.00000  -0.02722  -0.02725   1.13976
         Item               Value     Threshold  Converged?
 Maximum Force            0.032896     0.000450     NO 
 RMS     Force            0.007207     0.000300     NO 
 Maximum Displacement     0.550533     0.001800     NO 
 RMS     Displacement     0.184800     0.001200     NO 
 Predicted change in Energy=-9.300660D-03
 GradGradGradGradGradGradGradGradGradGradGradGradGradGradGradGradGradGrad

                          Input orientation:                          
 ---------------------------------------------------------------------
 Center     Atomic      Atomic             Coordinates (Angstroms)
 Number     Number       Type             X           Y           Z
 ---------------------------------------------------------------------
      1          8           0        0.042674   -0.049074   -1.120487
      2          8           0       -1.936449    0.375287    0.118023
      3          1           0       -1.099267    0.287682   -0.671333
      4          1           0       -1.194295   -0.026784    0.898708
      5          8           0       -0.096333   -0.562806    1.283794
      6          1           0        0.325499   -0.056403    1.987646
      7          6           0        0.915296   -0.288442   -0.219337
      8          6           0        1.712741   -1.566613   -0.291795
      9          1           0        1.115779   -2.402802    0.065238
     10          1           0        2.623952   -1.491733    0.299373
     11          1           0        1.973299   -1.740992   -1.337134
     12          8           0        1.714282    0.748577    0.203085
     13          6           0       -3.026472   -0.504338   -0.171573
     14          1           0       -3.699835   -0.520990    0.685656
     15          1           0       -3.561968   -0.121057   -1.040605
     16          1           0       -2.668831   -1.516157   -0.378136
     17          6           0        1.224389    2.067367   -0.045731
     18          1           0        2.016303    2.736147    0.285178
     19          1           0        1.021821    2.211443   -1.106624
     20          1           0        0.311391    2.267835    0.522740
 ---------------------------------------------------------------------
                    Distance matrix (angstroms):
                    1          2          3          4          5
     1  O    0.000000
     2  O    2.372956   0.000000
     3  H    1.272468   1.153963   0.000000
     4  H    2.368067   1.149749   1.604041   0.000000
     5  O    2.462480   2.371722   2.356210   1.281066   0.000000
     6  H    3.120984   2.966186   3.036203   1.869877   0.964259
     7  C    1.277042   2.947337   2.143521   2.401846   1.832504
     8  C    2.403909   4.153975   3.389668   3.498461   2.600549
     9  H    2.845617   4.127549   3.561976   3.417101   2.517873
    10  H    3.280284   4.931116   4.239216   4.133315   3.038411
    11  H    2.576205   4.677846   3.741586   4.239240   3.541294
    12  O    2.276481   3.670751   2.982129   3.089482   2.483140
    13  C    3.244590   1.430300   2.142703   2.174955   3.272189
    14  H    4.182253   2.057924   3.042749   2.562686   3.653045
    15  H    3.606246   2.056961   2.523554   3.061976   4.196260
    16  H    3.171069   2.088090   2.409010   2.454143   3.207590
    17  C    2.651580   3.588989   2.992998   3.335786   3.229512
    18  H    3.691688   4.607151   4.076355   4.279970   4.042716
    19  H    2.463506   3.690879   2.896438   3.733924   3.828946
    20  H    2.853151   2.966195   2.708648   2.770148   2.959386
                    6          7          8          9         10
     6  H    0.000000
     7  C    2.296188   0.000000
     8  C    3.066109   1.508274   0.000000
     9  H    3.134611   2.142825   1.087681   0.000000
    10  H    3.192699   2.153248   1.088757   1.777485   0.000000
    11  H    4.075199   2.116304   1.091344   1.771999   1.778661
    12  O    2.400285   1.375583   2.367491   3.210670   2.419868
    13  C    4.012304   3.947965   4.858294   4.562729   5.755348
    14  H    4.256094   4.708771   5.598635   5.207329   6.409512
    15  H    4.928173   4.555040   5.520227   5.320768   6.476103
    16  H    4.085807   3.791895   4.382713   3.912288   5.336026
    17  C    3.074577   2.382334   3.674894   4.472866   3.839931
    18  H    3.681786   3.258051   4.351872   5.221889   4.271348
    19  H    3.899038   2.654817   3.926197   4.761655   4.272841
    20  H    2.747404   2.729456   4.162960   4.761428   4.419523
                   11         12         13         14         15
    11  H    0.000000
    12  O    2.938932   0.000000
    13  C    5.280677   4.917816   0.000000
    14  H    6.145285   5.581876   1.090200   0.000000
    15  H    5.775059   5.490159   1.090356   1.777338   0.000000
    16  H    4.745482   4.967748   1.092865   1.784652   1.784059
    17  C    4.090499   1.428675   4.969841   5.610927   5.356136
    18  H    4.762197   2.012061   6.011568   6.591173   6.406124
    19  H    4.071877   2.082023   4.963715   5.742168   5.143544
    20  H    4.721415   2.092469   4.394126   4.888151   4.811836
                   16         17         18         19         20
    16  H    0.000000
    17  C    5.301821   0.000000
    18  H    6.361805   1.088070   0.000000
    19  H    5.295905   1.089627   1.789252   0.000000
    20  H    4.900193   1.094034   1.783950   1.778403   0.000000
 Stoichiometry    C4H12O4
 Framework group  C1[X(C4H12O4)]
 Deg. of freedom    54
 Full point group                 C1      NOp   1
 Largest Abelian subgroup         C1      NOp   1
 Largest concise Abelian subgroup C1      NOp   1
                         Standard orientation:                         
 ---------------------------------------------------------------------
 Center     Atomic      Atomic             Coordinates (Angstroms)
 Number     Number       Type             X           Y           Z
 ---------------------------------------------------------------------
      1          8           0        0.042543   -0.102858   -1.114345
      2          8           0       -1.868972    0.614557    0.094930
      3          1           0       -1.045218    0.397449   -0.683481
      4          1           0       -1.197096    0.126710    0.890234
      5          8           0       -0.188071   -0.550218    1.296152
      6          1           0        0.293998   -0.095310    1.996484
      7          6           0        0.865228   -0.445684   -0.199743
      8          6           0        1.477249   -1.823534   -0.242754
      9          1           0        0.766368   -2.562072    0.120920
     10          1           0        2.384718   -1.866004    0.357320
     11          1           0        1.720206   -2.050705   -1.282176
     12          8           0        1.797243    0.477148    0.214936
     13          6           0       -3.068398   -0.109587   -0.192734
     14          1           0       -3.745082   -0.017338    0.657046
     15          1           0       -3.537482    0.329332   -1.073750
     16          1           0       -2.853534   -1.164804   -0.379027
     17          6           0        1.498271    1.846776   -0.060467
     18          1           0        2.372743    2.404404    0.268539
     19          1           0        1.327194    1.999141   -1.125739
     20          1           0        0.617144    2.182337    0.494441
 ---------------------------------------------------------------------
 Rotational constants (GHZ):      2.6819797      1.2710955      1.0830616
 Standard basis: def2TZVP (5D, 7F)
[...]
 57289,0.02345557,-0.01477100,-0.00201282,0.00025391,-0.00030644,0.0022
 1490,0.00085639,-0.00201752,0.00148074,-0.00047295,0.00222031,-0.01485
 369,0.01021660,0.01121941,-0.00123441,-0.00031333,0.00092816,-0.102243
 32,0.06049691,-0.01248472,0.55531521,0.00912106,0.00248499,0.00523357,
 0.00021006,0.00005551,-0.00089033,-0.00187478,0.00047910,0.00020634,0.
 00087706,-0.00030987,0.00101198,0.00104824,0.00037544,-0.00127213,-0.0
 0012699,-0.00057098,0.00025339,0.05374623,-0.16884187,0.00843208,0.056
 95673,0.52462127,-0.03453002,0.02559595,-0.00664776,-0.00200737,-0.000
 64425,0.00570653,0.00733526,0.00118653,-0.00572543,-0.00363281,0.00142
 378,-0.00530491,0.02213262,-0.01287567,-0.01232013,0.00210791,-0.00078
 144,-0.00054032,-0.01041455,0.00528849,-0.06826859,0.01807259,0.000112
 43,0.57891178,0.00061971,-0.00065351,0.00099280,-0.00003949,-0.0000535
 0,0.00011625,0.00016528,-0.00006889,-0.00005976,-0.00011062,0.00024119
 ,-0.00007380,0.00052853,0.00057381,-0.00033053,-0.00010148,0.00004605,
 -0.00007695,0.01002844,0.01381133,-0.00001672,-0.15727494,-0.13847393,
 0.00028270,0.16769221,0.00093409,0.00318384,-0.00073089,-0.00002644,0.
 00010448,-0.00023410,-0.00008103,-0.00010874,0.00009636,0.00037322,-0.
 00023840,0.00019753,0.00016325,0.00150997,0.00045026,-0.00030974,0.000
 25472,0.00029335,-0.02234004,-0.02111717,-0.00063373,-0.13124711,-0.21
 245001,0.00337617,0.14559394,0.23162514,-0.00062051,0.00007623,-0.0005
 4228,-0.00028237,0.00006528,-0.00018158,0.00006373,-0.00013878,0.00010
 392,0.00035617,-0.00011015,0.00026212,-0.00011259,0.00004567,-0.000799
 11,0.00001341,-0.00005036,0.00005002,0.00232641,0.00035867,-0.00179334
 ,0.00041563,0.00373339,-0.04602535,-0.00182444,-0.00315613,0.04530481,
 -0.00278908,0.00496131,-0.00101783,-0.00014064,-0.00012164,0.00108856,
 0.00145029,0.00011056,-0.00109493,-0.00093524,0.00021992,-0.00095163,0
 .00175576,-0.00085472,0.00154162,-0.00065802,0.00062708,0.00019311,-0.
 01083691,-0.00379278,-0.01587532,-0.12945374,0.00019104,-0.12450834,-0
 .01011803,0.00157065,-0.01536995,0.13848399,0.00733553,-0.00520475,0.0
 0179784,0.00093881,0.00006630,-0.00119378,-0.00208169,-0.00017641,0.00
 151065,0.00054766,-0.00024531,0.00071103,-0.00158413,0.00013239,-0.000
 03756,0.00050171,-0.00009814,-0.00027503,0.01290660,0.00451212,0.02480
 548,-0.00296046,-0.04969030,-0.00460145,-0.01243149,0.00160412,-0.0216
 7468,-0.00100831,0.04941912,-0.00114356,0.00076972,0.00180102,-0.00046
 838,-0.00003805,0.00053917,0.00117750,-0.00010761,-0.00052870,-0.00035
 471,0.00013125,-0.00032250,0.00085366,-0.00021873,0.00096483,-0.000079
 52,0.00000286,0.00017865,0.00052460,-0.00258257,-0.00426439,-0.1272631
 2,0.00051913,-0.23504977,0.00181026,-0.00066376,0.00166126,0.13827103,
 0.00194199,0.25313086,0.00195223,0.00008199,-0.00218178,-0.00008785,0.
 00015455,-0.00097632,-0.00084639,-0.00010289,0.00055780,0.00103325,-0.
 00035460,0.00114539,-0.00151919,0.00256277,0.00112955,-0.00080897,0.00
 030778,0.00014642,-0.01204133,-0.00062258,0.01565334,-0.14020152,0.011
 73555,0.12444507,-0.01112926,0.00261999,0.01502641,0.01263407,-0.00166
 560,-0.01434409,0.15033668,-0.00258918,0.00054417,0.00098515,0.0000705
 8,-0.00016512,0.00109208,0.00095602,0.00001961,-0.00063595,-0.00099203
 ,0.00041018,-0.00137336,0.00410505,-0.00186558,-0.00172256,0.00041356,
 0.00008896,0.00002956,0.01595757,-0.00221509,-0.02358791,0.01109500,-0
 .04882835,-0.01277416,-0.01391881,0.00322426,0.02096332,-0.00042708,-0
 .00102220,0.00015356,-0.01408687,0.04958608,-0.00072622,0.00038784,0.0
 0030668,0.00009281,-0.00004045,0.00056941,0.00060791,-0.00029698,-0.00
 007904,-0.00080859,0.00022314,-0.00073957,0.00067284,-0.00070162,0.001
 82590,-0.00023537,0.00024619,0.00013579,-0.00025563,0.00033394,-0.0011
 8147,0.12528467,-0.01364808,-0.21367225,-0.00097023,0.00065476,0.00039
 680,0.01636143,-0.00165310,-0.01918841,-0.13934542,0.01518166,0.230823
 03,-0.03560951,-0.03275854,-0.03443214,-0.00571726,0.00139891,-0.00121
 873,0.00513655,-0.00277676,-0.00208949,0.00488190,-0.00307979,0.003994
 28,-0.02954102,-0.01875331,0.02202503,-0.00170807,-0.00170950,-0.00160
 589,-0.11447402,-0.02728804,-0.04513277,0.00859184,0.00795012,0.002876
 53,-0.00058542,0.00296328,-0.00002900,0.00055137,-0.00035720,0.0007980
 2,0.00050290,-0.00008369,-0.00065084,0.26541242,-0.03917934,0.00937253
 ,-0.02554958,-0.00867774,0.00397121,-0.00046011,0.00896807,-0.00649711
 ,-0.00343053,0.00614513,-0.00450584,0.00542739,-0.02722106,-0.00343826
 ,0.01531782,-0.00169954,-0.00284952,-0.00017482,-0.02857675,-0.1772681
 9,-0.02177735,-0.02366036,-0.04690678,-0.00421219,0.00432965,-0.006881
 79,-0.00001079,-0.00157400,0.00029208,-0.00017241,-0.00099465,0.000574
 74,-0.00044603,0.02833254,0.47415192,-0.05381502,-0.02549443,-0.014268
 32,-0.00246794,0.00073471,0.00714655,0.00855337,-0.00662785,-0.0063542
 9,-0.00572259,0.00279024,-0.00568672,0.02154578,0.01470208,-0.00078914
 ,-0.00231316,-0.00028695,0.00471659,-0.01799604,0.00155900,-0.07864597
 ,0.00155314,-0.00061600,0.00667141,-0.00027286,0.00131913,0.00109792,0
 .00096671,-0.00111258,0.00083263,-0.00107659,0.00096203,0.00067608,0.0
 8903487,-0.03515966,0.15807624,0.00882955,-0.00117309,0.00030204,-0.15
 388622,-0.06129963,-0.01368905,-0.02372308,-0.00878188,0.00183512,-0.0
 2205597,-0.00614335,-0.00912770,0.00681528,-0.00127640,0.00250378,0.00
 093945,-0.00004047,-0.00036816,-0.00457058,-0.00015845,-0.00148249,0.0
 0055045,-0.00004277,-0.00005455,-0.00002669,0.00002689,0.00007168,0.00
 004487,-0.00014975,0.00005842,0.00013218,-0.00013678,-0.00003786,0.001
 38073,0.00148599,0.00049814,0.50624087,0.01232457,-0.00389519,-0.00275
 072,-0.07573024,-0.12897865,-0.01191189,-0.01330706,0.00498716,0.01019
 827,-0.00905291,0.00983598,-0.01238427,0.00994675,-0.00463029,0.006182
 75,0.00068662,-0.00059671,-0.00007993,-0.00395899,0.00016512,-0.002211
 50,0.00057260,0.00018242,0.00013327,0.00008859,-0.00013223,0.00009236,
 -0.00002194,-0.00020957,0.00009247,0.00005947,-0.00013060,-0.00002678,
 0.00113808,0.00115899,0.00030984,-0.06439360,0.52223286,0.01010921,-0.
 00418093,-0.00147077,-0.01426916,-0.00959953,-0.09126671,-0.00172138,0
 .01511763,0.01167026,-0.00780614,-0.01851599,0.00420764,-0.00525727,0.
 00442683,-0.00170432,0.00002849,0.00005294,0.00018193,-0.00133299,-0.0
 0021898,-0.00543782,0.00008366,-0.00004228,0.00054788,0.00000783,-0.00
 003909,-0.00001165,0.00011700,-0.00017285,0.00010775,-0.00004710,0.000
 05002,0.00007504,0.00035134,0.00043069,0.00046959,-0.01486224,-0.01385
 261,0.58983051,0.00008893,0.00061144,-0.00005404,-0.00038318,-0.037941
 55,-0.00321197,0.00236013,-0.00110338,-0.00084380,0.00239657,-0.001036
 71,0.00114998,-0.00035134,0.00047168,0.00034552,0.00014059,-0.00000158
 ,0.00000185,-0.00028285,-0.00026912,-0.00031389,-0.00004230,-0.0000201
 4,-0.00000133,-0.00011732,0.00006915,-0.00002216,0.00001256,0.00002220
 ,0.00000800,0.00000310,0.00001523,-0.00000258,0.00004846,0.00021443,0.
 00010539,-0.07976968,0.08461888,0.00303533,0.08371521,-0.00207907,0.00
 109961,0.00061835,-0.01260572,-0.02327624,-0.00368592,0.00372809,-0.00
 130129,-0.00246078,0.00318797,-0.00140094,0.00306121,-0.00154943,0.000
 85778,-0.00111306,-0.00014628,0.00011817,0.00003207,0.00021647,-0.0003
 3932,0.00033370,-0.00011062,-0.00006157,-0.00002451,-0.00002342,0.0000
 7410,-0.00001756,0.00001279,0.00004207,-0.00001266,-0.00000564,0.00003
 099,0.00000329,-0.00000719,0.00019316,-0.00000983,0.07852840,-0.272860
 38,-0.00672978,-0.07672030,0.30548857,-0.00096419,0.00001815,-0.000537
 37,-0.00130007,-0.00668952,0.00251885,0.00092736,0.00054033,-0.0002293
 4,0.00005601,-0.00100646,0.00021383,0.00049801,0.00036247,-0.00024501,
 0.00014688,-0.00000726,-0.00004359,0.00006474,-0.00015760,0.00134418,-
 0.00000898,0.00001413,-0.00009218,-0.00002259,0.00001247,0.00005385,-0
 .00002773,0.00001079,-0.00001551,0.00002909,-0.00000023,-0.00001627,-0
 .00001071,-0.00001592,-0.00023321,0.00262502,-0.00609726,-0.05378326,-
 0.00121535,0.00995382,0.04779686,-0.00479860,0.00156172,0.00036692,-0.
 03166886,-0.00635357,0.01905484,0.00496991,-0.00376616,-0.00464907,0.0
 0100842,-0.00042339,0.00202714,-0.00019419,0.00027172,-0.00131579,-0.0
 0011442,0.00001979,0.00004847,0.00115929,0.00013261,0.00259127,-0.0000
 7819,0.00003785,-0.00025473,0.00000760,-0.00000623,0.00000438,-0.00005
 592,0.00007952,-0.00005138,0.00001348,-0.00001954,-0.00001461,-0.00027
 478,-0.00038585,-0.00030756,-0.14772152,0.02613389,0.12088579,-0.00490
 484,0.00305929,0.00866839,0.17151955,-0.00318706,0.00132333,0.00069276
 ,-0.02483656,0.00040826,0.01835622,0.00268408,-0.00297501,-0.00306029,
 0.00083550,0.00008843,0.00047841,-0.00009396,-0.00003079,-0.00024812,-
 0.00001932,0.00006142,0.00001634,0.00049001,0.00007585,0.00113163,-0.0
 0007601,-0.00003821,-0.00012100,-0.00001655,0.00003179,-0.00002783,-0.
 00001137,0.00006084,-0.00002754,0.00000241,0.00000637,-0.00000589,-0.0
 0013508,-0.00021465,-0.00009316,0.02971511,-0.05627588,-0.03260780,0.0
 1887365,-0.00240299,-0.02387919,-0.01875085,0.05768725,-0.00019166,0.0
 0019757,0.00019161,-0.00461507,0.00205471,0.01119270,-0.00099961,-0.00
 073536,-0.00001412,-0.00091313,0.00069671,-0.00005208,0.00052073,-0.00
 027603,-0.00006240,-0.00000279,0.00001631,-0.00002026,-0.00038388,-0.0
 0001202,0.00017027,0.00004114,-0.00001948,-0.00004073,-0.00000332,0.00
 001070,-0.00000186,-0.00000045,0.00000468,-0.00000016,0.00000651,-0.00
 001276,-0.00000590,0.00015064,0.00015805,0.00001931,0.12707294,-0.0284
 7081,-0.20576814,-0.00083859,0.00012781,0.00062997,-0.13721367,0.03162
 835,0.21382262,-0.00054378,0.00009382,0.00100188,-0.02538692,-0.001538
 29,-0.02856435,0.00125174,0.00005741,-0.00179908,0.00334784,-0.0048684
 0,0.00421122,-0.00359020,0.00189894,-0.00129238,-0.00013320,0.00009510
 ,0.00010175,0.00086537,0.00019547,-0.00135673,-0.00006695,-0.00001683,
 0.00012194,0.00001786,-0.00001931,-0.00002990,0.00003499,-0.00000952,0
 .00000501,-0.00005334,0.00003934,0.00003265,-0.00023829,-0.00033108,0.
 00019919,-0.09294424,0.03099866,-0.08933423,-0.00298116,0.00440013,-0.
 00948040,0.01112193,-0.00545997,0.01737421,0.10932002,-0.00016024,0.00
 002792,0.00009235,-0.01924959,0.00432704,-0.02446002,0.00083708,0.0002
 9885,-0.00025960,0.00162222,-0.00360943,0.00254419,-0.00243448,0.00138
 563,-0.00125386,-0.00014274,0.00017015,-0.00003042,0.00036424,-0.00002
 171,-0.00039673,-0.00007362,-0.00004215,0.00005045,-0.00002665,0.00001
 605,0.00000750,0.00002012,0.00000674,-0.00000152,-0.00000871,0.0000315
 4,0.00001522,-0.00012100,-0.00015860,0.00003728,0.03459480,-0.07023254
 ,0.06598588,0.01226626,-0.00622930,0.02691856,-0.00177667,0.00208681,-
 0.00530491,-0.02569310,0.07183699,-0.00088574,0.00026466,0.00017704,-0
 .00725159,-0.00351548,0.00106125,0.00138565,-0.00064940,-0.00050450,0.
 00213554,-0.00099303,0.00186998,-0.00109263,0.00035668,-0.00025131,-0.
 00000726,0.00005582,0.00000385,0.00061388,0.00015295,-0.00021508,-0.00
 007119,-0.00000238,0.00000641,0.00000534,-0.00000934,-0.00001568,-0.00
 000145,0.00002190,-0.00000674,-0.00002216,0.00001472,0.00001230,-0.000
 21284,-0.00027894,0.00001710,-0.09545766,0.06070264,-0.24761207,0.0018
 2946,-0.00010157,0.00262426,-0.00985328,0.00776126,-0.02006932,0.10888
 807,-0.06391248,0.26293614,-0.00568818,-0.00175604,-0.00064799,-0.0013
 8110,0.00133808,0.00026535,0.00166847,-0.00191708,-0.00121343,0.001036
 63,-0.00149219,0.00097770,-0.00334719,-0.00044394,0.00067838,0.0007572
 9,-0.00093502,-0.00024179,0.01639523,-0.01638019,0.01190261,-0.0007191
 8,-0.00203863,-0.00181369,0.00055446,-0.00058399,-0.00003260,-0.000006
 65,-0.00003357,0.00012746,0.00003478,-0.00033953,-0.00001275,-0.101889
 26,0.04895251,-0.02805996,-0.00021955,-0.00005009,-0.00006511,0.000100
 76,0.00015802,0.00000853,-0.00000157,-0.00001362,0.00000988,-0.0000034
 9,-0.00001308,-0.00000039,0.58190087,0.01328402,-0.00034726,0.00918858
 ,0.00402687,-0.00250338,-0.00004721,-0.00542808,0.00331962,0.00182415,
 -0.00399063,0.00249490,-0.00255033,0.00890693,0.00226782,-0.00366104,-
 0.00159944,0.00038940,0.00219905,-0.01324180,-0.06200562,-0.00038012,-
 0.00309087,0.00104310,-0.00074666,0.00073496,0.00014389,-0.00013028,0.
 00031996,0.00017884,0.00032909,0.00036045,-0.00022669,-0.00021790,0.02
 793402,-0.16261055,0.02710475,-0.00037327,-0.00062392,-0.00007976,-0.0
 0019311,-0.00015994,-0.00000729,0.00015634,0.00009710,-0.00005599,0.00
 014750,0.00009315,0.00011717,0.05973919,0.47144222,-0.00084982,0.00060
 667,-0.00568944,-0.00085105,-0.00020809,-0.00102955,-0.00082753,-0.000
 40631,0.00153915,0.00133320,0.00005078,0.00066538,-0.00095224,-0.00072
 723,-0.00001973,0.00023761,0.00092961,-0.00101255,0.01145655,-0.003713
 59,0.00646089,-0.00354890,-0.00358288,0.00199479,0.00045487,-0.0011950
 8,0.00040141,0.00023014,-0.00002273,0.00009463,-0.00018909,0.00065958,
 0.00008971,-0.02542241,0.04164131,-0.08010546,0.00048777,0.00010616,0.
 00008818,-0.00006581,-0.00008147,0.00000226,-0.00003325,-0.00001630,0.
 00001186,-0.00012020,-0.00002637,-0.00006133,-0.00090252,0.04369800,0.
 57226932,0.00073267,-0.00144730,0.00061437,-0.00029820,-0.00032880,0.0
 0007005,0.00022650,0.00045487,0.00005780,-0.00007242,0.00031714,-0.000
 25376,0.00036063,-0.00030049,0.00011970,-0.00010828,0.00006467,-0.0001
 4177,-0.00177090,0.00292888,-0.00155944,0.00041333,0.00029352,0.000124
 42,-0.00007419,0.00015472,-0.00000998,0.00002300,-0.00002883,-0.000005
 70,0.00000171,0.00000355,0.00001430,0.01158232,0.01327834,0.00338207,0
 .00031177,0.00008951,0.00005782,-0.00005524,-0.00006407,-0.00001343,-0
 .00004658,-0.00001835,0.00001597,-0.00002410,-0.00000711,-0.00002363,-
 0.19770403,-0.13046203,-0.05363938,0.20571897,-0.00070542,0.00135130,-
 0.00039309,-0.00041441,0.00020473,-0.00003048,0.00044815,-0.00032528,-
 0.00017926,0.00037943,-0.00023681,0.00028324,-0.00077452,-0.00000073,0
 .00034802,-0.00000087,-0.00008828,-0.00012555,0.00576481,-0.00176525,0
 .00307559,-0.00110177,-0.00092393,-0.00030896,0.00029012,-0.00039733,0
 .00000581,-0.00001701,0.00004524,0.00004123,0.00001674,-0.00005859,-0.
 00003835,-0.02141360,-0.03707641,-0.00571524,0.00003439,0.00006481,0.0
 0002720,0.00002353,0.00001464,0.00000259,-0.00001816,-0.00000943,0.000
 00695,-0.00001380,-0.00000533,-0.00001086,-0.11904347,-0.14699474,-0.0
 4558185,0.13252834,0.17749433,0.00031112,-0.00193082,0.00143315,-0.000
 04360,0.00013732,0.00024172,0.00057973,-0.00006434,-0.00045686,-0.0000
 9103,-0.00014417,-0.00006630,0.00015756,0.00025658,0.00007948,0.000084
 90,-0.00000636,0.00014475,-0.00270260,0.00121027,-0.00226445,0.0002977
 0,0.00027762,0.00028914,-0.00005756,0.00010111,0.00000598,0.00003774,-
 0.00003459,0.00000767,-0.00002770,0.00004402,-0.00000501,0.00800359,0.
 01220199,0.00303012,-0.00003800,0.00003336,0.00000751,0.00002207,0.000
 02307,-0.00000057,-0.00000786,-0.00000379,0.00000235,0.00001441,0.0000
 0359,0.00000093,-0.05497427,-0.05064449,-0.07190682,0.05959875,0.04744
 685,0.06953787,0.00007488,-0.00007960,0.00007164,0.00025842,0.00006435
 ,-0.00036663,-0.00059772,-0.00035893,0.00053269,0.00017883,0.00014520,
 0.00022349,0.00030262,-0.00014246,-0.00033233,-0.00022705,0.00028402,-
 0.00000713,-0.00029997,-0.00208061,0.00052378,-0.00009885,0.00005817,-
 0.00028435,0.00000526,0.00001325,0.00006636,-0.00001194,0.00003834,0.0
 0002943,0.00000622,0.00001661,0.00003048,-0.00220090,0.00722503,-0.013
 81386,-0.00014492,-0.00009314,-0.00004325,0.00000268,0.00001121,0.0000
 0495,0.00004180,0.00002065,-0.00001249,-0.00001398,-0.00000986,0.00000
 959,-0.05548053,0.00016386,-0.03289655,-0.00164820,0.00011611,-0.02317
 033,0.05500956,-0.00203470,-0.00066649,-0.00224868,-0.00005659,0.00012
 704,-0.00038469,-0.00041423,-0.00006413,0.00013751,0.00045839,-0.00029
 103,0.00048942,-0.00163929,-0.00032804,0.00019153,0.00031223,-0.000149
 11,-0.00026217,0.00584786,0.00486056,0.00477661,0.00015000,0.00004026,
 -0.00062969,-0.00003921,-0.00006492,-0.00007644,-0.00018507,0.00017778
 ,-0.00009905,0.00006805,-0.00019284,-0.00004229,0.00771682,-0.01696094
 ,0.03658946,-0.00004824,-0.00000553,-0.00003864,0.00000258,0.00001022,
 0.00001430,0.00001687,0.00000418,0.00000182,-0.00002103,-0.00000328,0.
 00000147,-0.00166620,-0.04738032,-0.00902745,-0.00100984,0.00206699,-0
 .01959617,-0.00523600,0.05679483,0.00161300,-0.00285930,0.00239422,0.0
 0038044,-0.00020259,0.00026147,0.00013893,0.00059928,-0.00023454,-0.00
 050720,0.00011273,-0.00040433,0.00063306,0.00030880,0.00039734,-0.0001
 6937,-0.00017003,0.00029250,-0.00456428,-0.00328847,-0.00299551,0.0002
 0838,0.00026566,-0.00010442,-0.00000389,0.00012081,0.00003335,0.000089
 85,-0.00004542,0.00006622,0.00005409,0.00000884,-0.00000689,-0.0039667
 3,0.01296381,-0.00503426,-0.00005034,-0.00003763,-0.00001254,-0.000005
 92,-0.00000225,-0.00000316,-0.00000051,0.00000510,-0.00000018,0.000027
 98,0.00001570,0.00001717,-0.03306222,-0.00060039,-0.31024629,0.0000402
 2,-0.00118662,-0.00518494,0.04132468,-0.00426708,0.33462009,0.00125069
 ,-0.00021853,0.00050235,0.00009706,-0.00031955,-0.00018086,-0.00017512
 ,0.00026570,0.00020409,0.00002730,0.00007129,0.00000647,0.00124227,-0.
 00015155,-0.00090911,-0.00019621,0.00046148,0.00006026,-0.00291381,-0.
 00343307,-0.00100241,0.00028632,0.00036844,0.00000272,-0.00004193,0.00
 013146,-0.00001067,0.00001526,-0.00005981,0.00004706,0.00003725,-0.000
 07899,-0.00003697,-0.00584996,0.01336868,0.00000691,-0.00018270,-0.000
 04966,0.00006239,0.00001892,0.00000935,0.00001446,0.00001750,-0.000002
 70,-0.00001735,0.00001990,0.00001213,0.00001229,-0.23600776,0.04260513
 ,0.10609861,-0.01756875,0.00390139,0.01200536,0.00484379,-0.00222240,-
 0.00218018,0.25507996,-0.00199676,0.00034874,-0.00109338,-0.00015139,0
 .00044404,0.00014394,0.00051084,-0.00087718,-0.00070476,0.00000954,-0.
 00080450,0.00045673,-0.00179005,0.00134559,0.00104049,0.00018096,-0.00
 059493,0.00046749,0.00822304,0.00428715,-0.00054450,-0.00094660,-0.000
 61806,0.00055293,-0.00000367,-0.00038175,0.00004478,-0.00001953,0.0001
 0906,-0.00005741,-0.00012820,0.00018817,0.00007144,0.03104993,-0.02434
 598,-0.01099282,-0.00036790,-0.00005587,-0.00001295,0.00009688,0.00010
 265,0.00001314,0.00003080,0.00001532,-0.00001630,0.00004495,0.00002146
 ,0.00002422,0.03651883,-0.05861764,-0.02310275,-0.01644670,0.00664005,
 0.01068897,-0.00015620,0.00202477,-0.00174094,-0.05465878,0.07076892,-
 0.00066067,0.00108847,0.00019309,-0.00002259,0.00063053,-0.00030339,0.
 00004195,-0.00085833,-0.00013933,0.00077935,-0.00025395,0.00066948,-0.
 00069290,-0.00029341,-0.00024503,0.00009993,0.00039423,-0.00037651,0.0
 0088367,-0.00055971,0.00124951,0.00014708,0.00001385,-0.00033610,0.000
 04259,0.00002950,-0.00000059,-0.00004957,0.00001941,-0.00000851,0.0000
 1659,-0.00003761,-0.00001594,-0.01246273,0.00354726,0.00836383,-0.0002
 8688,-0.00002774,-0.00011900,0.00007786,0.00008608,0.00001542,0.000054
 50,0.00002085,-0.00000553,-0.00000103,-0.00002481,0.00000961,0.1070568
 0,-0.02533933,-0.11354642,-0.00844837,0.00233277,0.00510426,0.02810983
 ,-0.00552976,-0.01385529,-0.11468542,0.02476169,0.11334643\\-0.0000016
 8,-0.00001469,0.00001858,-0.00000501,0.00000196,-0.00000043,0.00000478
 ,0.00002564,-0.00001181,-0.00000496,-0.00001561,-0.00000805,0.00001725
 ,0.00000333,-0.00000358,0.00000315,0.00000293,-0.00000632,-0.00000755,
 -0.00000734,0.00000127,-0.00000617,-0.00000078,0.00000145,-0.00000280,
 -0.00000109,-0.00000085,-0.00000265,-0.00000297,0.00000122,-0.00000139
 ,-0.00000196,0.00000052,0.00000107,0.00000163,0.00000211,-0.00000124,0
 .00000484,0.00000615,-0.00000190,0.00000252,0.00000105,-0.00000041,0.0
 0000446,0.00000121,-0.00000093,0.00000340,0.00000123,0.00000150,-0.000
 00117,0.00000005,0.00000391,-0.00000293,-0.00000236,0.00000153,-0.0000
 0205,-0.00000110,0.00000351,-0.00000012,-0.00000036\\\@


 THERE'S NOTHING SO GREAT AS THE GREAT OUTDOORS.

                                       -- ZIGGY
 Job cpu time:       0 days  2 hours 12 minutes 35.0 seconds.
 File lengths (MBytes):  RWF=    166 Int=      0 D2E=      0 Chk=      9 Scr=      1
 Normal termination of Gaussian 09 at Fri Jun  5 18:06:37 2015.
