 Entering Gaussian System, Link 0=g09
 Initial command:
 /opt/gridware/applications/gaussian/g09/l1.exe "/lustre/SCRATCH5/gau/Gau-9224.inp" -scrdir="/lustre/SCRATCH5/gau/"
 Entering Link 1 = /opt/gridware/applications/gaussian/g09/l1.exe PID=      9225.
  
 Copyright (c) 1988,1990,1992,1993,1995,1998,2003,2009,2013,
            Gaussian, Inc.  All Rights Reserved.
  
 This is part of the Gaussian(R) 09 program.  It is based on
 the Gaussian(R) 03 system (copyright 2003, Gaussian, Inc.),
 the Gaussian(R) 98 system (copyright 1998, Gaussian, Inc.),
 the Gaussian(R) 94 system (copyright 1995, Gaussian, Inc.),
 the Gaussian 92(TM) system (copyright 1992, Gaussian, Inc.),
 the Gaussian 90(TM) system (copyright 1990, Gaussian, Inc.),
 the Gaussian 88(TM) system (copyright 1988, Gaussian, Inc.),
 the Gaussian 86(TM) system (copyright 1986, Carnegie Mellon
 University), and the Gaussian 82(TM) system (copyright 1983,
 Carnegie Mellon University). Gaussian is a federally registered
 trademark of Gaussian, Inc.
  
 This software contains proprietary and confidential information,
 including trade secrets, belonging to Gaussian, Inc.
  
 This software is provided under written license and may be
 used, copied, transmitted, or stored only in accord with that
 written license.
  
 The following legend is applicable only to US Government
 contracts under FAR:
  
                    RESTRICTED RIGHTS LEGEND
  
 Use, reproduction and disclosure by the US Government is
 subject to restrictions as set forth in subparagraphs (a)
 and (c) of the Commercial Computer Software - Restricted
 Rights clause in FAR 52.227-19.
  
 Gaussian, Inc.
 340 Quinnipiac St., Bldg. 40, Wallingford CT 06492
  
  
 ---------------------------------------------------------------
 Warning -- This program may not be used in any manner that
 competes with the business of Gaussian, Inc. or will provide
 assistance to any competitor of Gaussian, Inc.  The licensee
 of this program is prohibited from giving any competitor of
 Gaussian, Inc. access to this program.  By using this program,
 the user acknowledges that Gaussian, Inc. is engaged in the
 business of creating and licensing software in the field of
 computational chemistry and represents and warrants to the
 licensee that it is not a competitor of Gaussian, Inc. and that
 it will not use this program in any manner prohibited above.
 ---------------------------------------------------------------
  

 Cite this work as:
 Gaussian 09, Revision D.01,
 M. J. Frisch, G. W. Trucks, H. B. Schlegel, G. E. Scuseria, 
 M. A. Robb, J. R. Cheeseman, G. Scalmani, V. Barone, B. Mennucci, 
 G. A. Petersson, H. Nakatsuji, M. Caricato, X. Li, H. P. Hratchian, 
 A. F. Izmaylov, J. Bloino, G. Zheng, J. L. Sonnenberg, M. Hada, 
 M. Ehara, K. Toyota, R. Fukuda, J. Hasegawa, M. Ishida, T. Nakajima, 
 Y. Honda, O. Kitao, H. Nakai, T. Vreven, J. A. Montgomery, Jr., 
 J. E. Peralta, F. Ogliaro, M. Bearpark, J. J. Heyd, E. Brothers, 
 K. N. Kudin, V. N. Staroverov, T. Keith, R. Kobayashi, J. Normand, 
 K. Raghavachari, A. Rendell, J. C. Burant, S. S. Iyengar, J. Tomasi, 
 M. Cossi, N. Rega, J. M. Millam, M. Klene, J. E. Knox, J. B. Cross, 
 V. Bakken, C. Adamo, J. Jaramillo, R. Gomperts, R. E. Stratmann, 
 O. Yazyev, A. J. Austin, R. Cammi, C. Pomelli, J. W. Ochterski, 
 R. L. Martin, K. Morokuma, V. G. Zakrzewski, G. A. Voth, 
 P. Salvador, J. J. Dannenberg, S. Dapprich, A. D. Daniels, 
 O. Farkas, J. B. Foresman, J. V. Ortiz, J. Cioslowski, 
 and D. J. Fox, Gaussian, Inc., Wallingford CT, 2013.
 
 ******************************************
 Gaussian 09:  EM64L-G09RevD.01 24-Apr-2013
                25-Feb-2015 
 ******************************************
 %nprocshared=8
 Will use up to    8 processors via shared memory.
 %nprocl=1
 Will use up to    1 processors via Linda.
 ----------------------------------------------------------
 # opt freq b3lyp/gen geom=connectivity gfinput pseudo=read
 ----------------------------------------------------------
 1/14=-1,18=20,19=15,26=3,38=1,57=2/1,3;
 2/9=110,12=2,17=6,18=5,40=1/2;
 3/5=7,11=2,16=1,17=8,24=10,25=1,30=1,71=1,74=-5/1,2,3;
 4//1;
 5/5=2,38=5/2;
 6/7=2,8=2,9=2,10=2,28=1/1;
 7//1,2,3,16;
 1/14=-1,18=20,19=15,26=3/3(2);
 2/9=110/2;
 99//99;
 2/9=110/2;
 3/5=7,6=1,11=2,16=1,17=8,25=1,30=1,71=1,74=-5,82=7/1,2,3;
 4/5=5,16=3,69=1/1;
 5/5=2,38=5/2;
 7//1,2,3,16;
 1/14=-1,18=20,19=15,26=3/3(-5);
 2/9=110/2;
 6/7=2,8=2,9=2,10=2,19=2,28=1/1;
 99/9=1/99;
 -----------------------
 gen calculation BrAc-C H O=6-31+g(d)/Br=Def2TZVP
 -----------------------
 Symbolic Z-matrix:
 Charge =  0 Multiplicity = 1
 C                     1.01121   0.23761   0.00018 
 C                     1.72256  -1.06187  -0.00003 
 H                     1.46581  -1.67485   0.8825 
 H                     1.46445  -1.67517  -0.88197 
 H                     2.81725  -0.92328  -0.00081 
 O                     1.46701   1.33296  -0.00006 
 Br                   -0.96818  -0.04128  -0.00001 
 

 GradGradGradGradGradGradGradGradGradGradGradGradGradGradGradGradGradGrad
 Berny optimization.
 Initialization pass.
                           ----------------------------
                           !    Initial Parameters    !
                           ! (Angstroms and Degrees)  !
 --------------------------                            --------------------------
 ! Name  Definition              Value          Derivative Info.                !
 --------------------------------------------------------------------------------
 ! R1    R(1,2)                  1.4814         estimate D2E/DX2                !
 ! R2    R(1,6)                  1.1864         estimate D2E/DX2                !
 ! R3    R(1,7)                  1.9989         estimate D2E/DX2                !
 ! R4    R(2,3)                  1.1048         estimate D2E/DX2                !
 ! R5    R(2,4)                  1.1048         estimate D2E/DX2                !
 ! R6    R(2,5)                  1.1034         estimate D2E/DX2                !
 ! A1    A(2,1,6)              128.7098         estimate D2E/DX2                !
 ! A2    A(2,1,7)              110.6765         estimate D2E/DX2                !
 ! A3    A(6,1,7)              120.6137         estimate D2E/DX2                !
 ! A4    A(1,2,3)              112.0239         estimate D2E/DX2                !
 ! A5    A(1,2,4)              112.0164         estimate D2E/DX2                !
 ! A6    A(1,2,5)              111.4811         estimate D2E/DX2                !
 ! A7    A(3,2,4)              105.9857         estimate D2E/DX2                !
 ! A8    A(3,2,5)              107.5067         estimate D2E/DX2                !
 ! A9    A(4,2,5)              107.5132         estimate D2E/DX2                !
 ! D1    D(6,1,2,3)            120.5048         estimate D2E/DX2                !
 ! D2    D(6,1,2,4)           -120.5474         estimate D2E/DX2                !
 ! D3    D(6,1,2,5)             -0.0197         estimate D2E/DX2                !
 ! D4    D(7,1,2,3)            -59.5249         estimate D2E/DX2                !
 ! D5    D(7,1,2,4)             59.4229         estimate D2E/DX2                !
 ! D6    D(7,1,2,5)            179.9506         estimate D2E/DX2                !
 --------------------------------------------------------------------------------
 Trust Radius=3.00D-01 FncErr=1.00D-07 GrdErr=1.00D-06
 Number of steps in this run=     31 maximum allowed number of steps=    100.
 GradGradGradGradGradGradGradGradGradGradGradGradGradGradGradGradGradGrad

                          Input orientation:                          
 ---------------------------------------------------------------------
 Center     Atomic      Atomic             Coordinates (Angstroms)
 Number     Number       Type             X           Y           Z
 ---------------------------------------------------------------------
      1          6           0        1.011206    0.237614    0.000180
      2          6           0        1.722556   -1.061873   -0.000028
      3          1           0        1.465808   -1.674851    0.882500
      4          1           0        1.464453   -1.675170   -0.881972
      5          1           0        2.817250   -0.923279   -0.000814
      6          8           0        1.467008    1.332956   -0.000055
      7         35           0       -0.968176   -0.041280   -0.000005
 ---------------------------------------------------------------------
                    Distance matrix (angstroms):
                    1          2          3          4          5
     1  C    0.000000
     2  C    1.481447   0.000000
     3  H    2.154687   1.104770   0.000000
     4  H    2.154615   1.104797   1.764473   0.000000
     5  H    2.146967   1.103433   1.780870   1.780966   0.000000
     6  O    1.186394   2.408425   3.134614   3.134742   2.629401
     7  Br   1.998933   2.877785   3.061315   3.060253   3.886820
                    6          7
     6  O    0.000000
     7  Br   2.796184   0.000000
 Stoichiometry    C2H3BrO
 Framework group  C1[X(C2H3BrO)]
 Deg. of freedom    15
 Full point group                 C1      NOp   1
 Largest Abelian subgroup         C1      NOp   1
 Largest concise Abelian subgroup C1      NOp   1
                         Standard orientation:                         
 ---------------------------------------------------------------------
 Center     Atomic      Atomic             Coordinates (Angstroms)
 Number     Number       Type             X           Y           Z
 ---------------------------------------------------------------------
      1          6           0        1.011206    0.237614    0.000180
      2          6           0        1.722556   -1.061873   -0.000028
      3          1           0        1.465808   -1.674851    0.882500
      4          1           0        1.464453   -1.675170   -0.881972
      5          1           0        2.817250   -0.923279   -0.000814
      6          8           0        1.467008    1.332956   -0.000055
      7         35           0       -0.968176   -0.041280   -0.000005
 ---------------------------------------------------------------------
 Rotational constants (GHZ):     10.0778499      2.9893900      2.3389884
 General basis read from cards:  (5D, 7F)
 ======================================================================================================
                                       Pseudopotential Parameters
 ======================================================================================================
  Center     Atomic      Valence      Angular      Power
  Number     Number     Electrons     Momentum     of R      Exponent        Coefficient   SO-Coeffient
 ======================================================================================================
    1          6
                                   No pseudopotential on this center.
    2          6
                                   No pseudopotential on this center.
    3          1
                                   No pseudopotential on this center.
    4          1
                                   No pseudopotential on this center.
    5          1
                                   No pseudopotential on this center.
    6          8
                                   No pseudopotential on this center.
    7         35
                                   No pseudopotential on this center.
 ======================================================================================================
 AO basis set in the form of general basis input (Overlap normalization):
      1 0
 S   6 1.00       0.000000000000
      0.3047524880D+04  0.1834737132D-02
      0.4573695180D+03  0.1403732281D-01
      0.1039486850D+03  0.6884262226D-01
      0.2921015530D+02  0.2321844432D+00
      0.9286662960D+01  0.4679413484D+00
      0.3163926960D+01  0.3623119853D+00
 SP   3 1.00       0.000000000000
      0.7868272350D+01 -0.1193324198D+00  0.6899906659D-01
      0.1881288540D+01 -0.1608541517D+00  0.3164239610D+00
      0.5442492580D+00  0.1143456438D+01  0.7443082909D+00
 SP   1 1.00       0.000000000000
      0.1687144782D+00  0.1000000000D+01  0.1000000000D+01
 SP   1 1.00       0.000000000000
      0.4380000000D-01  0.1000000000D+01  0.1000000000D+01
 D   1 1.00       0.000000000000
      0.8000000000D+00  0.1000000000D+01
 ****
      2 0
 S   6 1.00       0.000000000000
      0.3047524880D+04  0.1834737132D-02
      0.4573695180D+03  0.1403732281D-01
      0.1039486850D+03  0.6884262226D-01
      0.2921015530D+02  0.2321844432D+00
      0.9286662960D+01  0.4679413484D+00
      0.3163926960D+01  0.3623119853D+00
 SP   3 1.00       0.000000000000
      0.7868272350D+01 -0.1193324198D+00  0.6899906659D-01
      0.1881288540D+01 -0.1608541517D+00  0.3164239610D+00
      0.5442492580D+00  0.1143456438D+01  0.7443082909D+00
 SP   1 1.00       0.000000000000
      0.1687144782D+00  0.1000000000D+01  0.1000000000D+01
 SP   1 1.00       0.000000000000
      0.4380000000D-01  0.1000000000D+01  0.1000000000D+01
 D   1 1.00       0.000000000000
      0.8000000000D+00  0.1000000000D+01
 ****
      3 0
 S   3 1.00       0.000000000000
      0.1873113696D+02  0.3349460434D-01
      0.2825394365D+01  0.2347269535D+00
      0.6401216923D+00  0.8137573261D+00
 S   1 1.00       0.000000000000
      0.1612777588D+00  0.1000000000D+01
 ****
      4 0
 S   3 1.00       0.000000000000
      0.1873113696D+02  0.3349460434D-01
      0.2825394365D+01  0.2347269535D+00
      0.6401216923D+00  0.8137573261D+00
 S   1 1.00       0.000000000000
      0.1612777588D+00  0.1000000000D+01
 ****
      5 0
 S   3 1.00       0.000000000000
      0.1873113696D+02  0.3349460434D-01
      0.2825394365D+01  0.2347269535D+00
      0.6401216923D+00  0.8137573261D+00
 S   1 1.00       0.000000000000
      0.1612777588D+00  0.1000000000D+01
 ****
      6 0
 S   6 1.00       0.000000000000
      0.5484671660D+04  0.1831074430D-02
      0.8252349460D+03  0.1395017220D-01
      0.1880469580D+03  0.6844507810D-01
      0.5296450000D+02  0.2327143360D+00
      0.1689757040D+02  0.4701928980D+00
      0.5799635340D+01  0.3585208530D+00
 SP   3 1.00       0.000000000000
      0.1553961625D+02 -0.1107775495D+00  0.7087426823D-01
      0.3599933586D+01 -0.1480262627D+00  0.3397528391D+00
      0.1013761750D+01  0.1130767015D+01  0.7271585773D+00
 SP   1 1.00       0.000000000000
      0.2700058226D+00  0.1000000000D+01  0.1000000000D+01
 SP   1 1.00       0.000000000000
      0.8450000000D-01  0.1000000000D+01  0.1000000000D+01
 D   1 1.00       0.000000000000
      0.8000000000D+00  0.1000000000D+01
 ****
      7 0
 S   8 1.00       0.000000000000
      0.5650732526D+06  0.2313996799D-03
      0.8470172318D+05  0.1794480895D-02
      0.1927627190D+05  0.9336632833D-02
      0.5456428458D+04  0.3802214115D-01
      0.1776950350D+04  0.1243860819D+00
      0.6391939828D+03  0.2976826547D+00
      0.2487882396D+03  0.4351247869D+00
      0.9867830549D+02  0.2384543263D+00
 S   4 1.00       0.000000000000
      0.6060782457D+03 -0.2580299811D-01
      0.1884559848D+03 -0.1214377016D+00
      0.3149714451D+02  0.5492715414D+00
      0.1373600832D+02  0.5403867432D+00
 S   2 1.00       0.000000000000
      0.2120321277D+02 -0.4189765707D+00
      0.3761642018D+01  0.1196292202D+01
 S   1 1.00       0.000000000000
      0.1773593396D+01  0.1000000000D+01
 S   1 1.00       0.000000000000
      0.4519741366D+00  0.1000000000D+01
 S   1 1.00       0.000000000000
      0.1661337710D+00  0.1000000000D+01
 P   6 1.00       0.000000000000
      0.3019695572D+04  0.2697896720D-02
      0.7153548113D+03  0.2206117705D-01
      0.2299832875D+03  0.1046886297D+00
      0.8616784462D+02  0.3030971016D+00
      0.3466787080D+02  0.4819318191D+00
      0.1411387031D+02  0.2637288336D+00
 P   4 1.00       0.000000000000
      0.5708565308D+02 -0.1928818758D-01
      0.8819384584D+01  0.2886445949D+00
      0.3934030287D+01  0.5105806350D+00
      0.1799883038D+01  0.2962687446D+00
 P   1 1.00       0.000000000000
      0.6689941051D+00  0.1000000000D+01
 P   1 1.00       0.000000000000
      0.2713623823D+00  0.1000000000D+01
 P   1 1.00       0.000000000000
      0.1008379024D+00  0.1000000000D+01
 D   5 1.00       0.000000000000
      0.1688537026D+03  0.9842827717D-02
      0.4997794992D+02  0.6812837709D-01
      0.1827491334D+02  0.2357380148D+00
      0.7245569463D+01  0.4427795439D+00
      0.2856231503D+01  0.4633455553D+00
 D   1 1.00       0.000000000000
      0.1045962114D+01  0.1000000000D+01
 D   1 1.00       0.000000000000
      0.5686565500D+00  0.1000000000D+01
 D   1 1.00       0.000000000000
      0.2203149000D+00  0.1000000000D+01
 F   1 1.00       0.000000000000
      0.5708331200D+00  0.1000000000D+01
 ****

 There are   118 symmetry adapted cartesian basis functions of A   symmetry.
 There are   108 symmetry adapted basis functions of A   symmetry.
   108 basis functions,   222 primitive gaussians,   118 cartesian basis functions
    29 alpha electrons       29 beta electrons
       nuclear repulsion energy       227.1383430167 Hartrees.
 NAtoms=    7 NActive=    7 NUniq=    7 SFac= 1.00D+00 NAtFMM=   60 NAOKFM=F Big=F
 Integral buffers will be    131072 words long.
 Raffenetti 2 integral format.
 Two-electron integral symmetry is turned on.
 One-electron integrals computed using PRISM.
 PrsmSu:  requested number of processors reduced to:   4 ShMem   1 Linda.
   1 Symmetry operations used in ECPInt.
 ECPInt:  NShTT=     703 NPrTT=    3957 LenC2=     697 LenP2D=    3058.
 LDataN:  DoStor=T MaxTD1= 6 Len=  172
 NBasis=   108 RedAO= T EigKep=  2.23D-04  NBF=   108
 NBsUse=   108 1.00D-06 EigRej= -1.00D+00 NBFU=   108
 ExpMin= 4.38D-02 ExpMax= 5.65D+05 ExpMxC= 5.46D+03 IAcc=2 IRadAn=         4 AccDes= 0.00D+00
 Harris functional with IExCor=  402 and IRadAn=       4 diagonalized for initial guess.
 HarFok:  IExCor=  402 AccDes= 0.00D+00 IRadAn=         4 IDoV= 1 UseB2=F ITyADJ=14
 ICtDFT=  3500011 ScaDFX=  1.000000  1.000000  1.000000  1.000000
 FoFCou: FMM=F IPFlag=           0 FMFlag=      100000 FMFlg1=           0
         NFxFlg=           0 DoJE=T BraDBF=F KetDBF=T FulRan=T
         wScrn=  0.000000 ICntrl=     500 IOpCl=  0 I1Cent=   200000004 NGrid=           0
         NMat0=    1 NMatS0=      1 NMatT0=    0 NMatD0=    1 NMtDS0=    0 NMtDT0=    0
 Petite list used in FoFCou.
 Keep R1 ints in memory in canonical form, NReq=19390239.
 Requested convergence on RMS density matrix=1.00D-08 within 128 cycles.
 Requested convergence on MAX density matrix=1.00D-06.
 Requested convergence on             energy=1.00D-06.
 No special actions if energy rises.
 SCF Done:  E(RB3LYP) =  -2727.43681742     A.U. after   12 cycles
            NFock= 12  Conv=0.74D-08     -V/T= 2.0018

 **********************************************************************

            Population analysis using the SCF density.

 **********************************************************************

 Orbital symmetries:
       Occupied  (A) (A) (A) (A) (A) (A) (A) (A) (A) (A) (A) (A)
                 (A) (A) (A) (A) (A) (A) (A) (A) (A) (A) (A) (A)
                 (A) (A) (A) (A) (A)
       Virtual   (A) (A) (A) (A) (A) (A) (A) (A) (A) (A) (A) (A)
                 (A) (A) (A) (A) (A) (A) (A) (A) (A) (A) (A) (A)
                 (A) (A) (A) (A) (A) (A) (A) (A) (A) (A) (A) (A)
                 (A) (A) (A) (A) (A) (A) (A) (A) (A) (A) (A) (A)
                 (A) (A) (A) (A) (A) (A) (A) (A) (A) (A) (A) (A)
                 (A) (A) (A) (A) (A) (A) (A) (A) (A) (A) (A) (A)
                 (A) (A) (A) (A) (A) (A) (A)
 The electronic state is 1-A.
 Alpha  occ. eigenvalues -- -482.85945 -62.50758 -56.32340 -56.32057 -56.32011
 Alpha  occ. eigenvalues --  -19.20524 -10.35098 -10.22723  -8.69856  -6.52706
 Alpha  occ. eigenvalues --   -6.51813  -6.51681  -2.64182  -2.63952  -2.63850
 Alpha  occ. eigenvalues --   -2.63132  -2.63128  -1.11395  -0.81609  -0.76272
 Alpha  occ. eigenvalues --   -0.57382  -0.49773  -0.48979  -0.48591  -0.42007
 Alpha  occ. eigenvalues --   -0.41132  -0.30912  -0.30562  -0.29545
 Alpha virt. eigenvalues --   -0.05811  -0.02687   0.00091   0.03558   0.04591
 Alpha virt. eigenvalues --    0.04870   0.08054   0.08375   0.08772   0.11673
 Alpha virt. eigenvalues --    0.15293   0.16168   0.22296   0.22785   0.23078
 Alpha virt. eigenvalues --    0.24237   0.26169   0.27548   0.30311   0.30693
 Alpha virt. eigenvalues --    0.31668   0.32230   0.36430   0.37710   0.41141
 Alpha virt. eigenvalues --    0.47512   0.51785   0.62791   0.63194   0.66350
 Alpha virt. eigenvalues --    0.71356   0.75148   0.83428   0.84882   0.88455
 Alpha virt. eigenvalues --    0.95106   1.03040   1.07041   1.19510   1.19877
 Alpha virt. eigenvalues --    1.24987   1.28433   1.31071   1.33613   1.33980
 Alpha virt. eigenvalues --    1.36117   1.37604   1.39864   1.40586   1.52047
 Alpha virt. eigenvalues --    1.52289   1.52338   1.53659   1.61904   1.62427
 Alpha virt. eigenvalues --    1.63291   1.64186   1.68516   1.71468   1.73959
 Alpha virt. eigenvalues --    1.78406   1.86018   1.92985   2.00867   2.04127
 Alpha virt. eigenvalues --    2.14705   2.31670   2.34226   2.47319   2.58715
 Alpha virt. eigenvalues --    2.60101   2.89736   3.12918   3.97450   4.00547
 Alpha virt. eigenvalues --    4.00718   4.06955   4.16159   7.34096
          Condensed to atoms (all electrons):
               1          2          3          4          5          6
     1  C    4.679550   0.184288  -0.034570  -0.034670  -0.047100   0.417854
     2  C    0.184288   5.660626   0.375667   0.375766   0.377772  -0.069934
     3  H   -0.034570   0.375667   0.456553  -0.022933  -0.024516   0.000791
     4  H   -0.034670   0.375766  -0.022933   0.456568  -0.024518   0.000796
     5  H   -0.047100   0.377772  -0.024516  -0.024518   0.469648   0.001426
     6  O    0.417854  -0.069934   0.000791   0.000796   0.001426   8.068680
     7  Br   0.300782  -0.106532  -0.003917  -0.003925   0.006230  -0.115564
               7
     1  C    0.300782
     2  C   -0.106532
     3  H   -0.003917
     4  H   -0.003925
     5  H    0.006230
     6  O   -0.115564
     7  Br  35.101986
 Mulliken charges:
               1
     1  C    0.533866
     2  C   -0.797654
     3  H    0.252924
     4  H    0.252916
     5  H    0.241058
     6  O   -0.304049
     7  Br  -0.179061
 Sum of Mulliken charges =   0.00000
 Mulliken charges with hydrogens summed into heavy atoms:
               1
     1  C    0.533866
     2  C   -0.050756
     6  O   -0.304049
     7  Br  -0.179061
 Electronic spatial extent (au):  <R**2>=            493.3334
 Charge=              0.0000 electrons
 Dipole moment (field-independent basis, Debye):
    X=              1.3937    Y=             -2.6104    Z=              0.0002  Tot=              2.9591
 Quadrupole moment (field-independent basis, Debye-Ang):
   XX=            -34.6160   YY=            -37.9915   ZZ=            -35.7325
   XY=             -4.5178   XZ=              0.0010   YZ=              0.0002
 Traceless Quadrupole moment (field-independent basis, Debye-Ang):
   XX=              1.4973   YY=             -1.8782   ZZ=              0.3808
   XY=             -4.5178   XZ=              0.0010   YZ=              0.0002
 Octapole moment (field-independent basis, Debye-Ang**2):
  XXX=            -24.5141  YYY=             -3.9944  ZZZ=              0.0008  XYY=             -9.1705
  XXY=             -7.2201  XXZ=             -0.0009  XZZ=             -6.4647  YZZ=             -0.1047
  YYZ=             -0.0001  XYZ=             -0.0010
 Hexadecapole moment (field-independent basis, Debye-Ang**3):
 XXXX=           -366.9842 YYYY=           -167.4964 ZZZZ=            -46.5544 XXXY=             -6.4041
 XXXZ=             -0.0037 YYYX=             -2.7197 YYYZ=              0.0003 ZZZX=              0.0038
 ZZZY=             -0.0023 XXYY=            -96.2713 XXZZ=            -72.4318 YYZZ=            -32.5079
 XXYZ=             -0.0019 YYXZ=              0.0031 ZZXY=              1.0596
 N-N= 2.271383430167D+02 E-N=-6.964267181662D+03  KE= 2.722615749518D+03
 PrsmSu:  requested number of processors reduced to:   3 ShMem   1 Linda.
   1 Symmetry operations used in ECPInt.
 ECPInt:  NShTT=     703 NPrTT=    3957 LenC2=     697 LenP2D=    3058.
 LDataN:  DoStor=T MaxTD1= 7 Len=  274
 Calling FoFJK, ICntrl=      2127 FMM=F ISym2X=0 I1Cent= 0 IOpClX= 0 NMat=1 NMatS=1 NMatT=0.
 ***** Axes restored to original set *****
 -------------------------------------------------------------------
 Center     Atomic                   Forces (Hartrees/Bohr)
 Number     Number              X              Y              Z
 -------------------------------------------------------------------
      1        6          -0.006625644    0.000983429   -0.000043733
      2        6           0.017837960   -0.023352795   -0.000012519
      3        1          -0.002455061    0.006082604   -0.003942721
      4        1          -0.002432314    0.006092062    0.003962771
      5        1          -0.005722332    0.004286241    0.000002486
      6        8           0.001269236    0.004069440    0.000020036
      7       35          -0.001871846    0.001839020    0.000013681
 -------------------------------------------------------------------
 Cartesian Forces:  Max     0.023352795 RMS     0.007243691

 GradGradGradGradGradGradGradGradGradGradGradGradGradGradGradGradGradGrad
 Berny optimization.
 FormGI is forming the generalized inverse of G from B-inverse, IUseBI=4.
 Internal  Forces:  Max     0.009521388 RMS     0.004281276
 Search for a local minimum.
 Step number   1 out of a maximum of   31
 All quantities printed in internal units (Hartrees-Bohrs-Radians)
 Mixed Optimization -- RFO/linear search
 Second derivative matrix not updated -- first step.
 ITU=  0
     Eigenvalues ---    0.01011   0.01011   0.07204   0.07224   0.14160
     Eigenvalues ---    0.16000   0.16000   0.16000   0.25000   0.25000
     Eigenvalues ---    0.33157   0.33160   0.33305   0.34404   1.11968
 RFO step:  Lambda=-1.61817969D-03 EMin= 1.01136755D-02
 Linear search not attempted -- first point.
 Iteration  1 RMS(Cart)=  0.01546506 RMS(Int)=  0.00042685
 Iteration  2 RMS(Cart)=  0.00033255 RMS(Int)=  0.00024026
 Iteration  3 RMS(Cart)=  0.00000010 RMS(Int)=  0.00024026
 Variable       Old X    -DE/DX   Delta X   Delta X   Delta X     New X
                                 (Linear)    (Quad)   (Total)
    R1        2.79953   0.00952   0.00000   0.02755   0.02755   2.82707
    R2        2.24196   0.00425   0.00000   0.00379   0.00379   2.24575
    R3        3.77744   0.00159   0.00000   0.01110   0.01110   3.78853
    R4        2.08771  -0.00595   0.00000  -0.01786  -0.01786   2.06986
    R5        2.08776  -0.00597   0.00000  -0.01793  -0.01793   2.06983
    R6        2.08519  -0.00514   0.00000  -0.01537  -0.01537   2.06981
    A1        2.24641  -0.00209   0.00000  -0.00830  -0.00830   2.23811
    A2        1.93167   0.00502   0.00000   0.01994   0.01994   1.95161
    A3        2.10511  -0.00293   0.00000  -0.01164  -0.01164   2.09347
    A4        1.95519  -0.00463   0.00000  -0.03030  -0.03077   1.92442
    A5        1.95506  -0.00461   0.00000  -0.03019  -0.03066   1.92440
    A6        1.94571  -0.00439   0.00000  -0.02380  -0.02406   1.92165
    A7        1.84980   0.00387   0.00000   0.01773   0.01706   1.86686
    A8        1.87635   0.00545   0.00000   0.03675   0.03649   1.91284
    A9        1.87646   0.00544   0.00000   0.03671   0.03645   1.91291
    D1        2.10321   0.00068   0.00000   0.00834   0.00816   2.11137
    D2       -2.10395  -0.00071   0.00000  -0.01048  -0.01031  -2.11426
    D3       -0.00034  -0.00001   0.00000  -0.00106  -0.00106  -0.00140
    D4       -1.03890   0.00071   0.00000   0.01079   0.01062  -1.02829
    D5        1.03713  -0.00068   0.00000  -0.00803  -0.00786   1.02926
    D6        3.14073   0.00002   0.00000   0.00139   0.00139  -3.14106
         Item               Value     Threshold  Converged?
 Maximum Force            0.009521     0.000450     NO 
 RMS     Force            0.004281     0.000300     NO 
 Maximum Displacement     0.034119     0.001800     NO 
 RMS     Displacement     0.015510     0.001200     NO 
 Predicted change in Energy=-8.146507D-04
 GradGradGradGradGradGradGradGradGradGradGradGradGradGradGradGradGradGrad

                          Input orientation:                          
 ---------------------------------------------------------------------
 Center     Atomic      Atomic             Coordinates (Angstroms)
 Number     Number       Type             X           Y           Z
 ---------------------------------------------------------------------
      1          6           0        1.010063    0.226493   -0.000647
      2          6           0        1.739002   -1.079928   -0.000201
      3          1           0        1.461076   -1.669054    0.880376
      4          1           0        1.460757   -1.669809   -0.880157
      5          1           0        2.820643   -0.907498   -0.000426
      6          8           0        1.466872    1.323588    0.000138
      7         35           0       -0.978308   -0.029675    0.000724
 ---------------------------------------------------------------------
                    Distance matrix (angstroms):
                    1          2          3          4          5
     1  C    0.000000
     2  C    1.496023   0.000000
     3  H    2.138390   1.095321   0.000000
     4  H    2.138369   1.095309   1.760533   0.000000
     5  H    2.136384   1.095299   1.790028   1.790065   0.000000
     6  O    1.188399   2.418872   3.119416   3.120158   2.609682
     7  Br   2.004805   2.913212   3.067889   3.068392   3.899051
                    6          7
     6  O    0.000000
     7  Br   2.794678   0.000000
 Stoichiometry    C2H3BrO
 Framework group  C1[X(C2H3BrO)]
 Deg. of freedom    15
 Full point group                 C1      NOp   1
 Largest Abelian subgroup         C1      NOp   1
 Largest concise Abelian subgroup C1      NOp   1
                         Standard orientation:                         
 ---------------------------------------------------------------------
 Center     Atomic      Atomic             Coordinates (Angstroms)
 Number     Number       Type             X           Y           Z
 ---------------------------------------------------------------------
      1          6           0        1.011669    0.236688   -0.000673
      2          6           0        1.757760   -1.060013    0.000099
      3          1           0        1.487317   -1.652705    0.880613
      4          1           0        1.487618   -1.653556   -0.879920
      5          1           0        2.837035   -0.873345    0.000239
      6          8           0        1.453980    1.339707    0.000208
      7         35           0       -0.973154   -0.045660    0.000024
 ---------------------------------------------------------------------
 Rotational constants (GHZ):     10.0677446      2.9574060      2.3186777
 Basis read from rwf:  (5D, 7F)
 Pseudo-potential data read from rwf file.
 There are   118 symmetry adapted cartesian basis functions of A   symmetry.
 There are   108 symmetry adapted basis functions of A   symmetry.
   108 basis functions,   222 primitive gaussians,   118 cartesian basis functions
    29 alpha electrons       29 beta electrons
       nuclear repulsion energy       226.4070666176 Hartrees.
 NAtoms=    7 NActive=    7 NUniq=    7 SFac= 1.00D+00 NAtFMM=   60 NAOKFM=F Big=F
 Integral buffers will be    131072 words long.
 Raffenetti 2 integral format.
 Two-electron integral symmetry is turned on.
 One-electron integrals computed using PRISM.
 PrsmSu:  requested number of processors reduced to:   4 ShMem   1 Linda.
   1 Symmetry operations used in ECPInt.
 ECPInt:  NShTT=     703 NPrTT=    3957 LenC2=     697 LenP2D=    3054.
 LDataN:  DoStor=T MaxTD1= 6 Len=  172
 NBasis=   108 RedAO= T EigKep=  2.34D-04  NBF=   108
 NBsUse=   108 1.00D-06 EigRej= -1.00D+00 NBFU=   108
 Initial guess from the checkpoint file:  "/lustre/SCRATCH5/gau/Gau-9225.chk"
 B after Tr=     0.000000    0.000000    0.000000
         Rot=    0.999992    0.000016    0.000016   -0.003907 Ang=   0.45 deg.
 ExpMin= 4.38D-02 ExpMax= 5.65D+05 ExpMxC= 5.46D+03 IAcc=2 IRadAn=         4 AccDes= 0.00D+00
 Harris functional with IExCor=  402 and IRadAn=       4 diagonalized for initial guess.
 HarFok:  IExCor=  402 AccDes= 0.00D+00 IRadAn=         4 IDoV= 1 UseB2=F ITyADJ=14
 ICtDFT=  3500011 ScaDFX=  1.000000  1.000000  1.000000  1.000000
 FoFCou: FMM=F IPFlag=           0 FMFlag=      100000 FMFlg1=           0
         NFxFlg=           0 DoJE=T BraDBF=F KetDBF=T FulRan=T
         wScrn=  0.000000 ICntrl=     500 IOpCl=  0 I1Cent=   200000004 NGrid=           0
         NMat0=    1 NMatS0=      1 NMatT0=    0 NMatD0=    1 NMtDS0=    0 NMtDT0=    0
 Petite list used in FoFCou.
 Keep R1 ints in memory in canonical form, NReq=19390225.
 Requested convergence on RMS density matrix=1.00D-08 within 128 cycles.
 Requested convergence on MAX density matrix=1.00D-06.
 Requested convergence on             energy=1.00D-06.
 No special actions if energy rises.
 SCF Done:  E(RB3LYP) =  -2727.43783105     A.U. after   10 cycles
            NFock= 10  Conv=0.46D-08     -V/T= 2.0018
 PrsmSu:  requested number of processors reduced to:   3 ShMem   1 Linda.
   1 Symmetry operations used in ECPInt.
 ECPInt:  NShTT=     703 NPrTT=    3957 LenC2=     697 LenP2D=    3054.
 LDataN:  DoStor=T MaxTD1= 7 Len=  274
 Calling FoFJK, ICntrl=      2127 FMM=F ISym2X=0 I1Cent= 0 IOpClX= 0 NMat=1 NMatS=1 NMatT=0.
 ***** Axes restored to original set *****
 -------------------------------------------------------------------
 Center     Atomic                   Forces (Hartrees/Bohr)
 Number     Number              X              Y              Z
 -------------------------------------------------------------------
      1        6          -0.002430458    0.002243947    0.000198491
      2        6           0.004976531   -0.006301725   -0.000069581
      3        1          -0.000957413    0.001019876    0.000082474
      4        1          -0.000941250    0.000992062   -0.000084263
      5        1          -0.001249720    0.001578989   -0.000005311
      6        8           0.000016985    0.000115224   -0.000079153
      7       35           0.000585324    0.000351627   -0.000042657
 -------------------------------------------------------------------
 Cartesian Forces:  Max     0.006301725 RMS     0.001998190

 GradGradGradGradGradGradGradGradGradGradGradGradGradGradGradGradGradGrad
 Berny optimization.
 Using GEDIIS/GDIIS optimizer.
 FormGI is forming the generalized inverse of G from B-inverse, IUseBI=4.
 Internal  Forces:  Max     0.003262812 RMS     0.001133639
 Search for a local minimum.
 Step number   2 out of a maximum of   31
 All quantities printed in internal units (Hartrees-Bohrs-Radians)
 Mixed Optimization -- RFO/linear search
 Update second derivatives using D2CorX and points    1    2
 DE= -1.01D-03 DEPred=-8.15D-04 R= 1.24D+00
 TightC=F SS=  1.41D+00  RLast= 9.02D-02 DXNew= 5.0454D-01 2.7071D-01
 Trust test= 1.24D+00 RLast= 9.02D-02 DXMaxT set to 3.00D-01
 ITU=  1  0
 Use linear search instead of GDIIS.
     Eigenvalues ---    0.01011   0.01012   0.07472   0.07571   0.12227
     Eigenvalues ---    0.14446   0.16000   0.16038   0.24946   0.25014
     Eigenvalues ---    0.31907   0.33159   0.33387   0.34585   1.12257
 RFO step:  Lambda=-5.18766646D-05 EMin= 1.01136599D-02
 Quartic linear search produced a step of  0.31741.
 Iteration  1 RMS(Cart)=  0.00701401 RMS(Int)=  0.00015050
 Iteration  2 RMS(Cart)=  0.00008444 RMS(Int)=  0.00012141
 Iteration  3 RMS(Cart)=  0.00000001 RMS(Int)=  0.00012141
 Variable       Old X    -DE/DX   Delta X   Delta X   Delta X     New X
                                 (Linear)    (Quad)   (Total)
    R1        2.82707   0.00326   0.00874   0.00447   0.01321   2.84029
    R2        2.24575   0.00012   0.00120  -0.00095   0.00025   2.24600
    R3        3.78853  -0.00063   0.00352  -0.00921  -0.00569   3.78284
    R4        2.06986  -0.00024  -0.00567   0.00427  -0.00140   2.06846
    R5        2.06983  -0.00022  -0.00569   0.00434  -0.00135   2.06848
    R6        2.06981  -0.00099  -0.00488   0.00056  -0.00432   2.06550
    A1        2.23811  -0.00035  -0.00264   0.00058  -0.00208   2.23603
    A2        1.95161   0.00073   0.00633  -0.00198   0.00433   1.95594
    A3        2.09347  -0.00038  -0.00369   0.00142  -0.00230   2.09117
    A4        1.92442  -0.00134  -0.00977  -0.00193  -0.01194   1.91248
    A5        1.92440  -0.00128  -0.00973  -0.00150  -0.01146   1.91293
    A6        1.92165  -0.00184  -0.00764  -0.00745  -0.01526   1.90639
    A7        1.86686   0.00121   0.00541   0.00429   0.00940   1.87625
    A8        1.91284   0.00170   0.01158   0.00355   0.01495   1.92779
    A9        1.91291   0.00168   0.01157   0.00348   0.01488   1.92779
    D1        2.11137   0.00011   0.00259   0.00498   0.00752   2.11889
    D2       -2.11426  -0.00002  -0.00327   0.00815   0.00493  -2.10933
    D3       -0.00140   0.00005  -0.00034   0.00666   0.00632   0.00492
    D4       -1.02829   0.00001   0.00337  -0.00869  -0.00537  -1.03366
    D5        1.02926  -0.00011  -0.00249  -0.00552  -0.00796   1.02130
    D6       -3.14106  -0.00005   0.00044  -0.00701  -0.00657   3.13555
         Item               Value     Threshold  Converged?
 Maximum Force            0.003263     0.000450     NO 
 RMS     Force            0.001134     0.000300     NO 
 Maximum Displacement     0.018275     0.001800     NO 
 RMS     Displacement     0.007025     0.001200     NO 
 Predicted change in Energy=-9.191322D-05
 GradGradGradGradGradGradGradGradGradGradGradGradGradGradGradGradGradGrad

                          Input orientation:                          
 ---------------------------------------------------------------------
 Center     Atomic      Atomic             Coordinates (Angstroms)
 Number     Number       Type             X           Y           Z
 ---------------------------------------------------------------------
      1          6           0        1.009554    0.223461    0.003666
      2          6           0        1.743859   -1.087966    0.000437
      3          1           0        1.460287   -1.669266    0.883491
      4          1           0        1.455709   -1.668025   -0.881966
      5          1           0        2.820204   -0.897828   -0.002220
      6          8           0        1.467031    1.320413   -0.001062
      7         35           0       -0.976539   -0.026673   -0.002540
 ---------------------------------------------------------------------
                    Distance matrix (angstroms):
                    1          2          3          4          5
     1  C    0.000000
     2  C    1.503015   0.000000
     3  H    2.135338   1.094581   0.000000
     4  H    2.135678   1.094594   1.765463   0.000000
     5  H    2.129737   1.093014   1.796935   1.796943   0.000000
     6  O    1.188533   2.424237   3.117798   3.115587   2.598398
     7  Br   2.001792   2.920088   3.069411   3.063211   3.895404
                    6          7
     6  O    0.000000
     7  Br   2.790283   0.000000
 Stoichiometry    C2H3BrO
 Framework group  C1[X(C2H3BrO)]
 Deg. of freedom    15
 Full point group                 C1      NOp   1
 Largest Abelian subgroup         C1      NOp   1
 Largest concise Abelian subgroup C1      NOp   1
                         Standard orientation:                         
 ---------------------------------------------------------------------
 Center     Atomic      Atomic             Coordinates (Angstroms)
 Number     Number       Type             X           Y           Z
 ---------------------------------------------------------------------
      1          6           0        1.008847    0.237208    0.003801
      2          6           0        1.765518   -1.061439   -0.000640
      3          1           0        1.492994   -1.647732    0.882591
      4          1           0        1.486313   -1.646136   -0.882859
      5          1           0        2.838443   -0.852879   -0.004512
      6          8           0        1.447449    1.341841   -0.001173
      7         35           0       -0.972673   -0.046931   -0.000137
 ---------------------------------------------------------------------
 Rotational constants (GHZ):     10.0512330      2.9590543      2.3190037
 Basis read from rwf:  (5D, 7F)
 Pseudo-potential data read from rwf file.
 There are   118 symmetry adapted cartesian basis functions of A   symmetry.
 There are   108 symmetry adapted basis functions of A   symmetry.
   108 basis functions,   222 primitive gaussians,   118 cartesian basis functions
    29 alpha electrons       29 beta electrons
       nuclear repulsion energy       226.4361259939 Hartrees.
 NAtoms=    7 NActive=    7 NUniq=    7 SFac= 1.00D+00 NAtFMM=   60 NAOKFM=F Big=F
 Integral buffers will be    131072 words long.
 Raffenetti 2 integral format.
 Two-electron integral symmetry is turned on.
 One-electron integrals computed using PRISM.
 PrsmSu:  requested number of processors reduced to:   4 ShMem   1 Linda.
   1 Symmetry operations used in ECPInt.
 ECPInt:  NShTT=     703 NPrTT=    3957 LenC2=     697 LenP2D=    3053.
 LDataN:  DoStor=T MaxTD1= 6 Len=  172
 NBasis=   108 RedAO= T EigKep=  2.39D-04  NBF=   108
 NBsUse=   108 1.00D-06 EigRej= -1.00D+00 NBFU=   108
 Initial guess from the checkpoint file:  "/lustre/SCRATCH5/gau/Gau-9225.chk"
 B after Tr=     0.000000    0.000000    0.000000
         Rot=    0.999999   -0.000075   -0.000069   -0.001154 Ang=  -0.13 deg.
 Keep R1 ints in memory in canonical form, NReq=19390225.
 Requested convergence on RMS density matrix=1.00D-08 within 128 cycles.
 Requested convergence on MAX density matrix=1.00D-06.
 Requested convergence on             energy=1.00D-06.
 No special actions if energy rises.
 SCF Done:  E(RB3LYP) =  -2727.43791919     A.U. after    9 cycles
            NFock=  9  Conv=0.66D-08     -V/T= 2.0018
 PrsmSu:  requested number of processors reduced to:   3 ShMem   1 Linda.
   1 Symmetry operations used in ECPInt.
 ECPInt:  NShTT=     703 NPrTT=    3957 LenC2=     697 LenP2D=    3053.
 LDataN:  DoStor=T MaxTD1= 7 Len=  274
 Calling FoFJK, ICntrl=      2127 FMM=F ISym2X=0 I1Cent= 0 IOpClX= 0 NMat=1 NMatS=1 NMatT=0.
 ***** Axes restored to original set *****
 -------------------------------------------------------------------
 Center     Atomic                   Forces (Hartrees/Bohr)
 Number     Number              X              Y              Z
 -------------------------------------------------------------------
      1        6          -0.000956181    0.000623383   -0.001141864
      2        6           0.000239765   -0.000438595    0.000403905
      3        1           0.000092410   -0.000100512    0.000049741
      4        1           0.000016900    0.000058510   -0.000042330
      5        1           0.000199528   -0.000023090    0.000027032
      6        8           0.000312131   -0.000059232    0.000453335
      7       35           0.000095446   -0.000060464    0.000250182
 -------------------------------------------------------------------
 Cartesian Forces:  Max     0.001141864 RMS     0.000406450

 GradGradGradGradGradGradGradGradGradGradGradGradGradGradGradGradGradGrad
 Berny optimization.
 Using GEDIIS/GDIIS optimizer.
 FormGI is forming the generalized inverse of G from B-inverse, IUseBI=4.
 Internal  Forces:  Max     0.000711170 RMS     0.000256106
 Search for a local minimum.
 Step number   3 out of a maximum of   31
 All quantities printed in internal units (Hartrees-Bohrs-Radians)
 Mixed Optimization -- En-DIIS/RFO-DIIS
 Update second derivatives using D2CorX and points    1    2    3
 DE= -8.81D-05 DEPred=-9.19D-05 R= 9.59D-01
 TightC=F SS=  1.41D+00  RLast= 3.94D-02 DXNew= 5.0454D-01 1.1827D-01
 Trust test= 9.59D-01 RLast= 3.94D-02 DXMaxT set to 3.00D-01
 ITU=  1  1  0
 Use linear search instead of GDIIS.
     Eigenvalues ---    0.01011   0.01093   0.07619   0.07738   0.12029
     Eigenvalues ---    0.14535   0.16032   0.16095   0.24619   0.25347
     Eigenvalues ---    0.30489   0.33161   0.33418   0.34756   1.12228
 RFO step:  Lambda=-4.71431195D-05 EMin= 1.01136287D-02
 Quartic linear search produced a step of -0.02698.
 Iteration  1 RMS(Cart)=  0.01133792 RMS(Int)=  0.00020132
 Iteration  2 RMS(Cart)=  0.00017566 RMS(Int)=  0.00013778
 Iteration  3 RMS(Cart)=  0.00000001 RMS(Int)=  0.00013778
 Variable       Old X    -DE/DX   Delta X   Delta X   Delta X     New X
                                 (Linear)    (Quad)   (Total)
    R1        2.84029   0.00071  -0.00036   0.00575   0.00540   2.84568
    R2        2.24600   0.00007  -0.00001   0.00019   0.00018   2.24618
    R3        3.78284  -0.00010   0.00015  -0.00188  -0.00172   3.78111
    R4        2.06846   0.00007   0.00004  -0.00043  -0.00039   2.06807
    R5        2.06848   0.00000   0.00004  -0.00063  -0.00059   2.06789
    R6        2.06550   0.00019   0.00012  -0.00077  -0.00066   2.06484
    A1        2.23603  -0.00042   0.00006  -0.00215  -0.00246   2.23357
    A2        1.95594   0.00011  -0.00012   0.00201   0.00153   1.95747
    A3        2.09117   0.00031   0.00006   0.00060   0.00030   2.09147
    A4        1.91248   0.00017   0.00032  -0.00234  -0.00202   1.91046
    A5        1.91293  -0.00011   0.00031  -0.00412  -0.00381   1.90912
    A6        1.90639   0.00008   0.00041  -0.00382  -0.00341   1.90298
    A7        1.87625   0.00000  -0.00025   0.00274   0.00248   1.87873
    A8        1.92779  -0.00011  -0.00040   0.00364   0.00324   1.93103
    A9        1.92779  -0.00002  -0.00040   0.00391   0.00350   1.93129
    D1        2.11889  -0.00028  -0.00020  -0.02391  -0.02411   2.09477
    D2       -2.10933  -0.00024  -0.00013  -0.02440  -0.02453  -2.13386
    D3        0.00492  -0.00029  -0.00017  -0.02455  -0.02471  -0.01980
    D4       -1.03366   0.00028   0.00014   0.02678   0.02692  -1.00675
    D5        1.02130   0.00032   0.00021   0.02629   0.02650   1.04781
    D6        3.13555   0.00027   0.00018   0.02614   0.02632  -3.12132
         Item               Value     Threshold  Converged?
 Maximum Force            0.000711     0.000450     NO 
 RMS     Force            0.000256     0.000300     YES
 Maximum Displacement     0.032354     0.001800     NO 
 RMS     Displacement     0.011323     0.001200     NO 
 Predicted change in Energy=-2.379783D-05
 GradGradGradGradGradGradGradGradGradGradGradGradGradGradGradGradGradGrad

                          Input orientation:                          
 ---------------------------------------------------------------------
 Center     Atomic      Atomic             Coordinates (Angstroms)
 Number     Number       Type             X           Y           Z
 ---------------------------------------------------------------------
      1          6           0        1.008410    0.223089   -0.013455
      2          6           0        1.745197   -1.090175   -0.002069
      3          1           0        1.451509   -1.665376    0.881415
      4          1           0        1.464071   -1.672019   -0.885174
      5          1           0        2.820356   -0.895494    0.004986
      6          8           0        1.467410    1.319387    0.003519
      7         35           0       -0.976847   -0.025295    0.010584
 ---------------------------------------------------------------------
                    Distance matrix (angstroms):
                    1          2          3          4          5
     1  C    0.000000
     2  C    1.505871   0.000000
     3  H    2.136218   1.094373   0.000000
     4  H    2.135171   1.094279   1.766647   0.000000
     5  H    2.129488   1.092666   1.798496   1.798579   0.000000
     6  O    1.188628   2.425528   3.111232   3.120624   2.595413
     7  Br   2.000880   2.922953   3.056980   3.077688   3.895643
                    6          7
     6  O    0.000000
     7  Br   2.789733   0.000000
 Stoichiometry    C2H3BrO
 Framework group  C1[X(C2H3BrO)]
 Deg. of freedom    15
 Full point group                 C1      NOp   1
 Largest Abelian subgroup         C1      NOp   1
 Largest concise Abelian subgroup C1      NOp   1
                         Standard orientation:                         
 ---------------------------------------------------------------------
 Center     Atomic      Atomic             Coordinates (Angstroms)
 Number     Number       Type             X           Y           Z
 ---------------------------------------------------------------------
      1          6           0        1.007582    0.237748   -0.013935
      2          6           0        1.768513   -1.061624    0.002316
      3          1           0        1.481149   -1.641432    0.884868
      4          1           0        1.502608   -1.649316   -0.881630
      5          1           0        2.839832   -0.847042    0.014516
      6          8           0        1.446097    1.342379    0.004295
      7         35           0       -0.972827   -0.047371    0.000503
 ---------------------------------------------------------------------
 Rotational constants (GHZ):     10.0470768      2.9576649      2.3180261
 Basis read from rwf:  (5D, 7F)
 Pseudo-potential data read from rwf file.
 There are   118 symmetry adapted cartesian basis functions of A   symmetry.
 There are   108 symmetry adapted basis functions of A   symmetry.
   108 basis functions,   222 primitive gaussians,   118 cartesian basis functions
    29 alpha electrons       29 beta electrons
       nuclear repulsion energy       226.4031210019 Hartrees.
 NAtoms=    7 NActive=    7 NUniq=    7 SFac= 1.00D+00 NAtFMM=   60 NAOKFM=F Big=F
 Integral buffers will be    131072 words long.
 Raffenetti 2 integral format.
 Two-electron integral symmetry is turned on.
 One-electron integrals computed using PRISM.
 PrsmSu:  requested number of processors reduced to:   4 ShMem   1 Linda.
   1 Symmetry operations used in ECPInt.
 ECPInt:  NShTT=     703 NPrTT=    3957 LenC2=     697 LenP2D=    3053.
 LDataN:  DoStor=T MaxTD1= 6 Len=  172
 NBasis=   108 RedAO= T EigKep=  2.41D-04  NBF=   108
 NBsUse=   108 1.00D-06 EigRej= -1.00D+00 NBFU=   108
 Initial guess from the checkpoint file:  "/lustre/SCRATCH5/gau/Gau-9225.chk"
 B after Tr=     0.000000    0.000000    0.000000
         Rot=    1.000000    0.000286    0.000279   -0.000380 Ang=   0.06 deg.
 ExpMin= 4.38D-02 ExpMax= 5.65D+05 ExpMxC= 5.46D+03 IAcc=2 IRadAn=         4 AccDes= 0.00D+00
 Harris functional with IExCor=  402 and IRadAn=       4 diagonalized for initial guess.
 HarFok:  IExCor=  402 AccDes= 0.00D+00 IRadAn=         4 IDoV= 1 UseB2=F ITyADJ=14
 ICtDFT=  3500011 ScaDFX=  1.000000  1.000000  1.000000  1.000000
 FoFCou: FMM=F IPFlag=           0 FMFlag=      100000 FMFlg1=           0
         NFxFlg=           0 DoJE=T BraDBF=F KetDBF=T FulRan=T
         wScrn=  0.000000 ICntrl=     500 IOpCl=  0 I1Cent=   200000004 NGrid=           0
         NMat0=    1 NMatS0=      1 NMatT0=    0 NMatD0=    1 NMtDS0=    0 NMtDT0=    0
 Petite list used in FoFCou.
 Keep R1 ints in memory in canonical form, NReq=19390240.
 Requested convergence on RMS density matrix=1.00D-08 within 128 cycles.
 Requested convergence on MAX density matrix=1.00D-06.
 Requested convergence on             energy=1.00D-06.
 No special actions if energy rises.
 SCF Done:  E(RB3LYP) =  -2727.43785993     A.U. after   10 cycles
            NFock= 10  Conv=0.24D-08     -V/T= 2.0018
 PrsmSu:  requested number of processors reduced to:   3 ShMem   1 Linda.
   1 Symmetry operations used in ECPInt.
 ECPInt:  NShTT=     703 NPrTT=    3957 LenC2=     697 LenP2D=    3053.
 LDataN:  DoStor=T MaxTD1= 7 Len=  274
 Calling FoFJK, ICntrl=      2127 FMM=F ISym2X=0 I1Cent= 0 IOpClX= 0 NMat=1 NMatS=1 NMatT=0.
 ***** Axes restored to original set *****
 -------------------------------------------------------------------
 Center     Atomic                   Forces (Hartrees/Bohr)
 Number     Number              X              Y              Z
 -------------------------------------------------------------------
      1        6          -0.000025873   -0.000174664    0.004166095
      2        6          -0.001088724    0.001320904   -0.001478604
      3        1           0.000119453   -0.000006092    0.000061595
      4        1           0.000401310   -0.000590951   -0.000092893
      5        1           0.000393388   -0.000347203   -0.000094729
      6        8           0.000166137   -0.000066614   -0.001654585
      7       35           0.000034309   -0.000135381   -0.000906879
 -------------------------------------------------------------------
 Cartesian Forces:  Max     0.004166095 RMS     0.001132566

 GradGradGradGradGradGradGradGradGradGradGradGradGradGradGradGradGradGrad
 Berny optimization.
 Using GEDIIS/GDIIS optimizer.
 FormGI is forming the generalized inverse of G from B-inverse, IUseBI=4.
 Internal  Forces:  Max     0.001134205 RMS     0.000625908
 Search for a local minimum.
 Step number   4 out of a maximum of   31
 All quantities printed in internal units (Hartrees-Bohrs-Radians)
 Mixed Optimization -- En-DIIS/RFO-DIIS
 Swapping is turned off.
 Update second derivatives using D2CorX and points    1    2    3    4
 DE=  5.93D-05 DEPred=-2.38D-05 R=-2.49D+00
 Trust test=-2.49D+00 RLast= 6.34D-02 DXMaxT set to 1.50D-01
 ITU= -1  1  1  0
     Eigenvalues ---    0.01011   0.04117   0.06505   0.07710   0.08004
     Eigenvalues ---    0.14334   0.16041   0.16521   0.24200   0.25186
     Eigenvalues ---    0.29098   0.33184   0.33438   0.34011   1.12045
 En-DIIS/RFO-DIIS IScMMF=        0 using points:     4    3
 RFO step:  Lambda=-3.21604425D-05.
 DidBck=T Rises=F RFO-DIIS coefs:    0.22125    0.77875
 Iteration  1 RMS(Cart)=  0.00883447 RMS(Int)=  0.00009119
 Iteration  2 RMS(Cart)=  0.00010676 RMS(Int)=  0.00002381
 Iteration  3 RMS(Cart)=  0.00000000 RMS(Int)=  0.00002381
 Variable       Old X    -DE/DX   Delta X   Delta X   Delta X     New X
                                 (Linear)    (Quad)   (Total)
    R1        2.84568  -0.00042  -0.00420   0.00123  -0.00298   2.84271
    R2        2.24618  -0.00002  -0.00014   0.00003  -0.00011   2.24608
    R3        3.78111  -0.00004   0.00134  -0.00058   0.00076   3.78188
    R4        2.06807   0.00002   0.00031   0.00022   0.00053   2.06860
    R5        2.06789   0.00029   0.00046   0.00023   0.00069   2.06858
    R6        2.06484   0.00032   0.00051   0.00066   0.00117   2.06601
    A1        2.23357  -0.00008   0.00191  -0.00133   0.00064   2.23422
    A2        1.95747  -0.00013  -0.00119   0.00017  -0.00096   1.95650
    A3        2.09147   0.00028  -0.00024   0.00117   0.00099   2.09247
    A4        1.91046  -0.00016   0.00157   0.00074   0.00231   1.91277
    A5        1.90912   0.00090   0.00297   0.00075   0.00372   1.91284
    A6        1.90298   0.00043   0.00266   0.00088   0.00354   1.90651
    A7        1.87873  -0.00029  -0.00193  -0.00021  -0.00214   1.87659
    A8        1.93103  -0.00027  -0.00252  -0.00107  -0.00359   1.92744
    A9        1.93129  -0.00061  -0.00273  -0.00108  -0.00380   1.92749
    D1        2.09477   0.00090   0.01878  -0.00024   0.01854   2.11331
    D2       -2.13386   0.00098   0.01910   0.00038   0.01948  -2.11438
    D3       -0.01980   0.00105   0.01925   0.00007   0.01932  -0.00048
    D4       -1.00675  -0.00113  -0.02096  -0.00027  -0.02123  -1.02798
    D5        1.04781  -0.00105  -0.02064   0.00035  -0.02029   1.02752
    D6       -3.12132  -0.00098  -0.02049   0.00004  -0.02045   3.14142
         Item               Value     Threshold  Converged?
 Maximum Force            0.001134     0.000450     NO 
 RMS     Force            0.000626     0.000300     NO 
 Maximum Displacement     0.025207     0.001800     NO 
 RMS     Displacement     0.008839     0.001200     NO 
 Predicted change in Energy=-6.599788D-05
 GradGradGradGradGradGradGradGradGradGradGradGradGradGradGradGradGradGrad

                          Input orientation:                          
 ---------------------------------------------------------------------
 Center     Atomic      Atomic             Coordinates (Angstroms)
 Number     Number       Type             X           Y           Z
 ---------------------------------------------------------------------
      1          6           0        1.008392    0.223937   -0.000116
      2          6           0        1.743921   -1.088277   -0.000122
      3          1           0        1.458940   -1.668842    0.883052
      4          1           0        1.458210   -1.669328   -0.882730
      5          1           0        2.820476   -0.897745   -0.000590
      6          8           0        1.467398    1.320303   -0.000087
      7         35           0       -0.977232   -0.025932    0.000399
 ---------------------------------------------------------------------
                    Distance matrix (angstroms):
                    1          2          3          4          5
     1  C    0.000000
     2  C    1.504296   0.000000
     3  H    2.136725   1.094654   0.000000
     4  H    2.136773   1.094645   1.765782   0.000000
     5  H    2.131154   1.093286   1.796996   1.797020   0.000000
     6  O    1.188572   2.424401   3.116888   3.117216   2.598183
     7  Br   2.001284   2.921173   3.068089   3.067906   3.896491
                    6          7
     6  O    0.000000
     7  Br   2.790799   0.000000
 Stoichiometry    C2H3BrO
 Framework group  C1[X(C2H3BrO)]
 Deg. of freedom    15
 Full point group                 C1      NOp   1
 Largest Abelian subgroup         C1      NOp   1
 Largest concise Abelian subgroup C1      NOp   1
                         Standard orientation:                         
 ---------------------------------------------------------------------
 Center     Atomic      Atomic             Coordinates (Angstroms)
 Number     Number       Type             X           Y           Z
 ---------------------------------------------------------------------
      1          6           0        1.008030    0.237690   -0.000109
      2          6           0        1.766526   -1.061383    0.000009
      3          1           0        1.491625   -1.646891    0.883116
      4          1           0        1.491257   -1.647352   -0.882667
      5          1           0        2.839563   -0.851945   -0.000240
      6          8           0        1.447680    1.341960    0.000032
      7         35           0       -0.972892   -0.047067    0.000004
 ---------------------------------------------------------------------
 Rotational constants (GHZ):     10.0498186      2.9576051      2.3180461
 Basis read from rwf:  (5D, 7F)
 Pseudo-potential data read from rwf file.
 There are   118 symmetry adapted cartesian basis functions of A   symmetry.
 There are   108 symmetry adapted basis functions of A   symmetry.
   108 basis functions,   222 primitive gaussians,   118 cartesian basis functions
    29 alpha electrons       29 beta electrons
       nuclear repulsion energy       226.4020506497 Hartrees.
 NAtoms=    7 NActive=    7 NUniq=    7 SFac= 1.00D+00 NAtFMM=   60 NAOKFM=F Big=F
 Integral buffers will be    131072 words long.
 Raffenetti 2 integral format.
 Two-electron integral symmetry is turned on.
 One-electron integrals computed using PRISM.
 PrsmSu:  requested number of processors reduced to:   4 ShMem   1 Linda.
   1 Symmetry operations used in ECPInt.
 ECPInt:  NShTT=     703 NPrTT=    3957 LenC2=     697 LenP2D=    3053.
 LDataN:  DoStor=T MaxTD1= 6 Len=  172
 NBasis=   108 RedAO= T EigKep=  2.40D-04  NBF=   108
 NBsUse=   108 1.00D-06 EigRej= -1.00D+00 NBFU=   108
 Initial guess from the checkpoint file:  "/lustre/SCRATCH5/gau/Gau-9225.chk"
 B after Tr=     0.000000    0.000000    0.000000
         Rot=    1.000000   -0.000225   -0.000217    0.000279 Ang=  -0.05 deg.
 ExpMin= 4.38D-02 ExpMax= 5.65D+05 ExpMxC= 5.46D+03 IAcc=2 IRadAn=         4 AccDes= 0.00D+00
 Harris functional with IExCor=  402 and IRadAn=       4 diagonalized for initial guess.
 HarFok:  IExCor=  402 AccDes= 0.00D+00 IRadAn=         4 IDoV= 1 UseB2=F ITyADJ=14
 ICtDFT=  3500011 ScaDFX=  1.000000  1.000000  1.000000  1.000000
 FoFCou: FMM=F IPFlag=           0 FMFlag=      100000 FMFlg1=           0
         NFxFlg=           0 DoJE=T BraDBF=F KetDBF=T FulRan=T
         wScrn=  0.000000 ICntrl=     500 IOpCl=  0 I1Cent=   200000004 NGrid=           0
         NMat0=    1 NMatS0=      1 NMatT0=    0 NMatD0=    1 NMtDS0=    0 NMtDT0=    0
 Petite list used in FoFCou.
 Keep R1 ints in memory in canonical form, NReq=19390225.
 Requested convergence on RMS density matrix=1.00D-08 within 128 cycles.
 Requested convergence on MAX density matrix=1.00D-06.
 Requested convergence on             energy=1.00D-06.
 No special actions if energy rises.
 SCF Done:  E(RB3LYP) =  -2727.43792592     A.U. after   10 cycles
            NFock= 10  Conv=0.21D-08     -V/T= 2.0018
 PrsmSu:  requested number of processors reduced to:   3 ShMem   1 Linda.
   1 Symmetry operations used in ECPInt.
 ECPInt:  NShTT=     703 NPrTT=    3957 LenC2=     697 LenP2D=    3053.
 LDataN:  DoStor=T MaxTD1= 7 Len=  274
 Calling FoFJK, ICntrl=      2127 FMM=F ISym2X=0 I1Cent= 0 IOpClX= 0 NMat=1 NMatS=1 NMatT=0.
 ***** Axes restored to original set *****
 -------------------------------------------------------------------
 Center     Atomic                   Forces (Hartrees/Bohr)
 Number     Number              X              Y              Z
 -------------------------------------------------------------------
      1        6          -0.000322792    0.000070624    0.000027055
      2        6           0.000055946   -0.000074233   -0.000007477
      3        1           0.000026479    0.000010965    0.000001535
      4        1           0.000028495    0.000008333   -0.000003098
      5        1          -0.000007832    0.000017719   -0.000000787
      6        8           0.000094999   -0.000005400   -0.000011556
      7       35           0.000124704   -0.000028008   -0.000005672
 -------------------------------------------------------------------
 Cartesian Forces:  Max     0.000322792 RMS     0.000083454

 GradGradGradGradGradGradGradGradGradGradGradGradGradGradGradGradGradGrad
 Berny optimization.
 Using GEDIIS/GDIIS optimizer.
 FormGI is forming the generalized inverse of G from B-inverse, IUseBI=4.
 Internal  Forces:  Max     0.000128069 RMS     0.000051426
 Search for a local minimum.
 Step number   5 out of a maximum of   31
 All quantities printed in internal units (Hartrees-Bohrs-Radians)
 Mixed Optimization -- En-DIIS/RFO-DIIS
 Swapping is turned off.
 Update second derivatives using D2CorX and points    1    2    3    4    5
 DE= -6.60D-05 DEPred=-6.60D-05 R= 1.00D+00
 TightC=F SS=  1.41D+00  RLast= 4.95D-02 DXNew= 2.5227D-01 1.4863D-01
 Trust test= 1.00D+00 RLast= 4.95D-02 DXMaxT set to 1.50D-01
 ITU=  1 -1  1  1  0
     Eigenvalues ---    0.01011   0.04876   0.07642   0.07671   0.12345
     Eigenvalues ---    0.13857   0.16049   0.16530   0.22681   0.24988
     Eigenvalues ---    0.30010   0.33110   0.33185   0.33986   1.12275
 En-DIIS/RFO-DIIS IScMMF=        0 using points:     5    4    3
 RFO step:  Lambda=-1.36240719D-07.
 DidBck=F Rises=F RFO-DIIS coefs:    1.20358   -0.04567   -0.15791
 Iteration  1 RMS(Cart)=  0.00032034 RMS(Int)=  0.00000490
 Iteration  2 RMS(Cart)=  0.00000011 RMS(Int)=  0.00000490
 Variable       Old X    -DE/DX   Delta X   Delta X   Delta X     New X
                                 (Linear)    (Quad)   (Total)
    R1        2.84271   0.00009   0.00025   0.00024   0.00049   2.84320
    R2        2.24608   0.00004   0.00001   0.00004   0.00004   2.24612
    R3        3.78188  -0.00013  -0.00012  -0.00107  -0.00119   3.78069
    R4        2.06860  -0.00001   0.00005  -0.00007  -0.00003   2.06857
    R5        2.06858  -0.00001   0.00005  -0.00007  -0.00002   2.06856
    R6        2.06601  -0.00001   0.00013  -0.00017  -0.00004   2.06598
    A1        2.23422  -0.00013  -0.00026  -0.00045  -0.00072   2.23349
    A2        1.95650   0.00002   0.00005   0.00010   0.00014   1.95664
    A3        2.09247   0.00011   0.00025   0.00035   0.00059   2.09305
    A4        1.91277   0.00001   0.00015  -0.00009   0.00006   1.91283
    A5        1.91284   0.00001   0.00016  -0.00011   0.00005   1.91289
    A6        1.90651  -0.00002   0.00018  -0.00045  -0.00027   1.90624
    A7        1.87659   0.00001  -0.00004   0.00030   0.00026   1.87685
    A8        1.92744   0.00000  -0.00022   0.00018  -0.00004   1.92740
    A9        1.92749  -0.00001  -0.00022   0.00017  -0.00005   1.92744
    D1        2.11331   0.00000  -0.00003   0.00004   0.00001   2.11332
    D2       -2.11438   0.00002   0.00009   0.00029   0.00039  -2.11399
    D3       -0.00048   0.00001   0.00003   0.00016   0.00019  -0.00029
    D4       -1.02798  -0.00002  -0.00007  -0.00022  -0.00029  -1.02827
    D5        1.02752   0.00000   0.00005   0.00003   0.00009   1.02760
    D6        3.14142  -0.00001  -0.00001  -0.00011  -0.00011   3.14130
         Item               Value     Threshold  Converged?
 Maximum Force            0.000128     0.000450     YES
 RMS     Force            0.000051     0.000300     YES
 Maximum Displacement     0.000777     0.001800     YES
 RMS     Displacement     0.000320     0.001200     YES
 Predicted change in Energy=-1.715589D-07
 Optimization completed.
    -- Stationary point found.
                           ----------------------------
                           !   Optimized Parameters   !
                           ! (Angstroms and Degrees)  !
 --------------------------                            --------------------------
 ! Name  Definition              Value          Derivative Info.                !
 --------------------------------------------------------------------------------
 ! R1    R(1,2)                  1.5043         -DE/DX =    0.0001              !
 ! R2    R(1,6)                  1.1886         -DE/DX =    0.0                 !
 ! R3    R(1,7)                  2.0013         -DE/DX =   -0.0001              !
 ! R4    R(2,3)                  1.0947         -DE/DX =    0.0                 !
 ! R5    R(2,4)                  1.0946         -DE/DX =    0.0                 !
 ! R6    R(2,5)                  1.0933         -DE/DX =    0.0                 !
 ! A1    A(2,1,6)              128.0111         -DE/DX =   -0.0001              !
 ! A2    A(2,1,7)              112.0994         -DE/DX =    0.0                 !
 ! A3    A(6,1,7)              119.8895         -DE/DX =    0.0001              !
 ! A4    A(1,2,3)              109.5936         -DE/DX =    0.0                 !
 ! A5    A(1,2,4)              109.5979         -DE/DX =    0.0                 !
 ! A6    A(1,2,5)              109.2353         -DE/DX =    0.0                 !
 ! A7    A(3,2,4)              107.5207         -DE/DX =    0.0                 !
 ! A8    A(3,2,5)              110.434          -DE/DX =    0.0                 !
 ! A9    A(4,2,5)              110.4369         -DE/DX =    0.0                 !
 ! D1    D(6,1,2,3)            121.0839         -DE/DX =    0.0                 !
 ! D2    D(6,1,2,4)           -121.145          -DE/DX =    0.0                 !
 ! D3    D(6,1,2,5)             -0.0275         -DE/DX =    0.0                 !
 ! D4    D(7,1,2,3)            -58.8987         -DE/DX =    0.0                 !
 ! D5    D(7,1,2,4)             58.8724         -DE/DX =    0.0                 !
 ! D6    D(7,1,2,5)            179.9899         -DE/DX =    0.0                 !
 --------------------------------------------------------------------------------
 GradGradGradGradGradGradGradGradGradGradGradGradGradGradGradGradGradGrad

                          Input orientation:                          
 ---------------------------------------------------------------------
 Center     Atomic      Atomic             Coordinates (Angstroms)
 Number     Number       Type             X           Y           Z
 ---------------------------------------------------------------------
      1          6           0        1.008392    0.223937   -0.000116
      2          6           0        1.743921   -1.088277   -0.000122
      3          1           0        1.458940   -1.668842    0.883052
      4          1           0        1.458210   -1.669328   -0.882730
      5          1           0        2.820476   -0.897745   -0.000590
      6          8           0        1.467398    1.320303   -0.000087
      7         35           0       -0.977232   -0.025932    0.000399
 ---------------------------------------------------------------------
                    Distance matrix (angstroms):
                    1          2          3          4          5
     1  C    0.000000
     2  C    1.504296   0.000000
     3  H    2.136725   1.094654   0.000000
     4  H    2.136773   1.094645   1.765782   0.000000
     5  H    2.131154   1.093286   1.796996   1.797020   0.000000
     6  O    1.188572   2.424401   3.116888   3.117216   2.598183
     7  Br   2.001284   2.921173   3.068089   3.067906   3.896491
                    6          7
     6  O    0.000000
     7  Br   2.790799   0.000000
 Stoichiometry    C2H3BrO
 Framework group  C1[X(C2H3BrO)]
 Deg. of freedom    15
 Full point group                 C1      NOp   1
 Largest Abelian subgroup         C1      NOp   1
 Largest concise Abelian subgroup C1      NOp   1
                         Standard orientation:                         
 ---------------------------------------------------------------------
 Center     Atomic      Atomic             Coordinates (Angstroms)
 Number     Number       Type             X           Y           Z
 ---------------------------------------------------------------------
      1          6           0        1.008030    0.237690   -0.000109
      2          6           0        1.766526   -1.061383    0.000009
      3          1           0        1.491625   -1.646891    0.883116
      4          1           0        1.491257   -1.647352   -0.882667
      5          1           0        2.839563   -0.851945   -0.000240
      6          8           0        1.447680    1.341960    0.000032
      7         35           0       -0.972892   -0.047067    0.000004
 ---------------------------------------------------------------------
 Rotational constants (GHZ):     10.0498186      2.9576051      2.3180461

 **********************************************************************

            Population analysis using the SCF density.

 **********************************************************************

 Orbital symmetries:
       Occupied  (A) (A) (A) (A) (A) (A) (A) (A) (A) (A) (A) (A)
                 (A) (A) (A) (A) (A) (A) (A) (A) (A) (A) (A) (A)
                 (A) (A) (A) (A) (A)
       Virtual   (A) (A) (A) (A) (A) (A) (A) (A) (A) (A) (A) (A)
                 (A) (A) (A) (A) (A) (A) (A) (A) (A) (A) (A) (A)
                 (A) (A) (A) (A) (A) (A) (A) (A) (A) (A) (A) (A)
                 (A) (A) (A) (A) (A) (A) (A) (A) (A) (A) (A) (A)
                 (A) (A) (A) (A) (A) (A) (A) (A) (A) (A) (A) (A)
                 (A) (A) (A) (A) (A) (A) (A) (A) (A) (A) (A) (A)
                 (A) (A) (A) (A) (A) (A) (A)
 The electronic state is 1-A.
 Alpha  occ. eigenvalues -- -482.85997 -62.50806 -56.32389 -56.32103 -56.32058
 Alpha  occ. eigenvalues --  -19.20447 -10.35078 -10.22651  -8.69899  -6.52753
 Alpha  occ. eigenvalues --   -6.51854  -6.51723  -2.64227  -2.63996  -2.63894
 Alpha  occ. eigenvalues --   -2.63172  -2.63169  -1.11200  -0.81337  -0.76338
 Alpha  occ. eigenvalues --   -0.57018  -0.49795  -0.48636  -0.48575  -0.42513
 Alpha  occ. eigenvalues --   -0.41337  -0.30868  -0.30572  -0.29506
 Alpha virt. eigenvalues --   -0.05660  -0.02816   0.00183   0.03632   0.04559
 Alpha virt. eigenvalues --    0.04833   0.07989   0.08458   0.08816   0.11615
 Alpha virt. eigenvalues --    0.15105   0.16391   0.22147   0.22820   0.22910
 Alpha virt. eigenvalues --    0.23958   0.25713   0.27218   0.30290   0.30746
 Alpha virt. eigenvalues --    0.31707   0.32252   0.36232   0.37692   0.41289
 Alpha virt. eigenvalues --    0.47378   0.51832   0.62493   0.62774   0.65669
 Alpha virt. eigenvalues --    0.70807   0.75121   0.83742   0.84358   0.89206
 Alpha virt. eigenvalues --    0.95770   1.03452   1.07095   1.19395   1.19548
 Alpha virt. eigenvalues --    1.25074   1.28121   1.30875   1.33655   1.33867
 Alpha virt. eigenvalues --    1.35745   1.37554   1.40197   1.40695   1.51958
 Alpha virt. eigenvalues --    1.52275   1.52327   1.53632   1.61206   1.62440
 Alpha virt. eigenvalues --    1.62954   1.63922   1.68541   1.71617   1.73376
 Alpha virt. eigenvalues --    1.78018   1.85556   1.92357   2.01192   2.06632
 Alpha virt. eigenvalues --    2.16437   2.30189   2.33643   2.47565   2.57322
 Alpha virt. eigenvalues --    2.57874   2.88247   3.11980   3.97402   4.00500
 Alpha virt. eigenvalues --    4.00566   4.06661   4.15980   7.33893
          Condensed to atoms (all electrons):
               1          2          3          4          5          6
     1  C    4.712363   0.183680  -0.036560  -0.036600  -0.047196   0.417904
     2  C    0.183680   5.624072   0.377653   0.377686   0.380235  -0.070310
     3  H   -0.036560   0.377653   0.455571  -0.022927  -0.022444   0.000904
     4  H   -0.036600   0.377686  -0.022927   0.455580  -0.022446   0.000915
     5  H   -0.047196   0.380235  -0.022444  -0.022446   0.464222   0.000929
     6  O    0.417904  -0.070310   0.000904   0.000915   0.000929   8.069651
     7  Br   0.298233  -0.100558  -0.002786  -0.002784   0.005911  -0.119189
               7
     1  C    0.298233
     2  C   -0.100558
     3  H   -0.002786
     4  H   -0.002784
     5  H    0.005911
     6  O   -0.119189
     7  Br  35.098043
 Mulliken charges:
               1
     1  C    0.508176
     2  C   -0.772458
     3  H    0.250590
     4  H    0.250576
     5  H    0.240789
     6  O   -0.300803
     7  Br  -0.176869
 Sum of Mulliken charges =   0.00000
 Mulliken charges with hydrogens summed into heavy atoms:
               1
     1  C    0.508176
     2  C   -0.030504
     6  O   -0.300803
     7  Br  -0.176869
 Electronic spatial extent (au):  <R**2>=            496.6716
 Charge=              0.0000 electrons
 Dipole moment (field-independent basis, Debye):
    X=              1.4230    Y=             -2.5571    Z=              0.0000  Tot=              2.9264
 Quadrupole moment (field-independent basis, Debye-Ang):
   XX=            -34.4070   YY=            -38.2521   ZZ=            -35.7113
   XY=             -4.3742   XZ=             -0.0002   YZ=             -0.0003
 Traceless Quadrupole moment (field-independent basis, Debye-Ang):
   XX=              1.7165   YY=             -2.1286   ZZ=              0.4122
   XY=             -4.3742   XZ=             -0.0002   YZ=             -0.0003
 Octapole moment (field-independent basis, Debye-Ang**2):
  XXX=            -24.0877  YYY=             -3.7844  ZZZ=              0.0013  XYY=             -9.7215
  XXY=             -6.7691  XXZ=              0.0002  XZZ=             -6.4952  YZZ=             -0.1542
  YYZ=             -0.0001  XYZ=             -0.0006
 Hexadecapole moment (field-independent basis, Debye-Ang**3):
 XXXX=           -369.2569 YYYY=           -168.0944 ZZZZ=            -46.4385 XXXY=             -4.9979
 XXXZ=             -0.0029 YYYX=             -1.7948 YYYZ=              0.0012 ZZZX=              0.0015
 ZZZY=             -0.0014 XXYY=            -98.0286 XXZZ=            -73.1408 YYZZ=            -32.5108
 XXYZ=             -0.0012 YYXZ=              0.0005 ZZXY=              1.0652
 N-N= 2.264020506497D+02 E-N=-6.962793952231D+03  KE= 2.722612804384D+03
 1\1\GINC-CNODE-5-4\FOpt\RB3LYP\Gen\C2H3Br1O1\MLAWAL\25-Feb-2015\0\\# o
 pt freq b3lyp/gen geom=connectivity gfinput pseudo=read\\BrAc-6-31+g(d
 )/Def2TZVP\\0,1\C,1.0083920967,0.2239371918,-0.0001160295\C,1.74392078
 87,-1.0882766723,-0.0001220638\H,1.4589404761,-1.6688421424,0.88305203
 92\H,1.4582101251,-1.6693281793,-0.8827301855\H,2.8204759073,-0.897744
 5597,-0.0005898515\O,1.4673976148,1.3203029027,-0.0000867843\Br,-0.977
 2320087,-0.0259315406,0.0003988755\\Version=EM64L-G09RevD.01\State=1-A
 \HF=-2727.4379259\RMSD=2.080e-09\RMSF=8.345e-05\Dipole=0.5420687,-1.01
 574,-0.0000969\Quadrupole=1.1608791,-1.4673095,0.3064304,-3.3004002,-0
 .0002569,0.0004543\PG=C01 [X(C2H3Br1O1)]\\@


 IF I AM NOT FOR MYSELF, WHO WILL BE?
 BUT IF I AM ONLY FOR MYSELF, WHAT AM I?
 THOUGH A SEEKER SINCE MY BIRTH,
 HERE IS ALL I'VE LEARNED ON EARTH,
 THIS IS THE GIST OF WHAT I KNOW:
 GIVE ADVICE AND BUY A FOE.

 PRESSED FOR RULES AND VERITIES,
 ALL I RECOLLECT ARE THESE:
 FEED A COLD TO STARVE A FEVER,
 ARGUE WITH NO TRUE-BELIEVER.
 THINK-TOO-LONG IS NEVER-ACT,
 SCRATCH A MYTH AND FIND A FACT.

 STITCH IN TIME SAVES TWENTY STITCHES,
 GIVE THE RICH TO PLEASE THEM, RICHES.
 GIVE TO LOVE YOU HEARTH AND HALL,
 BUT DO NOT GIVE ADVICE AT ALL.

                                  -- HILLEL
 Job cpu time:       0 days  0 hours  3 minutes 25.0 seconds.
 File lengths (MBytes):  RWF=      7 Int=      0 D2E=      0 Chk=      2 Scr=      1
 Normal termination of Gaussian 09 at Wed Feb 25 14:51:51 2015.
 Link1:  Proceeding to internal job step number  2.
 ------------------------------------------------------------------
 #N Geom=AllCheck Guess=TCheck SCRF=Check GenChk RB3LYP/ChkBas Freq
 ------------------------------------------------------------------
 1/10=4,29=7,30=1,38=1,40=1/1,3;
 2/12=2,40=1/2;
 3/5=7,6=2,11=2,14=-4,16=1,17=8,24=10,25=1,30=1,67=1,70=2,71=2,74=-5,82=7,116=1,140=1/1,2,3;
 4/5=101/1;
 5/5=2,98=1/2;
 8/6=4,10=90,11=11/1;
 11/6=1,8=1,9=11,15=111,16=1/1,2,10;
 10/6=1/2;
 6/7=2,8=2,9=2,10=2,18=1,28=1/1;
 7/8=1,10=1,25=1/1,2,3,16;
 1/10=4,30=1/3;
 99//99;
 Structure from the checkpoint file:  "/lustre/SCRATCH5/gau/Gau-9225.chk"
 -----------------------
 gen calculation BrAc-C H O=6-31+g(d)/Br=Def2TZVP
 -----------------------
 Charge =  0 Multiplicity = 1
 Redundant internal coordinates found in file.
 C,0,1.0083920967,0.2239371918,-0.0001160295
 C,0,1.7439207887,-1.0882766723,-0.0001220638
 H,0,1.4589404761,-1.6688421424,0.8830520392
 H,0,1.4582101251,-1.6693281793,-0.8827301855
 H,0,2.8204759073,-0.8977445597,-0.0005898515
 O,0,1.4673976148,1.3203029027,-0.0000867843
 Br,0,-0.9772320087,-0.0259315406,0.0003988755
[...]
     3   1     0.41   0.29   0.32     0.55  -0.07   0.01    -0.20   0.22   0.00
     4   1    -0.41  -0.29   0.32     0.55  -0.07  -0.01    -0.20   0.22   0.00
     5   1     0.00   0.00  -0.54     0.29   0.37   0.00     0.07  -0.21   0.00
     6   8     0.00   0.00   0.04    -0.01  -0.12   0.00     0.69   0.15   0.00
     7  35     0.00   0.00  -0.01    -0.08   0.04   0.00    -0.19  -0.10   0.00
                      4                      5                      6
                      A                      A                      A
 Frequencies --    493.8600               569.1966               953.9160
 Red. masses --      3.1434                 4.1440                 2.9970
 Frc consts  --      0.4517                 0.7910                 1.6068
 IR Inten    --      1.0312               117.4975                75.4744
  Atom  AN      X      Y      Z        X      Y      Z        X      Y      Z
     1   6     0.00   0.00   0.40     0.32   0.01   0.00     0.21  -0.16   0.00
     2   6     0.00   0.00  -0.02     0.11  -0.25   0.00    -0.02   0.28   0.00
     3   1     0.34  -0.42  -0.20    -0.20  -0.12  -0.01    -0.47   0.40  -0.06
     4   1    -0.34   0.42  -0.20    -0.20  -0.12   0.01    -0.47   0.40   0.06
     5   1     0.00   0.00  -0.40     0.21  -0.77   0.00     0.07  -0.25   0.00
     6   8     0.00   0.00  -0.15    -0.19   0.20   0.00    -0.07  -0.14   0.00
     7  35     0.00   0.00  -0.02    -0.03   0.01   0.00     0.00   0.00   0.00
                      7                      8                      9
                      A                      A                      A
 Frequencies --   1048.3424              1113.3061              1408.2828
 Red. masses --      1.5564                 1.8698                 1.2371
 Frc consts  --      1.0078                 1.3655                 1.4456
 IR Inten    --      1.6612               146.7431                23.3546
  Atom  AN      X      Y      Z        X      Y      Z        X      Y      Z
     1   6     0.00   0.00  -0.16     0.20  -0.06   0.00     0.02  -0.01   0.00
     2   6     0.00   0.00   0.16    -0.18  -0.02   0.00    -0.07   0.13   0.00
     3   1     0.27  -0.56  -0.15     0.33  -0.07   0.11     0.31  -0.46  -0.25
     4   1    -0.27   0.56  -0.15     0.33  -0.07  -0.11     0.31  -0.45   0.26
     5   1     0.00   0.00  -0.36    -0.32   0.75   0.00     0.06  -0.49   0.00
     6   8     0.00   0.00   0.03    -0.03   0.02   0.00     0.00   0.00   0.00
     7  35     0.00   0.00   0.00     0.00   0.00   0.00     0.00   0.00   0.00
                     10                     11                     12
                      A                      A                      A
 Frequencies --   1485.2307              1485.7084              1893.1125
 Red. masses --      1.0451                 1.0476                12.0311
 Frc consts  --      1.3583                 1.3625                25.4044
 IR Inten    --     16.8812                12.7068               388.1260
  Atom  AN      X      Y      Z        X      Y      Z        X      Y      Z
     1   6     0.00   0.00  -0.02    -0.01   0.01   0.00     0.21   0.75   0.00
     2   6     0.00   0.00  -0.05    -0.05  -0.01   0.00     0.01  -0.06   0.00
     3   1     0.48  -0.07   0.06     0.37   0.35   0.35     0.04  -0.18  -0.09
     4   1    -0.47   0.08   0.05     0.38   0.34  -0.36     0.04  -0.18   0.09
     5   1     0.00  -0.01   0.72     0.05  -0.46  -0.01     0.00   0.15   0.00
     6   8     0.00   0.00   0.00     0.00  -0.02   0.00    -0.19  -0.50   0.00
     7  35     0.00   0.00   0.00     0.00   0.00   0.00     0.01   0.00   0.00
                     13                     14                     15
                      A                      A                      A
 Frequencies --   3068.8852              3143.0142              3163.6251
 Red. masses --      1.0329                 1.1010                 1.1064
 Frc consts  --      5.7315                 6.4079                 6.5244
 IR Inten    --      1.1266                 0.0782                 6.9334
  Atom  AN      X      Y      Z        X      Y      Z        X      Y      Z
     1   6     0.00   0.00   0.00     0.00   0.00   0.00     0.00   0.00   0.00
     2   6    -0.02   0.04   0.00     0.00   0.00   0.09    -0.08  -0.05   0.00
     3   1    -0.15  -0.31   0.48     0.18   0.38  -0.56     0.09   0.20  -0.32
     4   1    -0.15  -0.31  -0.48    -0.18  -0.38  -0.56     0.09   0.20   0.32
     5   1     0.54   0.11   0.00     0.00   0.00   0.01     0.82   0.16   0.00
     6   8     0.00   0.00   0.00     0.00   0.00   0.00     0.00   0.00   0.00
     7  35     0.00   0.00   0.00     0.00   0.00   0.00     0.00   0.00   0.00

 -------------------
 - Thermochemistry -
 -------------------
 Temperature   298.150 Kelvin.  Pressure   1.00000 Atm.
 Atom     1 has atomic number  6 and mass  12.00000
 Atom     2 has atomic number  6 and mass  12.00000
 Atom     3 has atomic number  1 and mass   1.00783
 Atom     4 has atomic number  1 and mass   1.00783
 Atom     5 has atomic number  1 and mass   1.00783
 Atom     6 has atomic number  8 and mass  15.99491
 Atom     7 has atomic number 35 and mass  78.91834
 Molecular mass:   121.93673 amu.
 Principal axes and moments of inertia in atomic units:
                           1         2         3
     Eigenvalues --   179.57948 610.20358 778.56139
           X            0.99773  -0.06741   0.00000
           Y            0.06741   0.99773   0.00000
           Z            0.00000   0.00000   1.00000
 This molecule is an asymmetric top.
 Rotational symmetry number  1.
 Rotational temperatures (Kelvin)      0.48231     0.14194     0.11125
 Rotational constants (GHZ):          10.04982     2.95761     2.31805
 Zero-point vibrational energy     123159.1 (Joules/Mol)
                                   29.43574 (Kcal/Mol)
 Warning -- explicit consideration of   5 degrees of freedom as
           vibrations may cause significant error
 Vibrational temperatures:    189.60   426.21   483.59   710.55   818.95
          (Kelvin)           1372.47  1508.33  1601.80  2026.20  2136.91
                             2137.60  2723.76  4415.44  4522.09  4551.75
 
 Zero-point correction=                           0.046909 (Hartree/Particle)
 Thermal correction to Energy=                    0.051742
 Thermal correction to Enthalpy=                  0.052686
 Thermal correction to Gibbs Free Energy=         0.017850
 Sum of electronic and zero-point Energies=          -2727.391017
 Sum of electronic and thermal Energies=             -2727.386184
 Sum of electronic and thermal Enthalpies=           -2727.385240
 Sum of electronic and thermal Free Energies=        -2727.420076
 
                     E (Thermal)             CV                S
                      KCal/Mol        Cal/Mol-Kelvin    Cal/Mol-Kelvin
 Total                   32.469             14.834             73.318
 Electronic               0.000              0.000              0.000
 Translational            0.889              2.981             40.309
 Rotational               0.889              2.981             25.948
 Vibrational             30.691              8.872              7.061
 Vibration     1          0.612              1.922              2.920
 Vibration     2          0.690              1.681              1.438
 Vibration     3          0.717              1.603              1.231
 Vibration     4          0.850              1.264              0.674
 Vibration     5          0.925              1.098              0.506
                       Q            Log10(Q)             Ln(Q)
 Total Bot       0.615873D-08         -8.210509        -18.905395
 Total V=0       0.232281D+14         13.366013         30.776383
 Vib (Bot)       0.111295D-20        -20.953524        -48.247273
 Vib (Bot)    1  0.154633D+01          0.189303          0.435886
 Vib (Bot)    2  0.643345D+00         -0.191556         -0.441074
 Vib (Bot)    3  0.553804D+00         -0.256644         -0.590945
 Vib (Bot)    4  0.334602D+00         -0.475471         -1.094813
 Vib (Bot)    5  0.270605D+00         -0.567664         -1.307094
 Vib (V=0)       0.419757D+01          0.622998          1.434505
 Vib (V=0)    1  0.212516D+01          0.327392          0.753847
 Vib (V=0)    2  0.131480D+01          0.118859          0.273682
 Vib (V=0)    3  0.124612D+01          0.095561          0.220037
 Vib (V=0)    4  0.110163D+01          0.042036          0.096791
 Vib (V=0)    5  0.106853D+01          0.028787          0.066285
 Electronic      0.100000D+01          0.000000          0.000000
 Translational   0.529245D+08          7.723657         17.784377
 Rotational      0.104558D+06          5.019359         11.557500
 ***** Axes restored to original set *****
 -------------------------------------------------------------------
 Center     Atomic                   Forces (Hartrees/Bohr)
 Number     Number              X              Y              Z
 -------------------------------------------------------------------
      1        6          -0.000322802    0.000070605    0.000027055
      2        6           0.000055950   -0.000074239   -0.000007469
      3        1           0.000026479    0.000010969    0.000001532
      4        1           0.000028494    0.000008333   -0.000003101
      5        1          -0.000007832    0.000017720   -0.000000788
      6        8           0.000095007   -0.000005380   -0.000011557
      7       35           0.000124703   -0.000028007   -0.000005673
 -------------------------------------------------------------------
 Cartesian Forces:  Max     0.000322802 RMS     0.000083456
 FormGI is forming the generalized inverse of G from B-inverse, IUseBI=4.

 GradGradGradGradGradGradGradGradGradGradGradGradGradGradGradGradGradGrad
 Berny optimization.
 Internal  Forces:  Max     0.000128070 RMS     0.000051427
 Search for a local minimum.
 Step number   1 out of a maximum of    2
 All quantities printed in internal units (Hartrees-Bohrs-Radians)
 Second derivative matrix not updated -- analytic derivatives used.
 ITU=  0
     Eigenvalues ---    0.00120   0.04790   0.05684   0.05725   0.08748
     Eigenvalues ---    0.12744   0.14262   0.14446   0.19846   0.22693
     Eigenvalues ---    0.29991   0.34374   0.34763   0.35166   0.94797
 Angle between quadratic step and forces=  29.58 degrees.
 Linear search not attempted -- first point.
 Iteration  1 RMS(Cart)=  0.00050645 RMS(Int)=  0.00000025
 Iteration  2 RMS(Cart)=  0.00000024 RMS(Int)=  0.00000002
 Variable       Old X    -DE/DX   Delta X   Delta X   Delta X     New X
                                 (Linear)    (Quad)   (Total)
    R1        2.84271   0.00009   0.00000   0.00050   0.00050   2.84321
    R2        2.24608   0.00004   0.00000   0.00018   0.00018   2.24625
    R3        3.78188  -0.00013   0.00000  -0.00172  -0.00172   3.78016
    R4        2.06860  -0.00001   0.00000  -0.00003  -0.00003   2.06857
    R5        2.06858  -0.00001   0.00000  -0.00001  -0.00001   2.06857
    R6        2.06601  -0.00001   0.00000  -0.00004  -0.00004   2.06597
    A1        2.23422  -0.00013   0.00000  -0.00105  -0.00105   2.23316
    A2        1.95650   0.00002   0.00000   0.00038   0.00038   1.95688
    A3        2.09247   0.00011   0.00000   0.00067   0.00067   2.09314
    A4        1.91277   0.00001   0.00000   0.00019   0.00019   1.91296
    A5        1.91284   0.00001   0.00000   0.00011   0.00011   1.91296
    A6        1.90651  -0.00002   0.00000  -0.00030  -0.00030   1.90621
    A7        1.87659   0.00001   0.00000   0.00023   0.00023   1.87682
    A8        1.92744   0.00000   0.00000  -0.00008  -0.00008   1.92735
    A9        1.92749  -0.00001   0.00000  -0.00013  -0.00013   1.92735
    D1        2.11331   0.00000   0.00000   0.00030   0.00030   2.11361
    D2       -2.11438   0.00002   0.00000   0.00076   0.00076  -2.11362
    D3       -0.00048   0.00001   0.00000   0.00047   0.00047  -0.00001
    D4       -1.02798  -0.00002   0.00000  -0.00001  -0.00001  -1.02798
    D5        1.02752   0.00000   0.00000   0.00045   0.00045   1.02797
    D6        3.14142  -0.00001   0.00000   0.00017   0.00017   3.14159
         Item               Value     Threshold  Converged?
 Maximum Force            0.000128     0.000450     YES
 RMS     Force            0.000051     0.000300     YES
 Maximum Displacement     0.001164     0.001800     YES
 RMS     Displacement     0.000506     0.001200     YES
 Predicted change in Energy=-2.566800D-07
 Optimization completed.
    -- Stationary point found.
                           ----------------------------
                           !   Optimized Parameters   !
                           ! (Angstroms and Degrees)  !
 --------------------------                            --------------------------
 ! Name  Definition              Value          Derivative Info.                !
 --------------------------------------------------------------------------------
 ! R1    R(1,2)                  1.5043         -DE/DX =    0.0001              !
 ! R2    R(1,6)                  1.1886         -DE/DX =    0.0                 !
 ! R3    R(1,7)                  2.0013         -DE/DX =   -0.0001              !
 ! R4    R(2,3)                  1.0947         -DE/DX =    0.0                 !
 ! R5    R(2,4)                  1.0946         -DE/DX =    0.0                 !
 ! R6    R(2,5)                  1.0933         -DE/DX =    0.0                 !
 ! A1    A(2,1,6)              128.0111         -DE/DX =   -0.0001              !
 ! A2    A(2,1,7)              112.0994         -DE/DX =    0.0                 !
 ! A3    A(6,1,7)              119.8895         -DE/DX =    0.0001              !
 ! A4    A(1,2,3)              109.5936         -DE/DX =    0.0                 !
 ! A5    A(1,2,4)              109.5979         -DE/DX =    0.0                 !
 ! A6    A(1,2,5)              109.2353         -DE/DX =    0.0                 !
 ! A7    A(3,2,4)              107.5207         -DE/DX =    0.0                 !
 ! A8    A(3,2,5)              110.434          -DE/DX =    0.0                 !
 ! A9    A(4,2,5)              110.4369         -DE/DX =    0.0                 !
 ! D1    D(6,1,2,3)            121.0839         -DE/DX =    0.0                 !
 ! D2    D(6,1,2,4)           -121.145          -DE/DX =    0.0                 !
 ! D3    D(6,1,2,5)             -0.0275         -DE/DX =    0.0                 !
 ! D4    D(7,1,2,3)            -58.8987         -DE/DX =    0.0                 !
 ! D5    D(7,1,2,4)             58.8724         -DE/DX =    0.0                 !
 ! D6    D(7,1,2,5)            179.9899         -DE/DX =    0.0                 !
 --------------------------------------------------------------------------------
 GradGradGradGradGradGradGradGradGradGradGradGradGradGradGradGradGradGrad

 1\1\GINC-CNODE-5-4\Freq\RB3LYP\Gen\C2H3Br1O1\MLAWAL\25-Feb-2015\0\\#N 
 Geom=AllCheck Guess=TCheck SCRF=Check GenChk RB3LYP/ChkBas Freq\\BrAc-
 6-31+g(d)/Def2TZVP\\0,1\C,1.0083920967,0.2239371918,-0.0001160295\C,1.
 7439207887,-1.0882766723,-0.0001220638\H,1.4589404761,-1.6688421424,0.
 8830520392\H,1.4582101251,-1.6693281793,-0.8827301855\H,2.8204759073,-
 0.8977445597,-0.0005898515\O,1.4673976148,1.3203029027,-0.0000867843\B
 r,-0.9772320087,-0.0259315406,0.0003988755\\Version=EM64L-G09RevD.01\S
 tate=1-A\HF=-2727.4379259\RMSD=5.196e-10\RMSF=8.346e-05\ZeroPoint=0.04
 69088\Thermal=0.0517419\Dipole=0.5420686,-1.0157401,-0.0000969\DipoleD
 eriv=2.2550726,0.1879626,-0.0004401,0.7705306,1.170293,-0.0002399,-0.0
 003898,-0.0000924,0.123129,-0.1495318,0.1269306,0.0000122,0.0273314,-0
 .2397088,0.000055,-0.0000472,0.0001543,0.0498087,0.0432182,0.0050127,0
 .0627449,0.0070151,0.0838734,0.0152453,0.0306005,0.0490125,0.0287246,0
 .0431566,0.0049146,-0.0627633,0.0069696,0.0838435,-0.0152862,-0.030586
 4,-0.0491016,0.0288186,-0.1028276,0.0205734,0.000074,0.0256255,0.04324
 05,0.000009,0.0000712,-0.0000109,0.1101617,-0.9959521,-0.2642662,0.000
 1756,-0.7646017,-0.9958531,0.0002007,0.0000664,0.000006,-0.2210986,-1.
 0931359,-0.0811277,0.0001967,-0.0728706,-0.1456885,0.0000161,0.0002852
 ,0.000032,-0.1195441\Polar=64.3965739,2.3059438,46.5996854,-0.005772,-
 0.0007556,35.3753274\PG=C01 [X(C2H3Br1O1)]\NImag=0\\0.34703597,0.16428
 722,0.97298071,-0.00000651,0.00002898,0.16534362,-0.11348116,0.0635438
 1,0.00000155,0.57117734,0.05501557,-0.15342972,-0.00001240,0.06213814,
 0.49572009,0.00000143,-0.00000880,-0.08184987,-0.00001527,0.00002631,0
 .54363872,0.00571753,0.00736002,-0.01650193,-0.06779682,-0.03657203,0.
 05914962,0.06754002,-0.01118217,-0.02039068,0.02508720,-0.03645401,-0.
 11805033,0.12034402,0.03915878,0.13128524,0.00064762,-0.00101023,0.002
 17399,0.05784019,0.11897506,-0.22258753,-0.06413744,-0.12809083,0.2401
 2759,0.00573033,0.00736640,0.01649777,-0.06790268,-0.03670762,-0.05926
 417,0.00154189,0.00463590,0.00700133,0.06765102,-0.01120582,-0.0203984
 8,-0.02506666,-0.03658449,-0.11818801,-0.12037486,0.00464385,0.0111282
 2,0.01490846,0.03930178,0.13143449,-0.00064693,0.00101779,0.00217224,-
 0.05794943,-0.11901186,-0.22237031,-0.00702234,-0.01493061,-0.02116409
 ,0.06426143,0.12812548,0.23989047,-0.01832631,-0.00316593,0.00000697,-
 0.31342560,-0.04801786,0.00011627,-0.00467207,-0.00075107,-0.00044637,
 -0.00469056,-0.00075262,0.00045224,0.33891244,0.03012641,0.00296814,-0
 .00001423,-0.05233774,-0.05955842,0.00001992,-0.01619016,-0.00254931,-
 0.00248692,-0.01620162,-0.00254952,0.00250364,0.05173689,0.06105192,-0
 .00000185,0.00000243,-0.00102898,0.00011605,0.00001751,-0.05068783,0.0
 2580717,0.00276166,0.00215501,-0.02579165,-0.00275748,0.00217657,-0.00
 012802,-0.00002347,0.04656725,-0.18052032,-0.28043392,-0.00000430,0.01
 539207,0.00893836,0.00000424,-0.00021157,0.00373042,-0.00051160,-0.000
 21174,0.00373448,0.00050916,0.00367669,-0.00150859,-0.00000121,0.20424
 389,-0.23511295,-0.75711482,-0.00002214,-0.01500077,-0.04938785,-0.000
 00190,0.00139856,-0.00238168,-0.00174744,0.00140351,-0.00238639,0.0017
 4719,-0.00107722,0.00241431,-0.00000093,0.29907509,0.81659387,-0.00000
 036,-0.00001956,-0.05767061,0.00000270,0.00000363,0.02617991,0.0022544
 1,-0.00363341,-0.00126413,-0.00225663,0.00362797,-0.00126311,-0.000001
 67,0.00000140,-0.00075481,-0.00000654,0.00001396,0.02298165,-0.0461560
 4,0.04104240,0.00000646,-0.02396314,-0.00479456,0.00000788,-0.00211898
 ,0.00086215,-0.00039374,-0.00211826,0.00086281,0.00039585,-0.00147459,
 0.00437480,-0.00000049,-0.04236902,-0.05068622,0.00000808,0.11820003,0
 .00807174,-0.02461515,-0.00000076,0.01469506,0.00289423,-0.00000469,0.
 00020098,0.00095855,-0.00054809,0.00020166,0.00095970,0.00054837,0.002
 02780,-0.00177711,0.00000027,-0.03353585,-0.00773744,0.00000601,0.0083
 3862,0.02931723,0.00000660,-0.00001060,-0.02914039,0.00000421,0.000001
 74,0.00767691,0.00045051,-0.00153802,0.00055915,-0.00044809,0.00153708
 ,0.00055823,0.00000057,-0.00000034,0.00157279,0.00001024,0.00001125,0.
 01179111,-0.00002404,-0.00000112,0.00698220\\0.00032280,-0.00007061,-0
 .00002706,-0.00005595,0.00007424,0.00000747,-0.00002648,-0.00001097,-0
 .00000153,-0.00002849,-0.00000833,0.00000310,0.00000783,-0.00001772,0.
 00000079,-0.00009501,0.00000538,0.00001156,-0.00012470,0.00002801,0.00
 000567\\\@


 THE WORLD IS MADE UP OF THE WILLS, THE WON'TS, AND THE CANT'S:
 THE WILLS DO EVERYTHING,
 THE WON'TS DO NOTHING,
 THE CAN'TS CAN'T DO ANYTHING.

                               -- FROM WALT DISNEY'S "BLACK HOLE"
 Job cpu time:       0 days  0 hours  2 minutes 31.7 seconds.
 File lengths (MBytes):  RWF=     16 Int=      0 D2E=      0 Chk=      2 Scr=      1
 Normal termination of Gaussian 09 at Wed Feb 25 14:52:14 2015.
