 Entering Link 1 = C:\G09W\l1.exe PID=      1804.
  
 Copyright (c) 1988,1990,1992,1993,1995,1998,2003,2009, Gaussian, Inc.
                  All Rights Reserved.
  
 This is part of the Gaussian(R) 09 program.  It is based on
 the Gaussian(R) 03 system (copyright 2003, Gaussian, Inc.),
 the Gaussian(R) 98 system (copyright 1998, Gaussian, Inc.),
 the Gaussian(R) 94 system (copyright 1995, Gaussian, Inc.),
 the Gaussian 92(TM) system (copyright 1992, Gaussian, Inc.),
 the Gaussian 90(TM) system (copyright 1990, Gaussian, Inc.),
 the Gaussian 88(TM) system (copyright 1988, Gaussian, Inc.),
 the Gaussian 86(TM) system (copyright 1986, Carnegie Mellon
 University), and the Gaussian 82(TM) system (copyright 1983,
 Carnegie Mellon University). Gaussian is a federally registered
 trademark of Gaussian, Inc.
  
 This software contains proprietary and confidential information,
 including trade secrets, belonging to Gaussian, Inc.
  
 This software is provided under written license and may be
 used, copied, transmitted, or stored only in accord with that
 written license.
  
 The following legend is applicable only to US Government
 contracts under FAR:
  
                    RESTRICTED RIGHTS LEGEND
  
 Use, reproduction and disclosure by the US Government is
 subject to restrictions as set forth in subparagraphs (a)
 and (c) of the Commercial Computer Software - Restricted
 Rights clause in FAR 52.227-19.
  
 Gaussian, Inc.
 340 Quinnipiac St., Bldg. 40, Wallingford CT 06492
  
  
 ---------------------------------------------------------------
 Warning -- This program may not be used in any manner that
 competes with the business of Gaussian, Inc. or will provide
 assistance to any competitor of Gaussian, Inc.  The licensee
 of this program is prohibited from giving any competitor of
 Gaussian, Inc. access to this program.  By using this program,
 the user acknowledges that Gaussian, Inc. is engaged in the
 business of creating and licensing software in the field of
 computational chemistry and represents and warrants to the
 licensee that it is not a competitor of Gaussian, Inc. and that
 it will not use this program in any manner prohibited above.
 ---------------------------------------------------------------
  

 Cite this work as:
 Gaussian 09, Revision A.02,
 M. J. Frisch, G. W. Trucks, H. B. Schlegel, G. E. Scuseria, 
 M. A. Robb, J. R. Cheeseman, G. Scalmani, V. Barone, B. Mennucci, 
 G. A. Petersson, H. Nakatsuji, M. Caricato, X. Li, H. P. Hratchian, 
 A. F. Izmaylov, J. Bloino, G. Zheng, J. L. Sonnenberg, M. Hada, 
 M. Ehara, K. Toyota, R. Fukuda, J. Hasegawa, M. Ishida, T. Nakajima, 
 Y. Honda, O. Kitao, H. Nakai, T. Vreven, J. A. Montgomery, Jr., 
 J. E. Peralta, F. Ogliaro, M. Bearpark, J. J. Heyd, E. Brothers, 
 K. N. Kudin, V. N. Staroverov, R. Kobayashi, J. Normand, 
 K. Raghavachari, A. Rendell, J. C. Burant, S. S. Iyengar, J. Tomasi, 
 M. Cossi, N. Rega, J. M. Millam, M. Klene, J. E. Knox, J. B. Cross, 
 V. Bakken, C. Adamo, J. Jaramillo, R. Gomperts, R. E. Stratmann, 
 O. Yazyev, A. J. Austin, R. Cammi, C. Pomelli, J. W. Ochterski, 
 R. L. Martin, K. Morokuma, V. G. Zakrzewski, G. A. Voth, 
 P. Salvador, J. J. Dannenberg, S. Dapprich, A. D. Daniels, 
 O. Farkas, J. B. Foresman, J. V. Ortiz, J. Cioslowski, 
 and D. J. Fox, Gaussian, Inc., Wallingford CT, 2009.
 
 ******************************************
 Gaussian 09:  IA32W-G09RevA.02 11-Jun-2009
                25-Mar-2015 
 ******************************************
 ----------------------------------------------------------
 # opt freq b3lyp/gen geom=connectivity gfinput pseudo=read
 ----------------------------------------------------------
 1/14=-1,18=20,19=15,26=3,38=1,57=2/1,3;
 2/9=110,12=2,17=6,18=5,40=1/2;
 3/5=7,11=2,16=1,17=8,24=10,25=1,30=1,71=1,74=-5/1,2,3;
 4//1;
 5/5=2,38=5/2;
 6/7=2,8=2,9=2,10=2,28=1/1;
 7//1,2,3,16;
 1/14=-1,18=20,19=15/3(2);
 2/9=110/2;
 99//99;
 2/9=110/2;
 3/5=7,6=1,11=2,16=1,17=8,25=1,30=1,71=1,74=-5,82=7/1,2,3;
 4/5=5,16=3/1;
 5/5=2,38=5/2;
 7//1,2,3,16;
 1/14=-1,18=20,19=15/3(-5);
 2/9=110/2;
 6/7=2,8=2,9=2,10=2,19=2,28=1/1;
 99/9=1/99;
 ------------------------------------------------
 gen calculation BrAc-C H O=aug-cc-pvtz/Br=dgdzvp
 ------------------------------------------------
 Symbolic Z-matrix:
 Charge =  0 Multiplicity = 1
 C                     1.01121   0.23761   0.00018 
 C                     1.72256  -1.06187  -0.00003 
 H                     1.46581  -1.67485   0.8825 
 H                     1.46445  -1.67517  -0.88197 
 H                     2.81725  -0.92328  -0.00081 
 O                     1.46701   1.33296  -0.00006 
 Br                   -0.96818  -0.04128  -0.00001 
 

 GradGradGradGradGradGradGradGradGradGradGradGradGradGradGradGradGradGrad
 Berny optimization.
 Initialization pass.
                           ----------------------------
                           !    Initial Parameters    !
                           ! (Angstroms and Degrees)  !
 --------------------------                            --------------------------
 ! Name  Definition              Value          Derivative Info.                !
 --------------------------------------------------------------------------------
 ! R1    R(1,2)                  1.4814         estimate D2E/DX2                !
 ! R2    R(1,6)                  1.1864         estimate D2E/DX2                !
 ! R3    R(1,7)                  1.9989         estimate D2E/DX2                !
 ! R4    R(2,3)                  1.1048         estimate D2E/DX2                !
 ! R5    R(2,4)                  1.1048         estimate D2E/DX2                !
 ! R6    R(2,5)                  1.1034         estimate D2E/DX2                !
 ! A1    A(2,1,6)              128.7098         estimate D2E/DX2                !
 ! A2    A(2,1,7)              110.6765         estimate D2E/DX2                !
 ! A3    A(6,1,7)              120.6137         estimate D2E/DX2                !
 ! A4    A(1,2,3)              112.0239         estimate D2E/DX2                !
 ! A5    A(1,2,4)              112.0164         estimate D2E/DX2                !
 ! A6    A(1,2,5)              111.4811         estimate D2E/DX2                !
 ! A7    A(3,2,4)              105.9857         estimate D2E/DX2                !
 ! A8    A(3,2,5)              107.5067         estimate D2E/DX2                !
 ! A9    A(4,2,5)              107.5132         estimate D2E/DX2                !
 ! D1    D(6,1,2,3)            120.5048         estimate D2E/DX2                !
 ! D2    D(6,1,2,4)           -120.5474         estimate D2E/DX2                !
 ! D3    D(6,1,2,5)             -0.0197         estimate D2E/DX2                !
 ! D4    D(7,1,2,3)            -59.5249         estimate D2E/DX2                !
 ! D5    D(7,1,2,4)             59.4229         estimate D2E/DX2                !
 ! D6    D(7,1,2,5)            179.9506         estimate D2E/DX2                !
 --------------------------------------------------------------------------------
 Trust Radius=3.00D-01 FncErr=1.00D-07 GrdErr=1.00D-06
 Number of steps in this run=  31 maximum allowed number of steps= 100.
 GradGradGradGradGradGradGradGradGradGradGradGradGradGradGradGradGradGrad

                          Input orientation:                          
 ---------------------------------------------------------------------
 Center     Atomic      Atomic             Coordinates (Angstroms)
 Number     Number       Type             X           Y           Z
 ---------------------------------------------------------------------
      1          6           0        1.011206    0.237614    0.000180
      2          6           0        1.722556   -1.061873   -0.000028
      3          1           0        1.465808   -1.674851    0.882500
      4          1           0        1.464453   -1.675170   -0.881972
      5          1           0        2.817250   -0.923279   -0.000814
      6          8           0        1.467008    1.332956   -0.000055
      7         35           0       -0.968176   -0.041280   -0.000005
 ---------------------------------------------------------------------
                    Distance matrix (angstroms):
                    1          2          3          4          5
     1  C    0.000000
     2  C    1.481447   0.000000
     3  H    2.154687   1.104770   0.000000
     4  H    2.154615   1.104797   1.764473   0.000000
     5  H    2.146967   1.103433   1.780870   1.780966   0.000000
     6  O    1.186394   2.408425   3.134614   3.134742   2.629401
     7  Br   1.998933   2.877785   3.061315   3.060253   3.886820
                    6          7
     6  O    0.000000
     7  Br   2.796184   0.000000
 Stoichiometry    C2H3BrO
 Framework group  C1[X(C2H3BrO)]
 Deg. of freedom    15
 Full point group                 C1      NOp   1
 Largest Abelian subgroup         C1      NOp   1
 Largest concise Abelian subgroup C1      NOp   1
                         Standard orientation:                         
 ---------------------------------------------------------------------
 Center     Atomic      Atomic             Coordinates (Angstroms)
 Number     Number       Type             X           Y           Z
 ---------------------------------------------------------------------
      1          6           0        1.011206    0.237614    0.000180
      2          6           0        1.722556   -1.061873   -0.000028
      3          1           0        1.465808   -1.674851    0.882500
      4          1           0        1.464453   -1.675170   -0.881972
      5          1           0        2.817250   -0.923279   -0.000814
      6          8           0        1.467008    1.332956   -0.000055
      7         35           0       -0.968176   -0.041280   -0.000005
 ---------------------------------------------------------------------
 Rotational constants (GHZ):     10.0778499      2.9893900      2.3389884
 General basis read from cards:  (5D, 7F)
 AO basis set in the form of general basis input (Overlap normalization):
      1 0
 S   7 1.00       0.000000000000
      0.8236000000D+04  0.5419783203D-03
      0.1235000000D+04  0.4192873817D-02
      0.2808000000D+03  0.2152216205D-01
      0.7927000000D+02  0.8353432195D-01
      0.2559000000D+02  0.2395828457D+00
      0.8997000000D+01  0.4428528419D+00
      0.3319000000D+01  0.3517995618D+00
 S   6 1.00       0.000000000000
      0.2808000000D+03 -0.5949224937D-04
      0.7927000000D+02 -0.1148158310D-02
      0.2559000000D+02 -0.1001913745D-01
      0.8997000000D+01 -0.6121949230D-01
      0.3319000000D+01 -0.1732698541D+00
      0.3643000000D+00  0.1072915192D+01
 S   1 1.00       0.000000000000
      0.9059000000D+00  0.1000000000D+01
 S   1 1.00       0.000000000000
      0.1285000000D+00  0.1000000000D+01
 S   1 1.00       0.000000000000
      0.4402000000D-01  0.1000000000D+01
 P   3 1.00       0.000000000000
      0.1871000000D+02  0.3942638716D-01
      0.4133000000D+01  0.2440889849D+00
      0.1200000000D+01  0.8154920089D+00
 P   1 1.00       0.000000000000
      0.3827000000D+00  0.1000000000D+01
 P   1 1.00       0.000000000000
      0.1209000000D+00  0.1000000000D+01
 P   1 1.00       0.000000000000
      0.3569000000D-01  0.1000000000D+01
 D   1 1.00       0.000000000000
      0.1097000000D+01  0.1000000000D+01
 D   1 1.00       0.000000000000
      0.3180000000D+00  0.1000000000D+01
 D   1 1.00       0.000000000000
      0.1000000000D+00  0.1000000000D+01
 F   1 1.00       0.000000000000
      0.7610000000D+00  0.1000000000D+01
 F   1 1.00       0.000000000000
      0.2680000000D+00  0.1000000000D+01
 ****
      2 0
 S   7 1.00       0.000000000000
      0.8236000000D+04  0.5419783203D-03
      0.1235000000D+04  0.4192873817D-02
      0.2808000000D+03  0.2152216205D-01
      0.7927000000D+02  0.8353432195D-01
      0.2559000000D+02  0.2395828457D+00
      0.8997000000D+01  0.4428528419D+00
      0.3319000000D+01  0.3517995618D+00
 S   6 1.00       0.000000000000
      0.2808000000D+03 -0.5949224937D-04
      0.7927000000D+02 -0.1148158310D-02
      0.2559000000D+02 -0.1001913745D-01
      0.8997000000D+01 -0.6121949230D-01
      0.3319000000D+01 -0.1732698541D+00
      0.3643000000D+00  0.1072915192D+01
 S   1 1.00       0.000000000000
      0.9059000000D+00  0.1000000000D+01
 S   1 1.00       0.000000000000
      0.1285000000D+00  0.1000000000D+01
 S   1 1.00       0.000000000000
      0.4402000000D-01  0.1000000000D+01
 P   3 1.00       0.000000000000
      0.1871000000D+02  0.3942638716D-01
      0.4133000000D+01  0.2440889849D+00
      0.1200000000D+01  0.8154920089D+00
 P   1 1.00       0.000000000000
      0.3827000000D+00  0.1000000000D+01
 P   1 1.00       0.000000000000
      0.1209000000D+00  0.1000000000D+01
 P   1 1.00       0.000000000000
      0.3569000000D-01  0.1000000000D+01
 D   1 1.00       0.000000000000
      0.1097000000D+01  0.1000000000D+01
 D   1 1.00       0.000000000000
      0.3180000000D+00  0.1000000000D+01
 D   1 1.00       0.000000000000
      0.1000000000D+00  0.1000000000D+01
 F   1 1.00       0.000000000000
      0.7610000000D+00  0.1000000000D+01
 F   1 1.00       0.000000000000
      0.2680000000D+00  0.1000000000D+01
 ****
      3 0
 S   3 1.00       0.000000000000
      0.3387000000D+02  0.2549486323D-01
      0.5095000000D+01  0.1903627659D+00
      0.1159000000D+01  0.8521620222D+00
 S   1 1.00       0.000000000000
      0.3258000000D+00  0.1000000000D+01
 S   1 1.00       0.000000000000
      0.1027000000D+00  0.1000000000D+01
 S   1 1.00       0.000000000000
      0.2526000000D-01  0.1000000000D+01
 P   1 1.00       0.000000000000
      0.1407000000D+01  0.1000000000D+01
 P   1 1.00       0.000000000000
      0.3880000000D+00  0.1000000000D+01
 P   1 1.00       0.000000000000
      0.1020000000D+00  0.1000000000D+01
 D   1 1.00       0.000000000000
      0.1057000000D+01  0.1000000000D+01
 D   1 1.00       0.000000000000
      0.2470000000D+00  0.1000000000D+01
 ****
      4 0
 S   3 1.00       0.000000000000
      0.3387000000D+02  0.2549486323D-01
      0.5095000000D+01  0.1903627659D+00
      0.1159000000D+01  0.8521620222D+00
 S   1 1.00       0.000000000000
      0.3258000000D+00  0.1000000000D+01
 S   1 1.00       0.000000000000
      0.1027000000D+00  0.1000000000D+01
 S   1 1.00       0.000000000000
      0.2526000000D-01  0.1000000000D+01
 P   1 1.00       0.000000000000
      0.1407000000D+01  0.1000000000D+01
 P   1 1.00       0.000000000000
      0.3880000000D+00  0.1000000000D+01
 P   1 1.00       0.000000000000
      0.1020000000D+00  0.1000000000D+01
 D   1 1.00       0.000000000000
      0.1057000000D+01  0.1000000000D+01
 D   1 1.00       0.000000000000
      0.2470000000D+00  0.1000000000D+01
 ****
      5 0
 S   3 1.00       0.000000000000
      0.3387000000D+02  0.2549486323D-01
      0.5095000000D+01  0.1903627659D+00
      0.1159000000D+01  0.8521620222D+00
 S   1 1.00       0.000000000000
      0.3258000000D+00  0.1000000000D+01
 S   1 1.00       0.000000000000
      0.1027000000D+00  0.1000000000D+01
 S   1 1.00       0.000000000000
      0.2526000000D-01  0.1000000000D+01
 P   1 1.00       0.000000000000
      0.1407000000D+01  0.1000000000D+01
 P   1 1.00       0.000000000000
      0.3880000000D+00  0.1000000000D+01
 P   1 1.00       0.000000000000
      0.1020000000D+00  0.1000000000D+01
 D   1 1.00       0.000000000000
      0.1057000000D+01  0.1000000000D+01
 D   1 1.00       0.000000000000
      0.2470000000D+00  0.1000000000D+01
 ****
      6 0
 S   7 1.00       0.000000000000
      0.1533000000D+05  0.5198089434D-03
      0.2299000000D+04  0.4020256215D-02
      0.5224000000D+03  0.2071282673D-01
      0.1473000000D+03  0.8101055358D-01
      0.4755000000D+02  0.2359629851D+00
      0.1676000000D+02  0.4426534455D+00
      0.6207000000D+01  0.3570644227D+00
 S   6 1.00       0.000000000000
      0.5224000000D+03 -0.4421150084D-04
      0.1473000000D+03 -0.1225910413D-02
      0.4755000000D+02 -0.1055177248D-01
      0.1676000000D+02 -0.6744526326D-01
      0.6207000000D+01 -0.1711986073D+00
      0.6882000000D+00  0.1073298561D+01
 S   1 1.00       0.000000000000
      0.1752000000D+01  0.1000000000D+01
 S   1 1.00       0.000000000000
      0.2384000000D+00  0.1000000000D+01
 S   1 1.00       0.000000000000
      0.7376000000D-01  0.1000000000D+01
 P   3 1.00       0.000000000000
      0.3446000000D+02  0.4116348957D-01
      0.7749000000D+01  0.2577628359D+00
      0.2280000000D+01  0.8024192744D+00
 P   1 1.00       0.000000000000
      0.7156000000D+00  0.1000000000D+01
 P   1 1.00       0.000000000000
      0.2140000000D+00  0.1000000000D+01
 P   1 1.00       0.000000000000
      0.5974000000D-01  0.1000000000D+01
 D   1 1.00       0.000000000000
      0.2314000000D+01  0.1000000000D+01
 D   1 1.00       0.000000000000
      0.6450000000D+00  0.1000000000D+01
 D   1 1.00       0.000000000000
      0.2140000000D+00  0.1000000000D+01
 F   1 1.00       0.000000000000
      0.1428000000D+01  0.1000000000D+01
 F   1 1.00       0.000000000000
      0.5000000000D+00  0.1000000000D+01
 ****
      7 0
 S   6 1.00       0.000000000000
      0.1153541000D+06  0.1689379995D-02
      0.1730839000D+05  0.1292184996D-01
      0.3932853400D+04  0.6455660981D-01
      0.1107772300D+04  0.2228720993D+00
      0.3596333600D+03  0.4668336486D+00
      0.1236998800D+03  0.3726869689D+00
 S   3 1.00       0.000000000000
      0.2391218000D+03  0.1093639903D+00
      0.2826812700D+02 -0.6294377118D+00
      0.1175056600D+02 -0.4449870813D+00
 S   3 1.00       0.000000000000
      0.2182996400D+02  0.2318733896D+00
      0.3608825700D+01 -0.7272457089D+00
      0.1516486500D+01 -0.4055865594D+00
 S   2 1.00       0.000000000000
      0.2520936700D+01  0.3575752364D+00
      0.4093414600D+00 -0.1162864353D+01
 S   1 1.00       0.000000000000
      0.1530952600D+00  0.1000000000D+01
 P   5 1.00       0.000000000000
      0.1580373900D+04  0.8175719992D-02
      0.3730975500D+03  0.6255249994D-01
      0.1183523300D+03  0.2484744598D+00
      0.4285895500D+02  0.5054137195D+00
      0.1597787400D+02  0.3523442797D+00
 P   3 1.00       0.000000000000
      0.8753327500D+01  0.3283503610D+00
      0.3516033500D+01  0.5437991016D+00
      0.1430737800D+01  0.2357859007D+00
 P   2 1.00       0.000000000000
      0.7091507600D+00 -0.3998316282D+00
      0.2656834900D+00 -0.6649661406D+00
 P   1 1.00       0.000000000000
      0.9439950000D-01  0.1000000000D+01
 D   4 1.00       0.000000000000
      0.6151441400D+02  0.5957768016D-01
      0.1716198300D+02  0.2843780708D+00
      0.5538470600D+01  0.5281855814D+00
      0.1684816600D+01  0.4047723711D+00
 D   1 1.00       0.000000000000
      0.3620000000D+00  0.1000000000D+01
 ****

 ======================================================================================================
                                       Pseudopotential Parameters
 ======================================================================================================
  Center     Atomic      Valence      Angular      Power
  Number     Number     Electrons     Momentum     of R      Exponent        Coefficient   SO-Coeffient
 ======================================================================================================
    1          6
                                   No pseudopotential on this center.
    2          6
                                   No pseudopotential on this center.
    3          1
                                   No pseudopotential on this center.
    4          1
                                   No pseudopotential on this center.
    5          1
                                   No pseudopotential on this center.
    6          8
                                   No pseudopotential on this center.
    7         35
                                   No pseudopotential on this center.
 ======================================================================================================
 There are   234 symmetry adapted basis functions of A   symmetry.
 Integral buffers will be    262144 words long.
 Raffenetti 2 integral format.
 Two-electron integral symmetry is turned on.
   234 basis functions,   375 primitive gaussians,   269 cartesian basis functions
    29 alpha electrons       29 beta electrons
       nuclear repulsion energy       227.1383430167 Hartrees.
 NAtoms=    7 NActive=    7 NUniq=    7 SFac= 7.50D-01 NAtFMM=   80 NAOKFM=F Big=F
 One-electron integrals computed using PRISM.
   1 Symmetry operations used in ECPInt.
 ECPInt:  NShTT=    3240 NPrTT=   10753 LenC2=    3229 LenP2D=    9200.
 LDataN:  DoStor=T MaxTD1= 6 Len=  172
 NBasis=   234 RedAO= T  NBF=   234
 NBsUse=   234 1.00D-06 NBFU=   234
 Harris functional with IExCor=  402 diagonalized for initial guess.
 ExpMin= 2.53D-02 ExpMax= 1.15D+05 ExpMxC= 1.73D+04 IAcc=3 IRadAn=         0 AccDes= 0.00D+00
 HarFok:  IExCor=  402 AccDes= 0.00D+00 IRadAn=         0 IDoV= 1
 ScaDFX=  1.000000  1.000000  1.000000  1.000000
 FoFCou: FMM=F IPFlag=           0 FMFlag=      100000 FMFlg1=           0
         NFxFlg=           0 DoJE=T BraDBF=F KetDBF=T FulRan=T
         Omega=  0.000000  0.000000  1.000000  0.000000  0.000000 ICntrl=     500 IOpCl=  0
         NMat0=    1 NMatS0=    1 NMatT0=    0 NMatD0=    1 NMtDS0=    0 NMtDT0=    0
         I1Cent=           4 NGrid=           0.
 Petite list used in FoFCou.
 Initial guess orbital symmetries:
       Occupied  (A) (A) (A) (A) (A) (A) (A) (A) (A) (A) (A) (A)
                 (A) (A) (A) (A) (A) (A) (A) (A) (A) (A) (A) (A)
                 (A) (A) (A) (A) (A)
       Virtual   (A) (A) (A) (A) (A) (A) (A) (A) (A) (A) (A) (A)
                 (A) (A) (A) (A) (A) (A) (A) (A) (A) (A) (A) (A)
                 (A) (A) (A) (A) (A) (A) (A) (A) (A) (A) (A) (A)
                 (A) (A) (A) (A) (A) (A) (A) (A) (A) (A) (A) (A)
                 (A) (A) (A) (A) (A) (A) (A) (A) (A) (A) (A) (A)
                 (A) (A) (A) (A) (A) (A) (A) (A) (A) (A) (A) (A)
                 (A) (A) (A) (A) (A) (A) (A) (A) (A) (A) (A) (A)
                 (A) (A) (A) (A) (A) (A) (A) (A) (A) (A) (A) (A)
                 (A) (A) (A) (A) (A) (A) (A) (A) (A) (A) (A) (A)
                 (A) (A) (A) (A) (A) (A) (A) (A) (A) (A) (A) (A)
                 (A) (A) (A) (A) (A) (A) (A) (A) (A) (A) (A) (A)
                 (A) (A) (A) (A) (A) (A) (A) (A) (A) (A) (A) (A)
                 (A) (A) (A) (A) (A) (A) (A) (A) (A) (A) (A) (A)
                 (A) (A) (A) (A) (A) (A) (A) (A) (A) (A) (A) (A)
                 (A) (A) (A) (A) (A) (A) (A) (A) (A) (A) (A) (A)
                 (A) (A) (A) (A) (A) (A) (A) (A) (A) (A) (A) (A)
                 (A) (A) (A) (A) (A) (A) (A) (A) (A) (A) (A) (A)
                 (A)
 The electronic state of the initial guess is 1-A.
 Requested convergence on RMS density matrix=1.00D-08 within 128 cycles.
 Requested convergence on MAX density matrix=1.00D-06.
 Requested convergence on             energy=1.00D-06.
 No special actions if energy rises.
 SCF Done:  E(RB3LYP) =  -2727.00501999     A.U. after   12 cycles
             Convg  =    0.6882D-08             -V/T =  2.0027

 **********************************************************************

            Population analysis using the SCF density.

 **********************************************************************

 Orbital symmetries:
       Occupied  (A) (A) (A) (A) (A) (A) (A) (A) (A) (A) (A) (A)
                 (A) (A) (A) (A) (A) (A) (A) (A) (A) (A) (A) (A)
                 (A) (A) (A) (A) (A)
       Virtual   (A) (A) (A) (A) (A) (A) (A) (A) (A) (A) (A) (A)
                 (A) (A) (A) (A) (A) (A) (A) (A) (A) (A) (A) (A)
                 (A) (A) (A) (A) (A) (A) (A) (A) (A) (A) (A) (A)
                 (A) (A) (A) (A) (A) (A) (A) (A) (A) (A) (A) (A)
                 (A) (A) (A) (A) (A) (A) (A) (A) (A) (A) (A) (A)
                 (A) (A) (A) (A) (A) (A) (A) (A) (A) (A) (A) (A)
                 (A) (A) (A) (A) (A) (A) (A) (A) (A) (A) (A) (A)
                 (A) (A) (A) (A) (A) (A) (A) (A) (A) (A) (A) (A)
                 (A) (A) (A) (A) (A) (A) (A) (A) (A) (A) (A) (A)
                 (A) (A) (A) (A) (A) (A) (A) (A) (A) (A) (A) (A)
                 (A) (A) (A) (A) (A) (A) (A) (A) (A) (A) (A) (A)
                 (A) (A) (A) (A) (A) (A) (A) (A) (A) (A) (A) (A)
                 (A) (A) (A) (A) (A) (A) (A) (A) (A) (A) (A) (A)
                 (A) (A) (A) (A) (A) (A) (A) (A) (A) (A) (A) (A)
                 (A) (A) (A) (A) (A) (A) (A) (A) (A) (A) (A) (A)
                 (A) (A) (A) (A) (A) (A) (A) (A) (A) (A) (A) (A)
                 (A) (A) (A) (A) (A) (A) (A) (A) (A) (A) (A) (A)
                 (A)
 The electronic state is 1-A.
 Alpha  occ. eigenvalues -- -482.90310 -62.55634 -56.39824 -56.39552 -56.39504
 Alpha  occ. eigenvalues --  -19.18015 -10.33817 -10.22075  -8.74076  -6.57192
 Alpha  occ. eigenvalues --   -6.56193  -6.56050  -2.66886  -2.66631  -2.66519
 Alpha  occ. eigenvalues --   -2.65735  -2.65731  -1.10988  -0.81626  -0.76308
 Alpha  occ. eigenvalues --   -0.57350  -0.49745  -0.49053  -0.48532  -0.41953
 Alpha  occ. eigenvalues --   -0.41086  -0.30967  -0.30559  -0.29547
 Alpha virt. eigenvalues --   -0.06012  -0.02959  -0.01429   0.01557   0.01657
 Alpha virt. eigenvalues --    0.02232   0.05613   0.06239   0.06676   0.07202
 Alpha virt. eigenvalues --    0.07740   0.08297   0.09956   0.10508   0.12911
 Alpha virt. eigenvalues --    0.15745   0.15768   0.16287   0.17204   0.17576
 Alpha virt. eigenvalues --    0.18849   0.22987   0.23110   0.23290   0.25764
 Alpha virt. eigenvalues --    0.25806   0.27101   0.27319   0.27695   0.28689
 Alpha virt. eigenvalues --    0.30171   0.31087   0.31959   0.32069   0.33581
 Alpha virt. eigenvalues --    0.33934   0.36069   0.37169   0.40279   0.40282
 Alpha virt. eigenvalues --    0.42803   0.42837   0.43242   0.48737   0.50646
 Alpha virt. eigenvalues --    0.51276   0.55319   0.56264   0.57112   0.59827
 Alpha virt. eigenvalues --    0.60171   0.62131   0.65280   0.65771   0.66459
 Alpha virt. eigenvalues --    0.66860   0.69435   0.69965   0.73922   0.74165
 Alpha virt. eigenvalues --    0.74617   0.75294   0.78303   0.80695   0.80779
 Alpha virt. eigenvalues --    0.82074   0.82954   0.84927   0.87162   0.87864
 Alpha virt. eigenvalues --    0.89520   0.91939   0.92862   0.92906   0.94182
 Alpha virt. eigenvalues --    0.97799   1.01848   1.03153   1.03256   1.04861
 Alpha virt. eigenvalues --    1.08097   1.08316   1.08691   1.12672   1.12780
 Alpha virt. eigenvalues --    1.19003   1.20760   1.24746   1.27259   1.29488
 Alpha virt. eigenvalues --    1.31334   1.31576   1.35215   1.37260   1.40174
 Alpha virt. eigenvalues --    1.42753   1.43490   1.45737   1.47270   1.50021
 Alpha virt. eigenvalues --    1.52556   1.54592   1.57915   1.60143   1.60505
 Alpha virt. eigenvalues --    1.64389   1.68971   1.73466   1.74744   1.82406
 Alpha virt. eigenvalues --    1.88145   1.88549   1.95431   1.95991   2.02049
 Alpha virt. eigenvalues --    2.03848   2.06817   2.11606   2.17094   2.18997
 Alpha virt. eigenvalues --    2.23130   2.27366   2.32950   2.39544   2.46011
 Alpha virt. eigenvalues --    2.47298   2.50140   2.59090   2.59576   2.70936
 Alpha virt. eigenvalues --    2.76647   2.77348   2.87135   2.96370   2.98579
 Alpha virt. eigenvalues --    3.05871   3.15247   3.15319   3.17067   3.20082
 Alpha virt. eigenvalues --    3.20597   3.26451   3.31710   3.31742   3.38951
 Alpha virt. eigenvalues --    3.40166   3.42042   3.43216   3.47998   3.50457
 Alpha virt. eigenvalues --    3.56673   3.57008   3.67532   3.68860   3.70802
 Alpha virt. eigenvalues --    3.73718   3.77615   3.79576   3.87385   3.90229
 Alpha virt. eigenvalues --    3.92916   4.01183   4.10343   4.18814   4.19918
 Alpha virt. eigenvalues --    4.28628   4.32077   4.37226   4.37679   4.39963
 Alpha virt. eigenvalues --    4.48786   4.54888   4.61799   4.69335   4.73725
 Alpha virt. eigenvalues --    4.82669   4.87575   4.94566   5.02318   5.09702
 Alpha virt. eigenvalues --    5.11811   5.19913   5.28737   5.35381   5.49621
 Alpha virt. eigenvalues --    5.69670   5.72571   5.79059   6.11549   6.15533
 Alpha virt. eigenvalues --    6.23791   6.27213   6.44085   6.46546   6.69533
 Alpha virt. eigenvalues --    6.70852   6.72880   6.83709   6.98887   7.06309
 Alpha virt. eigenvalues --    7.17958   7.20031  14.02804  14.90589  16.62541
          Condensed to atoms (all electrons):
              1          2          3          4          5          6
     1  C    4.532515   0.263652   0.000199   0.000182   0.009638   0.452131
     2  C    0.263652   5.396648   0.346795   0.346792   0.353153  -0.086723
     3  H    0.000199   0.346795   0.404030   0.035186  -0.030486   0.008674
     4  H    0.000182   0.346792   0.035186   0.404010  -0.030479   0.008672
     5  H    0.009638   0.353153  -0.030486  -0.030479   0.460706  -0.007975
     6  O    0.452131  -0.086723   0.008674   0.008672  -0.007975   8.176248
     7  Br   0.258190   0.009394  -0.023363  -0.023364   0.023999  -0.080462
              7
     1  C    0.258190
     2  C    0.009394
     3  H   -0.023363
     4  H   -0.023364
     5  H    0.023999
     6  O   -0.080462
     7  Br  34.958235
 Mulliken atomic charges:
              1
     1  C    0.483494
     2  C   -0.629711
     3  H    0.258965
     4  H    0.259001
     5  H    0.221444
     6  O   -0.470564
     7  Br  -0.122629
 Sum of Mulliken atomic charges =   0.00000
 Mulliken charges with hydrogens summed into heavy atoms:
              1
     1  C    0.483494
     2  C    0.109699
     6  O   -0.470564
     7  Br  -0.122629
 Sum of Mulliken charges with hydrogens summed into heavy atoms =   0.00000
 Electronic spatial extent (au):  <R**2>=            493.1472
 Charge=              0.0000 electrons
 Dipole moment (field-independent basis, Debye):
    X=              1.4477    Y=             -2.5412    Z=              0.0002  Tot=              2.9246
 Quadrupole moment (field-independent basis, Debye-Ang):
   XX=            -34.5985   YY=            -37.8149   ZZ=            -35.6760
   XY=             -4.4461   XZ=              0.0009   YZ=              0.0002
 Traceless Quadrupole moment (field-independent basis, Debye-Ang):
   XX=              1.4312   YY=             -1.7851   ZZ=              0.3538
   XY=             -4.4461   XZ=              0.0009   YZ=              0.0002
 Octapole moment (field-independent basis, Debye-Ang**2):
  XXX=            -23.9563  YYY=             -3.6638  ZZZ=              0.0008  XYY=             -8.8406
  XXY=             -7.1091  XXZ=             -0.0011  XZZ=             -6.4354  YZZ=             -0.0424
  YYZ=             -0.0002  XYZ=             -0.0009
 Hexadecapole moment (field-independent basis, Debye-Ang**3):
 XXXX=           -366.6529 YYYY=           -166.6260 ZZZZ=            -46.5185 XXXY=             -6.1808
 XXXZ=             -0.0041 YYYX=             -2.4553 YYYZ=              0.0004 ZZZX=              0.0037
 ZZZY=             -0.0024 XXYY=            -95.8704 XXZZ=            -72.4107 YYZZ=            -32.3523
 XXYZ=             -0.0016 YYXZ=              0.0029 ZZXY=              1.0806
 N-N= 2.271383430167D+02 E-N=-6.959467920847D+03  KE= 2.719758852132D+03
   1 Symmetry operations used in ECPInt.
 ECPInt:  NShTT=    3240 NPrTT=   10753 LenC2=    3229 LenP2D=    9200.
 LDataN:  DoStor=T MaxTD1= 7 Len=  274
 Calling FoFJK, ICntrl=      2127 FMM=F ISym2X=0 I1Cent= 0 IOpClX= 0 NMat=1 NMatS=1 NMatT=0.
 ***** Axes restored to original set *****
 -------------------------------------------------------------------
 Center     Atomic                   Forces (Hartrees/Bohr)
 Number     Number              X              Y              Z
 -------------------------------------------------------------------
      1        6           0.005502447    0.014263721   -0.000047866
      2        6           0.017293091   -0.022138095   -0.000012467
      3        1          -0.001937771    0.007983238   -0.006685252
      4        1          -0.001912409    0.007993425    0.006703224
      5        1          -0.009088888    0.003974391    0.000005417
      6        8          -0.006451665   -0.013603052    0.000023862
      7       35          -0.003404805    0.001526372    0.000013082
 -------------------------------------------------------------------
 Cartesian Forces:  Max     0.022138095 RMS     0.008691918

 GradGradGradGradGradGradGradGradGradGradGradGradGradGradGradGradGradGrad
 Berny optimization.
 Internal  Forces:  Max     0.015032840 RMS     0.005684482
 Search for a local minimum.
 Step number   1 out of a maximum of   31
 All quantities printed in internal units (Hartrees-Bohrs-Radians)
 Mixed Optimization -- RFO/linear search
 Second derivative matrix not updated -- first step.
     Eigenvalues ---    0.01011   0.01011   0.07204   0.07224   0.14160
     Eigenvalues ---    0.16000   0.16000   0.16000   0.25000   0.25000
     Eigenvalues ---    0.33157   0.33160   0.33305   0.34404   1.11968
     Eigenvalues --- 1000.000001000.000001000.000001000.000001000.00000
     Eigenvalues --- 1000.00000
 RFO step:  Lambda=-2.12877731D-03 EMin= 1.01136755D-02
 Linear search not attempted -- first point.
 Iteration  1 RMS(Cart)=  0.01836795 RMS(Int)=  0.00044927
 Iteration  2 RMS(Cart)=  0.00035119 RMS(Int)=  0.00026975
 Iteration  3 RMS(Cart)=  0.00000003 RMS(Int)=  0.00026975
 Variable       Old X    -DE/DX   Delta X   Delta X   Delta X     New X
                                 (Linear)    (Quad)   (Total)
    R1        2.79953   0.00401   0.00000   0.01159   0.01159   2.81112
    R2        2.24196  -0.01503   0.00000  -0.01340  -0.01340   2.22856
    R3        3.77744   0.00315   0.00000   0.02193   0.02193   3.79936
    R4        2.08771  -0.00932   0.00000  -0.02792  -0.02792   2.05980
    R5        2.08776  -0.00934   0.00000  -0.02798  -0.02798   2.05978
    R6        2.08519  -0.00852   0.00000  -0.02543  -0.02543   2.05976
    A1        2.24641  -0.00146   0.00000  -0.00578  -0.00578   2.24063
    A2        1.93167   0.00452   0.00000   0.01792   0.01792   1.94959
    A3        2.10511  -0.00306   0.00000  -0.01213  -0.01213   2.09297
    A4        1.95519  -0.00484   0.00000  -0.03185  -0.03237   1.92282
    A5        1.95506  -0.00483   0.00000  -0.03174  -0.03226   1.92279
    A6        1.94571  -0.00438   0.00000  -0.02311  -0.02337   1.92235
    A7        1.84980   0.00390   0.00000   0.01673   0.01594   1.86574
    A8        1.87635   0.00566   0.00000   0.03854   0.03829   1.91464
    A9        1.87646   0.00566   0.00000   0.03851   0.03826   1.91472
    D1        2.10321   0.00081   0.00000   0.01009   0.00987   2.11308
    D2       -2.10395  -0.00084   0.00000  -0.01214  -0.01192  -2.11587
    D3       -0.00034  -0.00001   0.00000  -0.00101  -0.00101  -0.00135
    D4       -1.03890   0.00084   0.00000   0.01240   0.01218  -1.02672
    D5        1.03713  -0.00081   0.00000  -0.00983  -0.00961   1.02751
    D6        3.14073   0.00002   0.00000   0.00130   0.00130  -3.14115
         Item               Value     Threshold  Converged?
 Maximum Force            0.015033     0.000450     NO 
 RMS     Force            0.005684     0.000300     NO 
 Maximum Displacement     0.038079     0.001800     NO 
 RMS     Displacement     0.018468     0.001200     NO 
 Predicted change in Energy=-1.073309D-03
 GradGradGradGradGradGradGradGradGradGradGradGradGradGradGradGradGradGrad

                          Input orientation:                          
 ---------------------------------------------------------------------
 Center     Atomic      Atomic             Coordinates (Angstroms)
 Number     Number       Type             X           Y           Z
 ---------------------------------------------------------------------
      1          6           0        1.016205    0.223644   -0.000597
      2          6           0        1.739088   -1.076488   -0.000192
      3          1           0        1.459333   -1.661777    0.875747
      4          1           0        1.458947   -1.662504   -0.875509
      5          1           0        2.815847   -0.907254   -0.000448
      6          8           0        1.468399    1.312805    0.000130
      7         35           0       -0.977714   -0.034309    0.000675
 ---------------------------------------------------------------------
                    Distance matrix (angstroms):
                    1          2          3          4          5
     1  C    0.000000
     2  C    1.487583   0.000000
     3  H    2.125830   1.089998   0.000000
     4  H    2.125804   1.089988   1.751256   0.000000
     5  H    2.125475   1.089977   1.782457   1.782502   0.000000
     6  O    1.179302   2.404578   3.100795   3.101500   2.596975
     7  Br   2.010536   2.909837   3.058366   3.058763   3.892704
                    6          7
     6  O    0.000000
     7  Br   2.792524   0.000000
 Stoichiometry    C2H3BrO
 Framework group  C1[X(C2H3BrO)]
 Deg. of freedom    15
 Full point group                 C1      NOp   1
 Largest Abelian subgroup         C1      NOp   1
 Largest concise Abelian subgroup C1      NOp   1
                         Standard orientation:                         
 ---------------------------------------------------------------------
 Center     Atomic      Atomic             Coordinates (Angstroms)
 Number     Number       Type             X           Y           Z
 ---------------------------------------------------------------------
      1          6           0        1.017160    0.236009   -0.000620
      2          6           0        1.754748   -1.055838    0.000091
      3          1           0        1.481367   -1.644218    0.875972
      4          1           0        1.481556   -1.645040   -0.875284
      5          1           0        2.829517   -0.874398    0.000173
      6          8           0        1.456969    1.330231    0.000193
      7         35           0       -0.973704   -0.044549    0.000022
 ---------------------------------------------------------------------
 Rotational constants (GHZ):     10.1858371      2.9552046      2.3231742
 Basis read from rwf:  (5D, 7F)
 Pseudo-potential data read from rwf file.
 There are   234 symmetry adapted basis functions of A   symmetry.
 Integral buffers will be    262144 words long.
 Raffenetti 2 integral format.
 Two-electron integral symmetry is turned on.
   234 basis functions,   375 primitive gaussians,   269 cartesian basis functions
    29 alpha electrons       29 beta electrons
       nuclear repulsion energy       226.7752847590 Hartrees.
 NAtoms=    7 NActive=    7 NUniq=    7 SFac= 7.50D-01 NAtFMM=   80 NAOKFM=F Big=F
 One-electron integrals computed using PRISM.
   1 Symmetry operations used in ECPInt.
 ECPInt:  NShTT=    3240 NPrTT=   10753 LenC2=    3229 LenP2D=    9201.
 LDataN:  DoStor=T MaxTD1= 6 Len=  172
 NBasis=   234 RedAO= T  NBF=   234
 NBsUse=   234 1.00D-06 NBFU=   234
 Initial guess read from the read-write file.
 B after Tr=     0.000000    0.000000    0.000000
         Rot=    1.000000    0.000000    0.000000    0.000000 Ang=   0.00 deg.
 Initial guess orbital symmetries:
       Occupied  (A) (A) (A) (A) (A) (A) (A) (A) (A) (A) (A) (A)
                 (A) (A) (A) (A) (A) (A) (A) (A) (A) (A) (A) (A)
                 (A) (A) (A) (A) (A)
       Virtual   (A) (A) (A) (A) (A) (A) (A) (A) (A) (A) (A) (A)
                 (A) (A) (A) (A) (A) (A) (A) (A) (A) (A) (A) (A)
                 (A) (A) (A) (A) (A) (A) (A) (A) (A) (A) (A) (A)
                 (A) (A) (A) (A) (A) (A) (A) (A) (A) (A) (A) (A)
                 (A) (A) (A) (A) (A) (A) (A) (A) (A) (A) (A) (A)
                 (A) (A) (A) (A) (A) (A) (A) (A) (A) (A) (A) (A)
                 (A) (A) (A) (A) (A) (A) (A) (A) (A) (A) (A) (A)
                 (A) (A) (A) (A) (A) (A) (A) (A) (A) (A) (A) (A)
                 (A) (A) (A) (A) (A) (A) (A) (A) (A) (A) (A) (A)
                 (A) (A) (A) (A) (A) (A) (A) (A) (A) (A) (A) (A)
                 (A) (A) (A) (A) (A) (A) (A) (A) (A) (A) (A) (A)
                 (A) (A) (A) (A) (A) (A) (A) (A) (A) (A) (A) (A)
                 (A) (A) (A) (A) (A) (A) (A) (A) (A) (A) (A) (A)
                 (A) (A) (A) (A) (A) (A) (A) (A) (A) (A) (A) (A)
                 (A) (A) (A) (A) (A) (A) (A) (A) (A) (A) (A) (A)
                 (A) (A) (A) (A) (A) (A) (A) (A) (A) (A) (A) (A)
                 (A) (A) (A) (A) (A) (A) (A) (A) (A) (A) (A) (A)
                 (A)
 Harris functional with IExCor=  402 diagonalized for initial guess.
 ExpMin= 2.53D-02 ExpMax= 1.15D+05 ExpMxC= 1.73D+04 IAcc=3 IRadAn=         0 AccDes= 0.00D+00
 HarFok:  IExCor=  402 AccDes= 0.00D+00 IRadAn=         0 IDoV= 1
 ScaDFX=  1.000000  1.000000  1.000000  1.000000
 FoFCou: FMM=F IPFlag=           0 FMFlag=      100000 FMFlg1=           0
         NFxFlg=           0 DoJE=T BraDBF=F KetDBF=T FulRan=T
         Omega=  0.000000  0.000000  1.000000  0.000000  0.000000 ICntrl=     500 IOpCl=  0
         NMat0=    1 NMatS0=    1 NMatT0=    0 NMatD0=    1 NMtDS0=    0 NMtDT0=    0
         I1Cent=           4 NGrid=           0.
 Petite list used in FoFCou.
 Requested convergence on RMS density matrix=1.00D-08 within 128 cycles.
 Requested convergence on MAX density matrix=1.00D-06.
 Requested convergence on             energy=1.00D-06.
 No special actions if energy rises.
 SCF Done:  E(RB3LYP) =  -2727.00632318     A.U. after   10 cycles
             Convg  =    0.5926D-08             -V/T =  2.0026
   1 Symmetry operations used in ECPInt.
 ECPInt:  NShTT=    3240 NPrTT=   10753 LenC2=    3229 LenP2D=    9201.
 LDataN:  DoStor=T MaxTD1= 7 Len=  274
 Calling FoFJK, ICntrl=      2127 FMM=F ISym2X=0 I1Cent= 0 IOpClX= 0 NMat=1 NMatS=1 NMatT=0.
 ***** Axes restored to original set *****
 -------------------------------------------------------------------
 Center     Atomic                   Forces (Hartrees/Bohr)
 Number     Number              X              Y              Z
 -------------------------------------------------------------------
      1        6           0.002225425    0.006291588    0.000189371
      2        6           0.004621631   -0.006873834   -0.000066986
      3        1          -0.001056938    0.001036486   -0.000104782
      4        1          -0.001039403    0.001009792    0.000103498
      5        1          -0.001394967    0.001674447   -0.000005360
      6        8          -0.002195521   -0.003126914   -0.000078002
      7       35          -0.001160227   -0.000011565   -0.000037739
 -------------------------------------------------------------------
 Cartesian Forces:  Max     0.006873834 RMS     0.002565342

 GradGradGradGradGradGradGradGradGradGradGradGradGradGradGradGradGradGrad
 Berny optimization.
 Using GEDIIS/GDIIS optimizer.
 Internal  Forces:  Max     0.003725149 RMS     0.001455585
 Search for a local minimum.
 Step number   2 out of a maximum of   31
 All quantities printed in internal units (Hartrees-Bohrs-Radians)
 Mixed Optimization -- RFO/linear search
 Update second derivatives using D2CorX and points    1    2
 DE= -1.30D-03 DEPred=-1.07D-03 R= 1.21D+00
 SS=  1.41D+00  RLast= 9.90D-02 DXNew= 5.0454D-01 2.9709D-01
 Trust test= 1.21D+00 RLast= 9.90D-02 DXMaxT set to 3.00D-01
 Use linear search instead of GDIIS.
     Eigenvalues ---    0.01011   0.01012   0.07469   0.07531   0.12323
     Eigenvalues ---    0.14415   0.16000   0.16039   0.24797   0.25523
     Eigenvalues ---    0.32018   0.33159   0.33327   0.36704   1.09133
     Eigenvalues --- 1000.000001000.000001000.000001000.000001000.00000
     Eigenvalues --- 1000.00000
 RFO step:  Lambda=-9.85890995D-05 EMin= 1.01136662D-02
 Quartic linear search produced a step of  0.25801.
 Iteration  1 RMS(Cart)=  0.00651728 RMS(Int)=  0.00014236
 Iteration  2 RMS(Cart)=  0.00007978 RMS(Int)=  0.00011556
 Iteration  3 RMS(Cart)=  0.00000001 RMS(Int)=  0.00011556
 Variable       Old X    -DE/DX   Delta X   Delta X   Delta X     New X
                                 (Linear)    (Quad)   (Total)
    R1        2.81112   0.00331   0.00299   0.00955   0.01254   2.82367
    R2        2.22856  -0.00373  -0.00346  -0.00132  -0.00478   2.22378
    R3        3.79936   0.00115   0.00566   0.00509   0.01075   3.81011
    R4        2.05980  -0.00037  -0.00720   0.00475  -0.00245   2.05734
    R5        2.05978  -0.00036  -0.00722   0.00480  -0.00242   2.05736
    R6        2.05976  -0.00112  -0.00656   0.00135  -0.00521   2.05455
    A1        2.24063   0.00101  -0.00149   0.00638   0.00487   2.24549
    A2        1.94959  -0.00021   0.00462  -0.00503  -0.00043   1.94915
    A3        2.09297  -0.00080  -0.00313  -0.00133  -0.00448   2.08850
    A4        1.92282  -0.00135  -0.00835  -0.00350  -0.01208   1.91074
    A5        1.92279  -0.00130  -0.00832  -0.00308  -0.01163   1.91117
    A6        1.92235  -0.00194  -0.00603  -0.00907  -0.01525   1.90709
    A7        1.86574   0.00110   0.00411   0.00377   0.00758   1.87333
    A8        1.91464   0.00182   0.00988   0.00623   0.01596   1.93059
    A9        1.91472   0.00180   0.00987   0.00615   0.01587   1.93059
    D1        2.11308   0.00017   0.00255   0.00559   0.00807   2.12115
    D2       -2.11587  -0.00009  -0.00308   0.00622   0.00321  -2.11266
    D3       -0.00135   0.00005  -0.00026   0.00599   0.00573   0.00438
    D4       -1.02672   0.00008   0.00314  -0.00661  -0.00353  -1.03025
    D5        1.02751  -0.00018  -0.00248  -0.00598  -0.00839   1.01912
    D6       -3.14115  -0.00004   0.00034  -0.00621  -0.00587   3.13616
         Item               Value     Threshold  Converged?
 Maximum Force            0.003725     0.000450     NO 
 RMS     Force            0.001456     0.000300     NO 
 Maximum Displacement     0.014592     0.001800     NO 
 RMS     Displacement     0.006532     0.001200     NO 
 Predicted change in Energy=-1.127098D-04
 GradGradGradGradGradGradGradGradGradGradGradGradGradGradGradGradGradGrad

                          Input orientation:                          
 ---------------------------------------------------------------------
 Center     Atomic      Atomic             Coordinates (Angstroms)
 Number     Number       Type             X           Y           Z
 ---------------------------------------------------------------------
      1          6           0        1.020489    0.222645    0.003259
      2          6           0        1.744933   -1.084210    0.000372
      3          1           0        1.456946   -1.660851    0.877764
      4          1           0        1.452734   -1.659813   -0.876320
      5          1           0        2.816500   -0.900405   -0.002089
      6          8           0        1.467787    1.311086   -0.000928
      7         35           0       -0.979284   -0.034335   -0.002251
 ---------------------------------------------------------------------
                    Distance matrix (angstroms):
                    1          2          3          4          5
     1  C    0.000000
     2  C    1.494221   0.000000
     3  H    2.121983   1.088700   0.000000
     4  H    2.122297   1.088710   1.754090   0.000000
     5  H    2.118236   1.087219   1.789080   1.789088   0.000000
     6  O    1.176774   2.411276   3.099133   3.097221   2.590312
     7  Br   2.016224   2.919520   3.058627   3.053013   3.893334
                    6          7
     6  O    0.000000
     7  Br   2.792546   0.000000
 Stoichiometry    C2H3BrO
 Framework group  C1[X(C2H3BrO)]
 Deg. of freedom    15
 Full point group                 C1      NOp   1
 Largest Abelian subgroup         C1      NOp   1
 Largest concise Abelian subgroup C1      NOp   1
                         Standard orientation:                         
 ---------------------------------------------------------------------
 Center     Atomic      Atomic             Coordinates (Angstroms)
 Number     Number       Type             X           Y           Z
 ---------------------------------------------------------------------
      1          6           0       -1.021165    0.237775   -0.003363
      2          6           0       -1.762599   -1.059513    0.000572
      3          1           0       -1.483080   -1.640049   -0.876990
      4          1           0       -1.477021   -1.638696    0.877089
      5          1           0       -2.831673   -0.861738    0.004110
      6          8           0       -1.454216    1.331962    0.001045
      7         35           0        0.975088   -0.045280    0.000119
 ---------------------------------------------------------------------
 Rotational constants (GHZ):     10.1570501      2.9463841      2.3163353
 Basis read from rwf:  (5D, 7F)
 Pseudo-potential data read from rwf file.
 There are   234 symmetry adapted basis functions of A   symmetry.
 Integral buffers will be    262144 words long.
 Raffenetti 2 integral format.
 Two-electron integral symmetry is turned on.
   234 basis functions,   375 primitive gaussians,   269 cartesian basis functions
    29 alpha electrons       29 beta electrons
       nuclear repulsion energy       226.4910979133 Hartrees.
 NAtoms=    7 NActive=    7 NUniq=    7 SFac= 7.50D-01 NAtFMM=   80 NAOKFM=F Big=F
 One-electron integrals computed using PRISM.
   1 Symmetry operations used in ECPInt.
 ECPInt:  NShTT=    3240 NPrTT=   10753 LenC2=    3229 LenP2D=    9199.
 LDataN:  DoStor=T MaxTD1= 6 Len=  172
 NBasis=   234 RedAO= T  NBF=   234
 NBsUse=   234 1.00D-06 NBFU=   234
 Initial guess read from the read-write file.
 B after Tr=     0.000000    0.000000    0.000000
         Rot=    1.000000    0.000000    0.000000    0.000000 Ang=   0.00 deg.
 Initial guess orbital symmetries:
       Occupied  (A) (A) (A) (A) (A) (A) (A) (A) (A) (A) (A) (A)
                 (A) (A) (A) (A) (A) (A) (A) (A) (A) (A) (A) (A)
                 (A) (A) (A) (A) (A)
       Virtual   (A) (A) (A) (A) (A) (A) (A) (A) (A) (A) (A) (A)
                 (A) (A) (A) (A) (A) (A) (A) (A) (A) (A) (A) (A)
                 (A) (A) (A) (A) (A) (A) (A) (A) (A) (A) (A) (A)
                 (A) (A) (A) (A) (A) (A) (A) (A) (A) (A) (A) (A)
                 (A) (A) (A) (A) (A) (A) (A) (A) (A) (A) (A) (A)
                 (A) (A) (A) (A) (A) (A) (A) (A) (A) (A) (A) (A)
                 (A) (A) (A) (A) (A) (A) (A) (A) (A) (A) (A) (A)
                 (A) (A) (A) (A) (A) (A) (A) (A) (A) (A) (A) (A)
                 (A) (A) (A) (A) (A) (A) (A) (A) (A) (A) (A) (A)
                 (A) (A) (A) (A) (A) (A) (A) (A) (A) (A) (A) (A)
                 (A) (A) (A) (A) (A) (A) (A) (A) (A) (A) (A) (A)
                 (A) (A) (A) (A) (A) (A) (A) (A) (A) (A) (A) (A)
                 (A) (A) (A) (A) (A) (A) (A) (A) (A) (A) (A) (A)
                 (A) (A) (A) (A) (A) (A) (A) (A) (A) (A) (A) (A)
                 (A) (A) (A) (A) (A) (A) (A) (A) (A) (A) (A) (A)
                 (A) (A) (A) (A) (A) (A) (A) (A) (A) (A) (A) (A)
                 (A) (A) (A) (A) (A) (A) (A) (A) (A) (A) (A) (A)
                 (A)
 Requested convergence on RMS density matrix=1.00D-08 within 128 cycles.
 Requested convergence on MAX density matrix=1.00D-06.
 Requested convergence on             energy=1.00D-06.
 No special actions if energy rises.
 SCF Done:  E(RB3LYP) =  -2727.00643880     A.U. after   13 cycles
             Convg  =    0.3487D-08             -V/T =  2.0026
   1 Symmetry operations used in ECPInt.
 ECPInt:  NShTT=    3240 NPrTT=   10753 LenC2=    3229 LenP2D=    9199.
 LDataN:  DoStor=T MaxTD1= 7 Len=  274
 Calling FoFJK, ICntrl=      2127 FMM=F ISym2X=0 I1Cent= 0 IOpClX= 0 NMat=1 NMatS=1 NMatT=0.
 ***** Axes restored to original set *****
 -------------------------------------------------------------------
 Center     Atomic                   Forces (Hartrees/Bohr)
 Number     Number              X              Y              Z
 -------------------------------------------------------------------
      1        6           0.000574055    0.001440260   -0.001034168
      2        6          -0.000001006   -0.000804553    0.000362106
      3        1          -0.000071151   -0.000090335    0.000242739
      4        1          -0.000145849    0.000055346   -0.000231949
      5        1           0.000400058    0.000099240    0.000026069
      6        8          -0.000277204   -0.000437599    0.000418496
      7       35          -0.000478903   -0.000262358    0.000216707
 -------------------------------------------------------------------
 Cartesian Forces:  Max     0.001440260 RMS     0.000505272

 GradGradGradGradGradGradGradGradGradGradGradGradGradGradGradGradGradGrad
 Berny optimization.
 Using GEDIIS/GDIIS optimizer.
 Internal  Forces:  Max     0.000739423 RMS     0.000326150
 Search for a local minimum.
 Step number   3 out of a maximum of   31
 All quantities printed in internal units (Hartrees-Bohrs-Radians)
 Mixed Optimization -- En-DIIS/RFO-DIIS
 Update second derivatives using D2CorX and points    1    2    3
 DE= -1.16D-04 DEPred=-1.13D-04 R= 1.03D+00
 SS=  1.41D+00  RLast= 4.10D-02 DXNew= 5.0454D-01 1.2304D-01
 Trust test= 1.03D+00 RLast= 4.10D-02 DXMaxT set to 3.00D-01
 Use linear search instead of GDIIS.
     Eigenvalues ---    0.01011   0.01071   0.07610   0.07677   0.11123
     Eigenvalues ---    0.14877   0.16011   0.16183   0.24827   0.25651
     Eigenvalues ---    0.31591   0.33161   0.33390   0.37229   1.07822
     Eigenvalues --- 1000.000001000.000001000.000001000.000001000.00000
     Eigenvalues --- 1000.00000
 RFO step:  Lambda=-4.77705484D-05 EMin= 1.01136366D-02
 Quartic linear search produced a step of  0.06102.
 Iteration  1 RMS(Cart)=  0.01108072 RMS(Int)=  0.00019206
 Iteration  2 RMS(Cart)=  0.00017145 RMS(Int)=  0.00013026
 Iteration  3 RMS(Cart)=  0.00000001 RMS(Int)=  0.00013026
 Variable       Old X    -DE/DX   Delta X   Delta X   Delta X     New X
                                 (Linear)    (Quad)   (Total)
    R1        2.82367   0.00074   0.00077   0.00409   0.00486   2.82853
    R2        2.22378  -0.00051  -0.00029  -0.00137  -0.00166   2.22212
    R3        3.81011   0.00050   0.00066   0.00553   0.00619   3.81630
    R4        2.05734   0.00027  -0.00015  -0.00005  -0.00020   2.05714
    R5        2.05736   0.00020  -0.00015  -0.00026  -0.00041   2.05696
    R6        2.05455   0.00041  -0.00032   0.00009  -0.00023   2.05432
    A1        2.24549   0.00034   0.00030   0.00208   0.00203   2.24753
    A2        1.94915  -0.00051  -0.00003  -0.00171  -0.00208   1.94707
    A3        2.08850   0.00017  -0.00027   0.00004  -0.00057   2.08792
    A4        1.91074  -0.00002  -0.00074  -0.00232  -0.00307   1.90768
    A5        1.91117  -0.00029  -0.00071  -0.00413  -0.00485   1.90632
    A6        1.90709   0.00003  -0.00093  -0.00221  -0.00315   1.90395
    A7        1.87333   0.00014   0.00046   0.00215   0.00260   1.87592
    A8        1.93059   0.00002   0.00097   0.00307   0.00403   1.93463
    A9        1.93059   0.00011   0.00097   0.00338   0.00434   1.93493
    D1        2.12115  -0.00023   0.00049  -0.02360  -0.02311   2.09805
    D2       -2.11266  -0.00024   0.00020  -0.02475  -0.02455  -2.13721
    D3        0.00438  -0.00026   0.00035  -0.02455  -0.02419  -0.01982
    D4       -1.03025   0.00027  -0.00022   0.02677   0.02655  -1.00370
    D5        1.01912   0.00026  -0.00051   0.02562   0.02510   1.04422
    D6        3.13616   0.00024  -0.00036   0.02582   0.02546  -3.12157
         Item               Value     Threshold  Converged?
 Maximum Force            0.000739     0.000450     NO 
 RMS     Force            0.000326     0.000300     NO 
 Maximum Displacement     0.031237     0.001800     NO 
 RMS     Displacement     0.011104     0.001200     NO 
 Predicted change in Energy=-2.430630D-05
 GradGradGradGradGradGradGradGradGradGradGradGradGradGradGradGradGradGrad

                          Input orientation:                          
 ---------------------------------------------------------------------
 Center     Atomic      Atomic             Coordinates (Angstroms)
 Number     Number       Type             X           Y           Z
 ---------------------------------------------------------------------
      1          6           0        1.022275    0.223425   -0.013271
      2          6           0        1.746728   -1.086319   -0.002034
      3          1           0        1.446678   -1.655968    0.875750
      4          1           0        1.459280   -1.662429   -0.879697
      5          1           0        2.817740   -0.900128    0.005139
      6          8           0        1.467754    1.311544    0.003383
      7         35           0       -0.980349   -0.036007    0.010536
 ---------------------------------------------------------------------
                    Distance matrix (angstroms):
                    1          2          3          4          5
     1  C    0.000000
     2  C    1.496793   0.000000
     3  H    2.121932   1.088593   0.000000
     4  H    2.120876   1.088496   1.755504   0.000000
     5  H    2.118114   1.087099   1.791387   1.791494   0.000000
     6  O    1.175896   2.414043   3.093153   3.102324   2.591130
     7  Br   2.019499   2.922373   3.043572   3.064238   3.895153
                    6          7
     6  O    0.000000
     7  Br   2.794487   0.000000
 Stoichiometry    C2H3BrO
 Framework group  C1[X(C2H3BrO)]
 Deg. of freedom    15
 Full point group                 C1      NOp   1
 Largest Abelian subgroup         C1      NOp   1
 Largest concise Abelian subgroup C1      NOp   1
                         Standard orientation:                         
 ---------------------------------------------------------------------
 Center     Atomic      Atomic             Coordinates (Angstroms)
 Number     Number       Type             X           Y           Z
 ---------------------------------------------------------------------
      1          6           0        1.023509    0.238812   -0.013661
      2          6           0        1.763912   -1.061933    0.002288
      3          1           0        1.466534   -1.634514    0.879072
      4          1           0        1.487900   -1.642234   -0.876285
      5          1           0        2.832511   -0.862605    0.014587
      6          8           0        1.455517    1.332330    0.004249
      7         35           0       -0.975875   -0.045159    0.000482
 ---------------------------------------------------------------------
 Rotational constants (GHZ):     10.1398623      2.9414953      2.3125238
 Basis read from rwf:  (5D, 7F)
 Pseudo-potential data read from rwf file.
 There are   234 symmetry adapted basis functions of A   symmetry.
 Integral buffers will be    262144 words long.
 Raffenetti 2 integral format.
 Two-electron integral symmetry is turned on.
   234 basis functions,   375 primitive gaussians,   269 cartesian basis functions
    29 alpha electrons       29 beta electrons
       nuclear repulsion energy       226.3165354652 Hartrees.
 NAtoms=    7 NActive=    7 NUniq=    7 SFac= 7.50D-01 NAtFMM=   80 NAOKFM=F Big=F
 One-electron integrals computed using PRISM.
   1 Symmetry operations used in ECPInt.
 ECPInt:  NShTT=    3240 NPrTT=   10753 LenC2=    3229 LenP2D=    9197.
 LDataN:  DoStor=T MaxTD1= 6 Len=  172
 NBasis=   234 RedAO= T  NBF=   234
 NBsUse=   234 1.00D-06 NBFU=   234
 Initial guess read from the read-write file.
 B after Tr=     0.000000    0.000000    0.000000
         Rot=    1.000000    0.000000    0.000000    0.000000 Ang=   0.00 deg.
 Initial guess orbital symmetries:
       Occupied  (A) (A) (A) (A) (A) (A) (A) (A) (A) (A) (A) (A)
                 (A) (A) (A) (A) (A) (A) (A) (A) (A) (A) (A) (A)
                 (A) (A) (A) (A) (A)
       Virtual   (A) (A) (A) (A) (A) (A) (A) (A) (A) (A) (A) (A)
                 (A) (A) (A) (A) (A) (A) (A) (A) (A) (A) (A) (A)
                 (A) (A) (A) (A) (A) (A) (A) (A) (A) (A) (A) (A)
                 (A) (A) (A) (A) (A) (A) (A) (A) (A) (A) (A) (A)
                 (A) (A) (A) (A) (A) (A) (A) (A) (A) (A) (A) (A)
                 (A) (A) (A) (A) (A) (A) (A) (A) (A) (A) (A) (A)
                 (A) (A) (A) (A) (A) (A) (A) (A) (A) (A) (A) (A)
                 (A) (A) (A) (A) (A) (A) (A) (A) (A) (A) (A) (A)
                 (A) (A) (A) (A) (A) (A) (A) (A) (A) (A) (A) (A)
                 (A) (A) (A) (A) (A) (A) (A) (A) (A) (A) (A) (A)
                 (A) (A) (A) (A) (A) (A) (A) (A) (A) (A) (A) (A)
                 (A) (A) (A) (A) (A) (A) (A) (A) (A) (A) (A) (A)
                 (A) (A) (A) (A) (A) (A) (A) (A) (A) (A) (A) (A)
                 (A) (A) (A) (A) (A) (A) (A) (A) (A) (A) (A) (A)
                 (A) (A) (A) (A) (A) (A) (A) (A) (A) (A) (A) (A)
                 (A) (A) (A) (A) (A) (A) (A) (A) (A) (A) (A) (A)
                 (A) (A) (A) (A) (A) (A) (A) (A) (A) (A) (A) (A)
                 (A)
 Harris functional with IExCor=  402 diagonalized for initial guess.
 ExpMin= 2.53D-02 ExpMax= 1.15D+05 ExpMxC= 1.73D+04 IAcc=3 IRadAn=         0 AccDes= 0.00D+00
 HarFok:  IExCor=  402 AccDes= 0.00D+00 IRadAn=         0 IDoV= 1
 ScaDFX=  1.000000  1.000000  1.000000  1.000000
 FoFCou: FMM=F IPFlag=           0 FMFlag=      100000 FMFlg1=           0
         NFxFlg=           0 DoJE=T BraDBF=F KetDBF=T FulRan=T
         Omega=  0.000000  0.000000  1.000000  0.000000  0.000000 ICntrl=     500 IOpCl=  0
         NMat0=    1 NMatS0=    1 NMatT0=    0 NMatD0=    1 NMtDS0=    0 NMtDT0=    0
         I1Cent=           4 NGrid=           0.
 Petite list used in FoFCou.
 Requested convergence on RMS density matrix=1.00D-08 within 128 cycles.
 Requested convergence on MAX density matrix=1.00D-06.
 Requested convergence on             energy=1.00D-06.
 No special actions if energy rises.
 SCF Done:  E(RB3LYP) =  -2727.00638326     A.U. after   13 cycles
             Convg  =    0.5199D-08             -V/T =  2.0026
   1 Symmetry operations used in ECPInt.
 ECPInt:  NShTT=    3240 NPrTT=   10753 LenC2=    3229 LenP2D=    9197.
 LDataN:  DoStor=T MaxTD1= 7 Len=  274
 Calling FoFJK, ICntrl=      2127 FMM=F ISym2X=0 I1Cent= 0 IOpClX= 0 NMat=1 NMatS=1 NMatT=0.
 ***** Axes restored to original set *****
 -------------------------------------------------------------------
 Center     Atomic                   Forces (Hartrees/Bohr)
 Number     Number              X              Y              Z
 -------------------------------------------------------------------
      1        6           0.000083293   -0.000410598    0.004168205
      2        6          -0.001084197    0.001056617   -0.001462284
      3        1           0.000029918    0.000034171    0.000170134
      4        1           0.000335124   -0.000562743   -0.000219884
      5        1           0.000481537   -0.000299580   -0.000104228
      6        8           0.000190007    0.000367911   -0.001677832
      7       35          -0.000035681   -0.000185778   -0.000874110
 -------------------------------------------------------------------
 Cartesian Forces:  Max     0.004168205 RMS     0.001125609

 GradGradGradGradGradGradGradGradGradGradGradGradGradGradGradGradGradGrad
 Berny optimization.
 Using GEDIIS/GDIIS optimizer.
 Internal  Forces:  Max     0.001110475 RMS     0.000621594
 Search for a local minimum.
 Step number   4 out of a maximum of   31
 All quantities printed in internal units (Hartrees-Bohrs-Radians)
 Mixed Optimization -- En-DIIS/RFO-DIIS
 Swaping is turned off.
 Update second derivatives using D2CorX and points    1    2    3    4
 DE=  5.55D-05 DEPred=-2.43D-05 R=-2.28D+00
 Trust test=-2.28D+00 RLast= 6.22D-02 DXMaxT set to 1.50D-01
     Eigenvalues ---    0.01011   0.03792   0.06079   0.07696   0.08158
     Eigenvalues ---    0.14707   0.16178   0.16561   0.24641   0.25267
     Eigenvalues ---    0.30224   0.33187   0.33407   0.35037   1.04376
     Eigenvalues --- 1000.000001000.000001000.000001000.000001000.00000
     Eigenvalues --- 1000.00000
 En-DIIS/RFO-DIIS IScMMF=        0 using points:     4    3
 RFO step:  Lambda=-3.08847146D-05.
 DIIS coeffs:      0.23398      0.76602
 Iteration  1 RMS(Cart)=  0.00892556 RMS(Int)=  0.00008875
 Iteration  2 RMS(Cart)=  0.00010803 RMS(Int)=  0.00001275
 Iteration  3 RMS(Cart)=  0.00000000 RMS(Int)=  0.00001275
 Variable       Old X    -DE/DX   Delta X   Delta X   Delta X     New X
                                  (DIIS)     (GDIIS)  (Total)
    R1        2.82853  -0.00032  -0.00372   0.00279  -0.00094   2.82759
    R2        2.22212   0.00039   0.00127  -0.00090   0.00037   2.22250
    R3        3.81630   0.00004  -0.00474   0.00450  -0.00024   3.81606
    R4        2.05714   0.00011   0.00016   0.00015   0.00031   2.05745
    R5        2.05696   0.00039   0.00031   0.00017   0.00048   2.05744
    R6        2.05432   0.00042   0.00017   0.00066   0.00084   2.05516
    A1        2.24753   0.00019  -0.00156   0.00168   0.00015   2.24768
    A2        1.94707  -0.00035   0.00159  -0.00197  -0.00035   1.94673
    A3        2.08792   0.00023   0.00044   0.00038   0.00086   2.08878
    A4        1.90768  -0.00030   0.00235  -0.00195   0.00041   1.90808
    A5        1.90632   0.00078   0.00372  -0.00183   0.00189   1.90821
    A6        1.90395   0.00043   0.00241  -0.00056   0.00185   1.90580
    A7        1.87592  -0.00017  -0.00199   0.00137  -0.00062   1.87531
    A8        1.93463  -0.00019  -0.00309   0.00146  -0.00163   1.93300
    A9        1.93493  -0.00055  -0.00332   0.00144  -0.00188   1.93305
    D1        2.09805   0.00090   0.01770   0.00157   0.01927   2.11732
    D2       -2.13721   0.00097   0.01881   0.00104   0.01985  -2.11736
    D3       -0.01982   0.00104   0.01853   0.00133   0.01986   0.00004
    D4       -1.00370  -0.00111  -0.02034  -0.00103  -0.02136  -1.02506
    D5        1.04422  -0.00103  -0.01923  -0.00155  -0.02078   1.02344
    D6       -3.12157  -0.00096  -0.01950  -0.00127  -0.02077   3.14085
         Item               Value     Threshold  Converged?
 Maximum Force            0.001110     0.000450     NO 
 RMS     Force            0.000622     0.000300     NO 
 Maximum Displacement     0.025545     0.001800     NO 
 RMS     Displacement     0.008926     0.001200     NO 
 Predicted change in Energy=-6.370161D-05
 GradGradGradGradGradGradGradGradGradGradGradGradGradGradGradGradGradGrad

                          Input orientation:                          
 ---------------------------------------------------------------------
 Center     Atomic      Atomic             Coordinates (Angstroms)
 Number     Number       Type             X           Y           Z
 ---------------------------------------------------------------------
      1          6           0        1.022030    0.223856    0.000246
      2          6           0        1.746172   -1.085542   -0.000072
      3          1           0        1.453850   -1.659146    0.877945
      4          1           0        1.452749   -1.659479   -0.877497
      5          1           0        2.818005   -0.901369   -0.000751
      6          8           0        1.467800    1.312198   -0.000176
      7         35           0       -0.980501   -0.036400    0.000111
 ---------------------------------------------------------------------
                    Distance matrix (angstroms):
                    1          2          3          4          5
     1  C    0.000000
     2  C    1.496297   0.000000
     3  H    2.121914   1.088755   0.000000
     4  H    2.122004   1.088749   1.755443   0.000000
     5  H    2.119354   1.087541   1.790881   1.790904   0.000000
     6  O    1.176095   2.413845   3.098415   3.098512   2.592862
     7  Br   2.019373   2.921549   3.054499   3.053733   3.895745
                    6          7
     6  O    0.000000
     7  Br   2.795155   0.000000
 Stoichiometry    C2H3BrO
 Framework group  C1[X(C2H3BrO)]
 Deg. of freedom    15
 Full point group                 C1      NOp   1
 Largest Abelian subgroup         C1      NOp   1
 Largest concise Abelian subgroup C1      NOp   1
                         Standard orientation:                         
 ---------------------------------------------------------------------
 Center     Atomic      Atomic             Coordinates (Angstroms)
 Number     Number       Type             X           Y           Z
 ---------------------------------------------------------------------
      1          6           0        1.023454    0.238777    0.000191
      2          6           0        1.762941   -1.062017   -0.000127
      3          1           0        1.477383   -1.639018    0.877890
      4          1           0        1.476286   -1.639364   -0.877553
      5          1           0        2.832535   -0.865255   -0.000807
      6          8           0        1.456397    1.332284   -0.000232
      7         35           0       -0.975879   -0.045005    0.000055
 ---------------------------------------------------------------------
 Rotational constants (GHZ):     10.1388842      2.9415739      2.3124651
 Basis read from rwf:  (5D, 7F)
 Pseudo-potential data read from rwf file.
 There are   234 symmetry adapted basis functions of A   symmetry.
 Integral buffers will be    262144 words long.
 Raffenetti 2 integral format.
 Two-electron integral symmetry is turned on.
   234 basis functions,   375 primitive gaussians,   269 cartesian basis functions
    29 alpha electrons       29 beta electrons
       nuclear repulsion energy       226.3122362573 Hartrees.
 NAtoms=    7 NActive=    7 NUniq=    7 SFac= 7.50D-01 NAtFMM=   80 NAOKFM=F Big=F
 One-electron integrals computed using PRISM.
   1 Symmetry operations used in ECPInt.
 ECPInt:  NShTT=    3240 NPrTT=   10753 LenC2=    3229 LenP2D=    9197.
 LDataN:  DoStor=T MaxTD1= 6 Len=  172
 NBasis=   234 RedAO= T  NBF=   234
 NBsUse=   234 1.00D-06 NBFU=   234
 Initial guess read from the read-write file.
 B after Tr=     0.000000    0.000000    0.000000
         Rot=    1.000000    0.000000    0.000000    0.000000 Ang=   0.00 deg.
 Initial guess orbital symmetries:
       Occupied  (A) (A) (A) (A) (A) (A) (A) (A) (A) (A) (A) (A)
                 (A) (A) (A) (A) (A) (A) (A) (A) (A) (A) (A) (A)
                 (A) (A) (A) (A) (A)
       Virtual   (A) (A) (A) (A) (A) (A) (A) (A) (A) (A) (A) (A)
                 (A) (A) (A) (A) (A) (A) (A) (A) (A) (A) (A) (A)
                 (A) (A) (A) (A) (A) (A) (A) (A) (A) (A) (A) (A)
                 (A) (A) (A) (A) (A) (A) (A) (A) (A) (A) (A) (A)
                 (A) (A) (A) (A) (A) (A) (A) (A) (A) (A) (A) (A)
                 (A) (A) (A) (A) (A) (A) (A) (A) (A) (A) (A) (A)
                 (A) (A) (A) (A) (A) (A) (A) (A) (A) (A) (A) (A)
                 (A) (A) (A) (A) (A) (A) (A) (A) (A) (A) (A) (A)
                 (A) (A) (A) (A) (A) (A) (A) (A) (A) (A) (A) (A)
                 (A) (A) (A) (A) (A) (A) (A) (A) (A) (A) (A) (A)
                 (A) (A) (A) (A) (A) (A) (A) (A) (A) (A) (A) (A)
                 (A) (A) (A) (A) (A) (A) (A) (A) (A) (A) (A) (A)
                 (A) (A) (A) (A) (A) (A) (A) (A) (A) (A) (A) (A)
                 (A) (A) (A) (A) (A) (A) (A) (A) (A) (A) (A) (A)
                 (A) (A) (A) (A) (A) (A) (A) (A) (A) (A) (A) (A)
                 (A) (A) (A) (A) (A) (A) (A) (A) (A) (A) (A) (A)
                 (A) (A) (A) (A) (A) (A) (A) (A) (A) (A) (A) (A)
                 (A)
 Harris functional with IExCor=  402 diagonalized for initial guess.
 ExpMin= 2.53D-02 ExpMax= 1.15D+05 ExpMxC= 1.73D+04 IAcc=3 IRadAn=         0 AccDes= 0.00D+00
 HarFok:  IExCor=  402 AccDes= 0.00D+00 IRadAn=         0 IDoV= 1
 ScaDFX=  1.000000  1.000000  1.000000  1.000000
 FoFCou: FMM=F IPFlag=           0 FMFlag=      100000 FMFlg1=           0
         NFxFlg=           0 DoJE=T BraDBF=F KetDBF=T FulRan=T
         Omega=  0.000000  0.000000  1.000000  0.000000  0.000000 ICntrl=     500 IOpCl=  0
         NMat0=    1 NMatS0=    1 NMatT0=    0 NMatD0=    1 NMtDS0=    0 NMtDT0=    0
         I1Cent=           4 NGrid=           0.
 Petite list used in FoFCou.
 Requested convergence on RMS density matrix=1.00D-08 within 128 cycles.
 Requested convergence on MAX density matrix=1.00D-06.
 Requested convergence on             energy=1.00D-06.
 No special actions if energy rises.
 SCF Done:  E(RB3LYP) =  -2727.00644655     A.U. after    9 cycles
             Convg  =    0.5345D-08             -V/T =  2.0026
   1 Symmetry operations used in ECPInt.
 ECPInt:  NShTT=    3240 NPrTT=   10753 LenC2=    3229 LenP2D=    9197.
 LDataN:  DoStor=T MaxTD1= 7 Len=  274
 Calling FoFJK, ICntrl=      2127 FMM=F ISym2X=0 I1Cent= 0 IOpClX= 0 NMat=1 NMatS=1 NMatT=0.
 ***** Axes restored to original set *****
 -------------------------------------------------------------------
 Center     Atomic                   Forces (Hartrees/Bohr)
 Number     Number              X              Y              Z
 -------------------------------------------------------------------
      1        6           0.000221289   -0.000056094   -0.000087847
      2        6          -0.000571971    0.000523496    0.000032560
      3        1           0.000093698   -0.000136248    0.000110677
      4        1           0.000086894   -0.000121870   -0.000110646
      5        1           0.000189296   -0.000130235    0.000002264
      6        8          -0.000021581    0.000043173    0.000034393
      7       35           0.000002376   -0.000122222    0.000018599
 -------------------------------------------------------------------
 Cartesian Forces:  Max     0.000571971 RMS     0.000196145

 GradGradGradGradGradGradGradGradGradGradGradGradGradGradGradGradGradGrad
 Berny optimization.
 Using GEDIIS/GDIIS optimizer.
 Internal  Forces:  Max     0.000278508 RMS     0.000129889
 Search for a local minimum.
 Step number   5 out of a maximum of   31
 All quantities printed in internal units (Hartrees-Bohrs-Radians)
 Mixed Optimization -- En-DIIS/RFO-DIIS
 Swaping is turned off.
 Update second derivatives using D2CorX and points    1    2    3    4    5
 DE= -6.33D-05 DEPred=-6.37D-05 R= 9.94D-01
 SS=  1.41D+00  RLast= 5.00D-02 DXNew= 2.5227D-01 1.4988D-01
 Trust test= 9.94D-01 RLast= 5.00D-02 DXMaxT set to 1.50D-01
     Eigenvalues ---    0.01011   0.04840   0.07680   0.07735   0.10324
     Eigenvalues ---    0.14895   0.16116   0.16568   0.22428   0.24934
     Eigenvalues ---    0.32256   0.32653   0.33189   0.33701   1.06087
     Eigenvalues --- 1000.000001000.000001000.000001000.000001000.00000
     Eigenvalues --- 1000.00000
 En-DIIS/RFO-DIIS IScMMF=        0 using points:     5    4    3
 RFO step:  Lambda=-7.84826825D-07.
 DIIS coeffs:      0.84751      0.03350      0.11899
 Iteration  1 RMS(Cart)=  0.00074342 RMS(Int)=  0.00000344
 Iteration  2 RMS(Cart)=  0.00000065 RMS(Int)=  0.00000339
 Variable       Old X    -DE/DX   Delta X   Delta X   Delta X     New X
                                  (DIIS)     (GDIIS)  (Total)
    R1        2.82759  -0.00021  -0.00044  -0.00026  -0.00069   2.82690
    R2        2.22250   0.00004   0.00014   0.00001   0.00015   2.22265
    R3        3.81606   0.00001  -0.00070   0.00054  -0.00016   3.81590
    R4        2.05745   0.00014  -0.00002   0.00054   0.00051   2.05796
    R5        2.05744   0.00013  -0.00002   0.00054   0.00051   2.05795
    R6        2.05516   0.00016  -0.00010   0.00069   0.00059   2.05575
    A1        2.24768   0.00016  -0.00027   0.00077   0.00052   2.24820
    A2        1.94673  -0.00028   0.00030  -0.00132  -0.00101   1.94572
    A3        2.08878   0.00012  -0.00006   0.00055   0.00050   2.08927
    A4        1.90808   0.00013   0.00030   0.00066   0.00096   1.90904
    A5        1.90821   0.00010   0.00029   0.00062   0.00091   1.90912
    A6        1.90580   0.00018   0.00009   0.00106   0.00115   1.90695
    A7        1.87531  -0.00007  -0.00022  -0.00014  -0.00035   1.87495
    A8        1.93300  -0.00017  -0.00023  -0.00109  -0.00132   1.93168
    A9        1.93305  -0.00017  -0.00023  -0.00109  -0.00132   1.93173
    D1        2.11732  -0.00004  -0.00019  -0.00046  -0.00065   2.11667
    D2       -2.11736   0.00000  -0.00011   0.00011   0.00001  -2.11736
    D3        0.00004  -0.00002  -0.00015  -0.00019  -0.00033  -0.00029
    D4       -1.02506   0.00000   0.00010  -0.00001   0.00009  -1.02497
    D5        1.02344   0.00005   0.00018   0.00056   0.00074   1.02418
    D6        3.14085   0.00002   0.00014   0.00026   0.00040   3.14125
         Item               Value     Threshold  Converged?
 Maximum Force            0.000279     0.000450     YES
 RMS     Force            0.000130     0.000300     YES
 Maximum Displacement     0.001838     0.001800     NO 
 RMS     Displacement     0.000744     0.001200     YES
 Predicted change in Energy=-9.044283D-07
 GradGradGradGradGradGradGradGradGradGradGradGradGradGradGradGradGradGrad

                          Input orientation:                          
 ---------------------------------------------------------------------
 Center     Atomic      Atomic             Coordinates (Angstroms)
 Number     Number       Type             X           Y           Z
 ---------------------------------------------------------------------
      1          6           0        1.022137    0.224397   -0.000003
      2          6           0        1.745623   -1.084944   -0.000103
      3          1           0        1.453750   -1.659159    0.878002
      4          1           0        1.452919   -1.659575   -0.877650
      5          1           0        2.818043   -0.902342   -0.000626
      6          8           0        1.467774    1.312880   -0.000133
      7         35           0       -0.980141   -0.037140    0.000319
 ---------------------------------------------------------------------
                    Distance matrix (angstroms):
                    1          2          3          4          5
     1  C    0.000000
     2  C    1.495930   0.000000
     3  H    2.122490   1.089027   0.000000
     4  H    2.122543   1.089020   1.755652   0.000000
     5  H    2.120099   1.087856   1.790546   1.790569   0.000000
     6  O    1.176175   2.413868   3.099085   3.099314   2.594308
     7  Br   2.019287   2.920219   3.053703   3.053343   3.895482
                    6          7
     6  O    0.000000
     7  Br   2.795503   0.000000
 Stoichiometry    C2H3BrO
 Framework group  C1[X(C2H3BrO)]
 Deg. of freedom    15
 Full point group                 C1      NOp   1
 Largest Abelian subgroup         C1      NOp   1
 Largest concise Abelian subgroup C1      NOp   1
                         Standard orientation:                         
 ---------------------------------------------------------------------
 Center     Atomic      Atomic             Coordinates (Angstroms)
[...]
     3   1     0.41   0.29   0.32     0.55  -0.07   0.01    -0.20   0.22   0.00
     4   1    -0.41  -0.29   0.32     0.55  -0.07  -0.01    -0.20   0.22   0.00
     5   1     0.00   0.00  -0.54     0.29   0.36   0.00     0.07  -0.22   0.00
     6   8     0.00   0.00   0.04    -0.01  -0.12   0.00     0.68   0.15   0.00
     7  35     0.00   0.00  -0.01    -0.08   0.04   0.00    -0.19  -0.09   0.00
                     4                      5                      6
                     A                      A                      A
 Frequencies --   496.2378               567.5064               945.3573
 Red. masses --     3.0630                 4.1349                 3.0740
 Frc consts  --     0.4444                 0.7846                 1.6186
 IR Inten    --     0.9580               118.8127                76.1597
  Atom  AN      X      Y      Z        X      Y      Z        X      Y      Z
     1   6     0.00   0.00   0.39     0.32   0.01   0.00     0.21  -0.17   0.00
     2   6     0.00   0.00  -0.02     0.10  -0.25   0.00    -0.02   0.28   0.00
     3   1     0.34  -0.43  -0.20    -0.21  -0.11  -0.01    -0.46   0.41  -0.06
     4   1    -0.34   0.43  -0.20    -0.21  -0.11   0.01    -0.46   0.41   0.06
     5   1     0.00   0.00  -0.39     0.20  -0.77   0.00     0.06  -0.22   0.00
     6   8     0.00   0.00  -0.15    -0.19   0.20   0.00    -0.08  -0.14   0.00
     7  35     0.00   0.00  -0.02    -0.02   0.01   0.00     0.00   0.00   0.00
                     7                      8                      9
                     A                      A                      A
 Frequencies --  1042.0163              1101.7855              1387.7921
 Red. masses --     1.5809                 1.8495                 1.2351
 Frc consts  --     1.0114                 1.3228                 1.4015
 IR Inten    --     1.6558               143.0399                21.6687
  Atom  AN      X      Y      Z        X      Y      Z        X      Y      Z
     1   6     0.00   0.00  -0.16     0.20  -0.06   0.00     0.02  -0.01   0.00
     2   6     0.00   0.00   0.16    -0.18  -0.02   0.00    -0.06   0.13   0.00
     3   1     0.26  -0.56  -0.15     0.34  -0.08   0.12     0.29  -0.47  -0.27
     4   1    -0.26   0.56  -0.15     0.34  -0.08  -0.12     0.29  -0.47   0.27
     5   1     0.00   0.00  -0.37    -0.31   0.75   0.00     0.05  -0.47   0.00
     6   8     0.00   0.00   0.03    -0.03   0.02   0.00     0.00   0.00   0.00
     7  35     0.00   0.00   0.00     0.00   0.00   0.00     0.00   0.00   0.00
                    10                     11                     12
                     A                      A                      A
 Frequencies --  1462.7481              1462.8517              1899.2282
 Red. masses --     1.0486                 1.0446                12.1128
 Frc consts  --     1.3219                 1.3170                25.7423
 IR Inten    --    10.3666                14.1045               397.4121
  Atom  AN      X      Y      Z        X      Y      Z        X      Y      Z
     1   6     0.01  -0.01   0.00     0.00   0.00   0.02     0.20   0.75   0.00
     2   6     0.06   0.00   0.00     0.00   0.00   0.05     0.01  -0.06   0.00
     3   1    -0.41  -0.32  -0.35    -0.46   0.10  -0.04     0.04  -0.17  -0.09
     4   1    -0.36  -0.33   0.34     0.49  -0.07  -0.07     0.04  -0.17   0.09
     5   1    -0.05   0.49  -0.03     0.00  -0.02  -0.72     0.00   0.14   0.00
     6   8     0.00   0.02   0.00     0.00   0.00   0.00    -0.19  -0.50   0.00
     7  35     0.00   0.00   0.00     0.00   0.00   0.00     0.01   0.00   0.00
                    13                     14                     15
                     A                      A                      A
 Frequencies --  3051.6279              3122.4417              3141.7911
 Red. masses --     1.0323                 1.1001                 1.1063
 Frc consts  --     5.6638                 6.3191                 6.4338
 IR Inten    --     1.2379                 0.0010                 6.6017
  Atom  AN      X      Y      Z        X      Y      Z        X      Y      Z
     1   6     0.00   0.00   0.00     0.00   0.00   0.00     0.00   0.00   0.00
     2   6    -0.02   0.04   0.00     0.00   0.00   0.09    -0.08  -0.05   0.00
     3   1    -0.15  -0.30   0.47     0.19   0.38  -0.56     0.09   0.21  -0.34
     4   1    -0.15  -0.30  -0.47    -0.19  -0.38  -0.56     0.10   0.21   0.34
     5   1     0.57   0.11   0.00     0.00   0.00   0.01     0.80   0.15   0.00
     6   8     0.00   0.00   0.00     0.00   0.00   0.00     0.00   0.00   0.00
     7  35     0.00   0.00   0.00     0.00   0.00   0.00     0.00   0.00   0.00

 -------------------
 - Thermochemistry -
 -------------------
 Temperature   298.150 Kelvin.  Pressure   1.00000 Atm.
 Atom     1 has atomic number  6 and mass  12.00000
 Atom     2 has atomic number  6 and mass  12.00000
 Atom     3 has atomic number  1 and mass   1.00783
 Atom     4 has atomic number  1 and mass   1.00783
 Atom     5 has atomic number  1 and mass   1.00783
 Atom     6 has atomic number  8 and mass  15.99491
 Atom     7 has atomic number 35 and mass  78.91834
 Molecular mass:   121.93673 amu.
 Principal axes and moments of inertia in atomic units:
                           1         2         3
     Eigenvalues --   178.05409 613.31174 780.27255
           X            0.99780  -0.06628   0.00016
           Y            0.06628   0.99780   0.00003
           Z           -0.00017  -0.00002   1.00000
 This molecule is an asymmetric top.
 Rotational symmetry number  1.
 Rotational temperatures (Kelvin)      0.48645     0.14122     0.11100
 Rotational constants (GHZ):          10.13592     2.94262     2.31296
 Zero-point vibrational energy     122268.1 (Joules/Mol)
                                   29.22277 (Kcal/Mol)
 Warning -- explicit consideration of   5 degrees of freedom as
           vibrations may cause significant error
 Vibrational temperatures:    191.06   423.53   479.21   713.97   816.51
          (Kelvin)           1360.16  1499.23  1585.22  1996.72  2104.57
                             2104.71  2732.56  4390.61  4492.49  4520.33
 
 Zero-point correction=                           0.046569 (Hartree/Particle)
 Thermal correction to Energy=                    0.051411
 Thermal correction to Enthalpy=                  0.052355
 Thermal correction to Gibbs Free Energy=         0.017510
 Sum of electronic and zero-point Energies=          -2726.959878
 Sum of electronic and thermal Energies=             -2726.955037
 Sum of electronic and thermal Enthalpies=           -2726.954092
 Sum of electronic and thermal Free Energies=        -2726.988937
 
                     E (Thermal)             CV                S
                      KCal/Mol        Cal/Mol-Kelvin    Cal/Mol-Kelvin
 Total                   32.261             14.887             73.338
 Electronic               0.000              0.000              0.000
 Translational            0.889              2.981             40.309
 Rotational               0.889              2.981             25.947
 Vibrational             30.483              8.926              7.082
 Vibration     1          0.613              1.921              2.905
 Vibration     2          0.689              1.684              1.449
 Vibration     3          0.715              1.609              1.245
 Vibration     4          0.852              1.258              0.668
 Vibration     5          0.923              1.102              0.509
                       Q            Log10(Q)             Ln(Q)
 Total Bot       0.883107D-08         -8.053987        -18.544990
 Total V=0       0.232501D+14         13.366425         30.777330
 Vib (Bot)       0.159687D-20        -20.796730        -47.886241
 Vib (Bot)    1  0.153409D+01          0.185850          0.427936
 Vib (Bot)    2  0.648075D+00         -0.188375         -0.433749
 Vib (Bot)    3  0.559917D+00         -0.251876         -0.579966
 Vib (Bot)    4  0.332303D+00         -0.478466         -1.101709
 Vib (Bot)    5  0.271864D+00         -0.565649         -1.302455
 Vib (V=0)       0.420418D+01          0.623681          1.436080
 Vib (V=0)    1  0.211351D+01          0.325005          0.748351
 Vib (V=0)    2  0.131854D+01          0.120092          0.276522
 Vib (V=0)    3  0.125067D+01          0.097143          0.223681
 Vib (V=0)    4  0.110035D+01          0.041532          0.095632
 Vib (V=0)    5  0.106913D+01          0.029031          0.066846
 Electronic      0.100000D+01          0.000000          0.000000
 Translational   0.529245D+08          7.723657         17.784377
 Rotational      0.104493D+06          5.019086         11.556873
 ***** Axes restored to original set *****
 -------------------------------------------------------------------
 Center     Atomic                   Forces (Hartrees/Bohr)
 Number     Number              X              Y              Z
 -------------------------------------------------------------------
      1        6           0.000195455    0.000059101   -0.000009313
      2        6          -0.000133953    0.000086456    0.000004774
      3        1           0.000036992    0.000018293   -0.000022289
      4        1           0.000036524    0.000020490    0.000021214
      5        1          -0.000001162   -0.000026468    0.000000273
      6        8          -0.000088547   -0.000109329    0.000003021
      7       35          -0.000045310   -0.000048544    0.000002321
 -------------------------------------------------------------------
 Cartesian Forces:  Max     0.000195455 RMS     0.000067804

 GradGradGradGradGradGradGradGradGradGradGradGradGradGradGradGradGradGrad
 Berny optimization.
 Internal  Forces:  Max     0.000130254 RMS     0.000048458
 Search for a local minimum.
 Step number   1 out of a maximum of    2
 All quantities printed in internal units (Hartrees-Bohrs-Radians)
 Second derivative matrix not updated -- analytic derivatives used.
     Eigenvalues ---    0.00114   0.04723   0.05456   0.05466   0.08356
     Eigenvalues ---    0.12338   0.13842   0.14096   0.19697   0.22393
     Eigenvalues ---    0.29624   0.33970   0.34329   0.34789   0.95597
     Eigenvalues --- 1000.000001000.000001000.000001000.000001000.00000
     Eigenvalues --- 1000.00000
 Angle between quadratic step and forces=  47.65 degrees.
 Linear search not attempted -- first point.
 Iteration  1 RMS(Cart)=  0.00048865 RMS(Int)=  0.00000015
 Iteration  2 RMS(Cart)=  0.00000017 RMS(Int)=  0.00000001
 Variable       Old X    -DE/DX   Delta X   Delta X   Delta X     New X
                                 (Linear)    (Quad)   (Total)
    R1        2.82690  -0.00011   0.00000  -0.00051  -0.00051   2.82639
    R2        2.22265  -0.00013   0.00000  -0.00022  -0.00022   2.22243
    R3        3.81590   0.00004   0.00000   0.00088   0.00088   3.81678
    R4        2.05796  -0.00003   0.00000  -0.00011  -0.00011   2.05786
    R5        2.05795  -0.00003   0.00000  -0.00009  -0.00009   2.05786
    R6        2.05575  -0.00001   0.00000   0.00001   0.00001   2.05576
    A1        2.24820   0.00007   0.00000   0.00064   0.00064   2.24884
    A2        1.94572  -0.00008   0.00000  -0.00060  -0.00060   1.94511
    A3        2.08927   0.00001   0.00000  -0.00004  -0.00004   2.08923
    A4        1.90904   0.00001   0.00000   0.00009   0.00009   1.90913
    A5        1.90912   0.00000   0.00000   0.00001   0.00001   1.90913
    A6        1.90695   0.00005   0.00000   0.00044   0.00044   1.90739
    A7        1.87495   0.00000   0.00000   0.00004   0.00004   1.87499
    A8        1.93168  -0.00003   0.00000  -0.00027  -0.00027   1.93142
    A9        1.93173  -0.00003   0.00000  -0.00032  -0.00032   1.93141
    D1        2.11667  -0.00001   0.00000   0.00032   0.00032   2.11699
    D2       -2.11736   0.00000   0.00000   0.00042   0.00042  -2.11694
    D3       -0.00029   0.00000   0.00000   0.00031   0.00031   0.00002
    D4       -1.02497   0.00000   0.00000   0.00037   0.00037  -1.02461
    D5        1.02418   0.00001   0.00000   0.00047   0.00047   1.02466
    D6        3.14125   0.00000   0.00000   0.00036   0.00036  -3.14157
         Item               Value     Threshold  Converged?
 Maximum Force            0.000130     0.000450     YES
 RMS     Force            0.000048     0.000300     YES
 Maximum Displacement     0.001075     0.001800     YES
 RMS     Displacement     0.000489     0.001200     YES
 Predicted change in Energy=-1.323832D-07
 Optimization completed.
    -- Stationary point found.
                           ----------------------------
                           !   Optimized Parameters   !
                           ! (Angstroms and Degrees)  !
 --------------------------                            --------------------------
 ! Name  Definition              Value          Derivative Info.                !
 --------------------------------------------------------------------------------
 ! R1    R(1,2)                  1.4959         -DE/DX =   -0.0001              !
 ! R2    R(1,6)                  1.1762         -DE/DX =   -0.0001              !
 ! R3    R(1,7)                  2.0193         -DE/DX =    0.0                 !
 ! R4    R(2,3)                  1.089          -DE/DX =    0.0                 !
 ! R5    R(2,4)                  1.089          -DE/DX =    0.0                 !
 ! R6    R(2,5)                  1.0879         -DE/DX =    0.0                 !
 ! A1    A(2,1,6)              128.8121         -DE/DX =    0.0001              !
 ! A2    A(2,1,7)              111.4813         -DE/DX =   -0.0001              !
 ! A3    A(6,1,7)              119.7065         -DE/DX =    0.0                 !
 ! A4    A(1,2,3)              109.3799         -DE/DX =    0.0                 !
 ! A5    A(1,2,4)              109.3846         -DE/DX =    0.0                 !
 ! A6    A(1,2,5)              109.26           -DE/DX =    0.0                 !
 ! A7    A(3,2,4)              107.4269         -DE/DX =    0.0                 !
 ! A8    A(3,2,5)              110.6772         -DE/DX =    0.0                 !
 ! A9    A(4,2,5)              110.6799         -DE/DX =    0.0                 !
 ! D1    D(6,1,2,3)            121.2762         -DE/DX =    0.0                 !
 ! D2    D(6,1,2,4)           -121.3157         -DE/DX =    0.0                 !
 ! D3    D(6,1,2,5)             -0.0166         -DE/DX =    0.0                 !
 ! D4    D(7,1,2,3)            -58.7267         -DE/DX =    0.0                 !
 ! D5    D(7,1,2,4)             58.6814         -DE/DX =    0.0                 !
 ! D6    D(7,1,2,5)           -180.0195         -DE/DX =    0.0                 !
 --------------------------------------------------------------------------------
 GradGradGradGradGradGradGradGradGradGradGradGradGradGradGradGradGradGrad

 1|1|UNPC-LAWALM-PC|Freq|RB3LYP|Gen|C2H3Br1O1|LAWALM|25-Mar-2015|0||#N 
 Geom=AllCheck Guess=TCheck SCRF=Check GenChk RB3LYP/ChkBas Freq||gen c
 alculation BrAc-C H O=aug-cc-pvtz/Br=dgdzvp||0,1|C,1.0221372171,0.2243
 967221,-0.0000027993|C,1.745622576,-1.08494442,-0.0001032957|H,1.45375
 02146,-1.659158577,0.8780022597|H,1.4529186405,-1.6595751814,-0.877649
 9563|H,2.8180431229,-0.9023417659,-0.000626284|O,1.4677739488,1.312879
 7471,-0.0001325218|Br,-0.9801407199,-0.0371395248,0.0003185974||Versio
 n=IA32W-G09RevA.02|State=1-A|HF=-2727.0064474|RMSD=1.302e-009|RMSF=6.7
 80e-005|ZeroPoint=0.0465694|Thermal=0.0514108|Dipole=0.6396599,-0.9660
 978,-0.0000487|DipoleDeriv=2.2534327,0.1895367,-0.0003831,0.7957161,1.
 1951908,-0.0002021,-0.0004251,-0.0000852,0.1254263,-0.1457188,0.123113
 5,-0.0000256,0.0331734,-0.2387646,0.0000295,-0.0003241,0.0000719,0.051
 4283,0.0396392,0.0111959,0.055085,0.0051986,0.0829904,0.0112656,0.0291
 825,0.0394763,0.0314813,0.0396618,0.0111249,-0.0550919,0.00536,0.08297
 58,-0.0112841,-0.0288776,-0.0395419,0.0315805,-0.0983526,0.0175959,0.0
 00084,0.0292906,0.0405415,0.0000073,0.000103,-0.0000124,0.1038939,-0.9
 896008,-0.257624,0.0001506,-0.7953,-0.9966999,0.0001711,0.000191,0.000
 0786,-0.2058744,-1.0990614,-0.0949429,0.0001811,-0.0734387,-0.166234,0
 .0000128,0.0001503,0.0000127,-0.1379359|Polar=68.8556514,1.5372975,48.
 5711969,-0.0070318,-0.0010836,37.2940547|PG=C01 [X(C2H3Br1O1)]|NImag=0
 ||0.33455799,0.16246241,0.98046882,-0.00004002,-0.00006229,0.16806015,
 -0.10905618,0.06280259,-0.00000039,0.56155456,0.05388876,-0.14928303,-
 0.00001208,0.06095874,0.48522532,0.00001368,-0.00001873,-0.08127478,-0
 .00000930,0.00001506,0.53215718,0.00555874,0.00662503,-0.01641565,-0.0
 6691396,-0.03660899,0.06028318,0.06690013,-0.01114958,-0.02107500,0.02
 546248,-0.03655423,-0.11455633,0.11834777,0.03950390,0.12886963,0.0003
 3702,-0.00031001,0.00140207,0.05904595,0.11745375,-0.21818971,-0.06504
 687,-0.12658124,0.23653869,0.00557049,0.00663170,0.01641114,-0.0670355
 3,-0.03675607,-0.06041920,0.00150089,0.00453230,0.00674050,0.06703074,
 -0.01117946,-0.02108533,-0.02544221,-0.03669589,-0.11467084,-0.1183662
 4,0.00454327,0.01045742,0.01433839,0.03965781,0.12899320,-0.00034527,0
 .00031466,0.00139662,-0.05917546,-0.11747755,-0.21797704,-0.00676351,-
 0.01435714,-0.02115062,0.06519479,0.12659994,0.23630599,-0.01887995,-0
 .00268108,0.00000791,-0.30854590,-0.04538046,0.00012690,-0.00491171,-0
 .00076553,-0.00035708,-0.00493313,-0.00076687,0.00036504,0.33491804,0.
 02940549,0.00281838,-0.00001542,-0.04965784,-0.05772244,0.00002176,-0.
 01574258,-0.00249104,-0.00240935,-0.01575076,-0.00249152,0.00242594,0.
 04876557,0.05909594,0.00000029,0.00000262,-0.00114640,0.00012805,0.000
 01837,-0.04915718,0.02498035,0.00249181,0.00202214,-0.02496514,-0.0024
 8812,0.00204625,-0.00014149,-0.00002425,0.04531597,-0.17566249,-0.2768
 0693,0.00003303,0.01486848,0.00881834,0.00000270,-0.00008677,0.0037437
 9,-0.00041373,-0.00008714,0.00374940,0.00041340,0.00374398,-0.00155810
 ,-0.00000139,0.19987737,-0.23162482,-0.76797518,0.00007169,-0.01529293
 ,-0.05162021,0.00000536,0.00155321,-0.00220421,-0.00191147,0.00155737,
 -0.00220419,0.00191265,-0.00114911,0.00239408,-0.00000087,0.29545252,0
 .82936606,0.00003081,0.00008013,-0.05988148,0.00000686,0.00000332,0.02
 706111,0.00243250,-0.00382062,-0.00123252,-0.00243480,0.00381562,-0.00
 123113,-0.00000201,0.00000122,-0.00075870,-0.00004434,-0.00008629,0.02
 422635,-0.04208861,0.04096628,0.00000398,-0.02487147,-0.00492032,0.000
 00204,-0.00204732,0.00068934,-0.00030579,-0.00204632,0.00069175,0.0003
 1100,-0.00139134,0.00453822,-0.00000069,-0.04265343,-0.05049625,0.0000
 1097,0.11509849,0.00819721,-0.02386866,-0.00000218,0.01443955,0.002627
 52,-0.00000498,0.00012617,0.00099953,-0.00058007,0.00012764,0.00100125
 ,0.00058149,0.00197748,-0.00160340,0.00000044,-0.03339902,-0.00775636,
 0.00000662,0.00853098,0.02860011,0.00000349,-0.00000638,-0.02855617,0.
 00000427,-0.00000087,0.00738042,0.00053001,-0.00154306,0.00060996,-0.0
 0052728,0.00154262,0.00060994,0.00000072,0.00000010,0.00167793,0.00001
 032,0.00000892,0.01181638,-0.00002152,-0.00000133,0.00646154||-0.00019
 545,-0.00005910,0.00000931,0.00013395,-0.00008646,-0.00000477,-0.00003
 699,-0.00001829,0.00002229,-0.00003652,-0.00002049,-0.00002121,0.00000
 116,0.00002647,-0.00000027,0.00008855,0.00010933,-0.00000302,0.0000453
 1,0.00004854,-0.00000232|||@


 ORIGINALITY CONSISTS NOT IN SAYING WHAT NO ONE HAS EVER SAID BEFORE, 
 BUT IN SAYING WHAT YOU THINK YOUR SELF.

                                    -- JAMES F. STEPHEN
 Job cpu time:  0 days  0 hours 38 minutes 26.0 seconds.
 File lengths (MBytes):  RWF=     52 Int=      0 D2E=      0 Chk=      5 Scr=      1
 Normal termination of Gaussian 09 at Wed Mar 25 04:17:19 2015.
