 Entering Link 1 = C:\G09W\l1.exe PID=      5492.
  
 Copyright (c) 1988,1990,1992,1993,1995,1998,2003,2009, Gaussian, Inc.
                  All Rights Reserved.
  
 This is part of the Gaussian(R) 09 program.  It is based on
 the Gaussian(R) 03 system (copyright 2003, Gaussian, Inc.),
 the Gaussian(R) 98 system (copyright 1998, Gaussian, Inc.),
 the Gaussian(R) 94 system (copyright 1995, Gaussian, Inc.),
 the Gaussian 92(TM) system (copyright 1992, Gaussian, Inc.),
 the Gaussian 90(TM) system (copyright 1990, Gaussian, Inc.),
 the Gaussian 88(TM) system (copyright 1988, Gaussian, Inc.),
 the Gaussian 86(TM) system (copyright 1986, Carnegie Mellon
 University), and the Gaussian 82(TM) system (copyright 1983,
 Carnegie Mellon University). Gaussian is a federally registered
 trademark of Gaussian, Inc.
  
 This software contains proprietary and confidential information,
 including trade secrets, belonging to Gaussian, Inc.
  
 This software is provided under written license and may be
 used, copied, transmitted, or stored only in accord with that
 written license.
  
 The following legend is applicable only to US Government
 contracts under FAR:
  
                    RESTRICTED RIGHTS LEGEND
  
 Use, reproduction and disclosure by the US Government is
 subject to restrictions as set forth in subparagraphs (a)
 and (c) of the Commercial Computer Software - Restricted
 Rights clause in FAR 52.227-19.
  
 Gaussian, Inc.
 340 Quinnipiac St., Bldg. 40, Wallingford CT 06492
  
  
 ---------------------------------------------------------------
 Warning -- This program may not be used in any manner that
 competes with the business of Gaussian, Inc. or will provide
 assistance to any competitor of Gaussian, Inc.  The licensee
 of this program is prohibited from giving any competitor of
 Gaussian, Inc. access to this program.  By using this program,
 the user acknowledges that Gaussian, Inc. is engaged in the
 business of creating and licensing software in the field of
 computational chemistry and represents and warrants to the
 licensee that it is not a competitor of Gaussian, Inc. and that
 it will not use this program in any manner prohibited above.
 ---------------------------------------------------------------
  

 Cite this work as:
 Gaussian 09, Revision A.02,
 M. J. Frisch, G. W. Trucks, H. B. Schlegel, G. E. Scuseria, 
 M. A. Robb, J. R. Cheeseman, G. Scalmani, V. Barone, B. Mennucci, 
 G. A. Petersson, H. Nakatsuji, M. Caricato, X. Li, H. P. Hratchian, 
 A. F. Izmaylov, J. Bloino, G. Zheng, J. L. Sonnenberg, M. Hada, 
 M. Ehara, K. Toyota, R. Fukuda, J. Hasegawa, M. Ishida, T. Nakajima, 
 Y. Honda, O. Kitao, H. Nakai, T. Vreven, J. A. Montgomery, Jr., 
 J. E. Peralta, F. Ogliaro, M. Bearpark, J. J. Heyd, E. Brothers, 
 K. N. Kudin, V. N. Staroverov, R. Kobayashi, J. Normand, 
 K. Raghavachari, A. Rendell, J. C. Burant, S. S. Iyengar, J. Tomasi, 
 M. Cossi, N. Rega, J. M. Millam, M. Klene, J. E. Knox, J. B. Cross, 
 V. Bakken, C. Adamo, J. Jaramillo, R. Gomperts, R. E. Stratmann, 
 O. Yazyev, A. J. Austin, R. Cammi, C. Pomelli, J. W. Ochterski, 
 R. L. Martin, K. Morokuma, V. G. Zakrzewski, G. A. Voth, 
 P. Salvador, J. J. Dannenberg, S. Dapprich, A. D. Daniels, 
 O. Farkas, J. B. Foresman, J. V. Ortiz, J. Cioslowski, 
 and D. J. Fox, Gaussian, Inc., Wallingford CT, 2009.
 
 ******************************************
 Gaussian 09:  IA32W-G09RevA.02 11-Jun-2009
                25-Feb-2015 
 ******************************************
 %chk=C:\Users\LawalM\Desktop\RCOBr\bac.chk
 ----------------------------------------------------------
 # opt freq b3lyp/gen geom=connectivity gfinput pseudo=read
 ----------------------------------------------------------
 1/14=-1,18=20,19=15,26=3,38=1,57=2/1,3;
 2/9=110,12=2,17=6,18=5,40=1/2;
 3/5=7,11=2,16=1,17=8,24=10,25=1,30=1,71=1,74=-5/1,2,3;
 4//1;
 5/5=2,38=5/2;
 6/7=2,8=2,9=2,10=2,28=1/1;
 7//1,2,3,16;
 1/14=-1,18=20,19=15/3(2);
 2/9=110/2;
 99//99;
 2/9=110/2;
 3/5=7,6=1,11=2,16=1,17=8,25=1,30=1,71=1,74=-5,82=7/1,2,3;
 4/5=5,16=3/1;
 5/5=2,38=5/2;
 7//1,2,3,16;
 1/14=-1,18=20,19=15/3(-5);
 2/9=110/2;
 6/7=2,8=2,9=2,10=2,19=2,28=1/1;
 99/9=1/99;
 --------------------
 gen calculation BrAc-C H O=6-31+g(d)/Br=midix
 --------------------
 Symbolic Z-matrix:
 Charge =  0 Multiplicity = 1
 C                     1.01121   0.23761   0.00018 
 C                     1.72256  -1.06187  -0.00003 
 H                     1.46581  -1.67485   0.8825 
 H                     1.46445  -1.67517  -0.88197 
 H                     2.81725  -0.92328  -0.00081 
 O                     1.46701   1.33296  -0.00006 
 Br                   -0.96818  -0.04128  -0.00001 
 

 GradGradGradGradGradGradGradGradGradGradGradGradGradGradGradGradGradGrad
 Berny optimization.
 Initialization pass.
                           ----------------------------
                           !    Initial Parameters    !
                           ! (Angstroms and Degrees)  !
 --------------------------                            --------------------------
 ! Name  Definition              Value          Derivative Info.                !
 --------------------------------------------------------------------------------
 ! R1    R(1,2)                  1.4814         estimate D2E/DX2                !
 ! R2    R(1,6)                  1.1864         estimate D2E/DX2                !
 ! R3    R(1,7)                  1.9989         estimate D2E/DX2                !
 ! R4    R(2,3)                  1.1048         estimate D2E/DX2                !
 ! R5    R(2,4)                  1.1048         estimate D2E/DX2                !
 ! R6    R(2,5)                  1.1034         estimate D2E/DX2                !
 ! A1    A(2,1,6)              128.7098         estimate D2E/DX2                !
 ! A2    A(2,1,7)              110.6765         estimate D2E/DX2                !
 ! A3    A(6,1,7)              120.6137         estimate D2E/DX2                !
 ! A4    A(1,2,3)              112.0239         estimate D2E/DX2                !
 ! A5    A(1,2,4)              112.0164         estimate D2E/DX2                !
 ! A6    A(1,2,5)              111.4811         estimate D2E/DX2                !
 ! A7    A(3,2,4)              105.9857         estimate D2E/DX2                !
 ! A8    A(3,2,5)              107.5067         estimate D2E/DX2                !
 ! A9    A(4,2,5)              107.5132         estimate D2E/DX2                !
 ! D1    D(6,1,2,3)            120.5048         estimate D2E/DX2                !
 ! D2    D(6,1,2,4)           -120.5474         estimate D2E/DX2                !
 ! D3    D(6,1,2,5)             -0.0197         estimate D2E/DX2                !
 ! D4    D(7,1,2,3)            -59.5249         estimate D2E/DX2                !
 ! D5    D(7,1,2,4)             59.4229         estimate D2E/DX2                !
 ! D6    D(7,1,2,5)            179.9506         estimate D2E/DX2                !
 --------------------------------------------------------------------------------
 Trust Radius=3.00D-01 FncErr=1.00D-07 GrdErr=1.00D-06
 Number of steps in this run=  31 maximum allowed number of steps= 100.
 GradGradGradGradGradGradGradGradGradGradGradGradGradGradGradGradGradGrad

                          Input orientation:                          
 ---------------------------------------------------------------------
 Center     Atomic      Atomic             Coordinates (Angstroms)
 Number     Number       Type             X           Y           Z
 ---------------------------------------------------------------------
      1          6           0        1.011206    0.237614    0.000180
      2          6           0        1.722556   -1.061873   -0.000028
      3          1           0        1.465808   -1.674851    0.882500
      4          1           0        1.464453   -1.675170   -0.881972
      5          1           0        2.817250   -0.923279   -0.000814
      6          8           0        1.467008    1.332956   -0.000055
      7         35           0       -0.968176   -0.041280   -0.000005
 ---------------------------------------------------------------------
                    Distance matrix (angstroms):
                    1          2          3          4          5
     1  C    0.000000
     2  C    1.481447   0.000000
     3  H    2.154687   1.104770   0.000000
     4  H    2.154615   1.104797   1.764473   0.000000
     5  H    2.146967   1.103433   1.780870   1.780966   0.000000
     6  O    1.186394   2.408425   3.134614   3.134742   2.629401
     7  Br   1.998933   2.877785   3.061315   3.060253   3.886820
                    6          7
     6  O    0.000000
     7  Br   2.796184   0.000000
 Stoichiometry    C2H3BrO
 Framework group  C1[X(C2H3BrO)]
 Deg. of freedom    15
 Full point group                 C1      NOp   1
 Largest Abelian subgroup         C1      NOp   1
 Largest concise Abelian subgroup C1      NOp   1
                         Standard orientation:                         
 ---------------------------------------------------------------------
 Center     Atomic      Atomic             Coordinates (Angstroms)
 Number     Number       Type             X           Y           Z
 ---------------------------------------------------------------------
      1          6           0        1.011206    0.237614    0.000180
      2          6           0        1.722556   -1.061873   -0.000028
      3          1           0        1.465808   -1.674851    0.882500
      4          1           0        1.464453   -1.675170   -0.881972
      5          1           0        2.817250   -0.923279   -0.000814
      6          8           0        1.467008    1.332956   -0.000055
      7         35           0       -0.968176   -0.041280   -0.000005
 ---------------------------------------------------------------------
 Rotational constants (GHZ):     10.0778499      2.9893900      2.3389884
 General basis read from cards:  (5D, 7F)
 AO basis set in the form of general basis input (Overlap normalization):
      1 0
 S   6 1.00       0.000000000000
      0.3047524880D+04  0.1834737132D-02
      0.4573695180D+03  0.1403732281D-01
      0.1039486850D+03  0.6884262226D-01
      0.2921015530D+02  0.2321844432D+00
      0.9286662960D+01  0.4679413484D+00
      0.3163926960D+01  0.3623119853D+00
 SP   3 1.00       0.000000000000
      0.7868272350D+01 -0.1193324198D+00  0.6899906659D-01
      0.1881288540D+01 -0.1608541517D+00  0.3164239610D+00
      0.5442492580D+00  0.1143456438D+01  0.7443082909D+00
 SP   1 1.00       0.000000000000
      0.1687144782D+00  0.1000000000D+01  0.1000000000D+01
 SP   1 1.00       0.000000000000
      0.4380000000D-01  0.1000000000D+01  0.1000000000D+01
 D   1 1.00       0.000000000000
      0.8000000000D+00  0.1000000000D+01
 ****
      2 0
 S   6 1.00       0.000000000000
      0.3047524880D+04  0.1834737132D-02
      0.4573695180D+03  0.1403732281D-01
      0.1039486850D+03  0.6884262226D-01
      0.2921015530D+02  0.2321844432D+00
      0.9286662960D+01  0.4679413484D+00
      0.3163926960D+01  0.3623119853D+00
 SP   3 1.00       0.000000000000
      0.7868272350D+01 -0.1193324198D+00  0.6899906659D-01
      0.1881288540D+01 -0.1608541517D+00  0.3164239610D+00
      0.5442492580D+00  0.1143456438D+01  0.7443082909D+00
 SP   1 1.00       0.000000000000
      0.1687144782D+00  0.1000000000D+01  0.1000000000D+01
 SP   1 1.00       0.000000000000
      0.4380000000D-01  0.1000000000D+01  0.1000000000D+01
 D   1 1.00       0.000000000000
      0.8000000000D+00  0.1000000000D+01
 ****
      3 0
 S   3 1.00       0.000000000000
      0.1873113696D+02  0.3349460434D-01
      0.2825394365D+01  0.2347269535D+00
      0.6401216923D+00  0.8137573261D+00
 S   1 1.00       0.000000000000
      0.1612777588D+00  0.1000000000D+01
 ****
      4 0
 S   3 1.00       0.000000000000
      0.1873113696D+02  0.3349460434D-01
      0.2825394365D+01  0.2347269535D+00
      0.6401216923D+00  0.8137573261D+00
 S   1 1.00       0.000000000000
      0.1612777588D+00  0.1000000000D+01
 ****
      5 0
 S   3 1.00       0.000000000000
      0.1873113696D+02  0.3349460434D-01
      0.2825394365D+01  0.2347269535D+00
      0.6401216923D+00  0.8137573261D+00
 S   1 1.00       0.000000000000
      0.1612777588D+00  0.1000000000D+01
 ****
      6 0
 S   6 1.00       0.000000000000
      0.5484671660D+04  0.1831074430D-02
      0.8252349460D+03  0.1395017220D-01
      0.1880469580D+03  0.6844507810D-01
      0.5296450000D+02  0.2327143360D+00
      0.1689757040D+02  0.4701928980D+00
      0.5799635340D+01  0.3585208530D+00
 SP   3 1.00       0.000000000000
      0.1553961625D+02 -0.1107775495D+00  0.7087426823D-01
      0.3599933586D+01 -0.1480262627D+00  0.3397528391D+00
      0.1013761750D+01  0.1130767015D+01  0.7271585773D+00
 SP   1 1.00       0.000000000000
      0.2700058226D+00  0.1000000000D+01  0.1000000000D+01
 SP   1 1.00       0.000000000000
      0.8450000000D-01  0.1000000000D+01  0.1000000000D+01
 D   1 1.00       0.000000000000
      0.8000000000D+00  0.1000000000D+01
 ****
      7 0
 S   3 1.00       0.000000000000
      0.6103289900D+04  0.6241800148D-01
      0.9236974300D+03  0.3720410088D+00
      0.2025203100D+03  0.6858730163D+00
 S   3 1.00       0.000000000000
      0.2706015000D+03 -0.1121490080D+00
      0.5825357000D+02  0.9314500668D-01
      0.1846933000D+02  0.9616790689D+00
 S   3 1.00       0.000000000000
      0.1976142000D+02 -0.2938699522D+00
      0.6821752000D+01  0.2802659544D+00
      0.2291629000D+01  0.9020358532D+00
 S   2 1.00       0.000000000000
      0.2131206000D+01 -0.6518031587D+00
      0.4993540000D+00  0.1336012325D+01
 S   1 1.00       0.000000000000
      0.1647640000D+00  0.1000000000D+01
 P   3 1.00       0.000000000000
      0.2706015000D+03  0.1477510304D+00
      0.5825357000D+02  0.6010561236D+00
      0.1846933000D+02  0.4128700849D+00
 P   3 1.00       0.000000000000
      0.1976142000D+02  0.2500700459D-01
      0.6821752000D+01  0.4866100893D+00
      0.2291629000D+01  0.5824231068D+00
 P   2 1.00       0.000000000000
      0.2131206000D+01  0.2870799207D-01
      0.4993540000D+00  0.9840697282D+00
 P   1 1.00       0.000000000000
      0.1647640000D+00  0.1000000000D+01
 D   3 1.00       0.000000000000
      0.3396509700D+02  0.1496668821D+00
      0.8900831000D+01  0.5117475970D+00
      0.2428436000D+01  0.5759145465D+00
 D   1 1.00       0.000000000000
      0.4000000000D+00  0.1000000000D+01
 ****

 ======================================================================================================
                                       Pseudopotential Parameters
 ======================================================================================================
  Center     Atomic      Valence      Angular      Power
  Number     Number     Electrons     Momentum     of R      Exponent        Coefficient   SO-Coeffient
 ======================================================================================================
    1          6
                                   No pseudopotential on this center.
    2          6
                                   No pseudopotential on this center.
    3          1
                                   No pseudopotential on this center.
    4          1
                                   No pseudopotential on this center.
    5          1
                                   No pseudopotential on this center.
    6          8
                                   No pseudopotential on this center.
    7         35
                                   No pseudopotential on this center.
 ======================================================================================================
 There are    87 symmetry adapted basis functions of A   symmetry.
 Integral buffers will be    262144 words long.
 Raffenetti 2 integral format.
 Two-electron integral symmetry is turned on.
    87 basis functions,   171 primitive gaussians,    92 cartesian basis functions
    29 alpha electrons       29 beta electrons
       nuclear repulsion energy       227.1383430167 Hartrees.
 NAtoms=    7 NActive=    7 NUniq=    7 SFac= 7.50D-01 NAtFMM=   80 NAOKFM=F Big=F
 One-electron integrals computed using PRISM.
   1 Symmetry operations used in ECPInt.
 ECPInt:  NShTT=     528 NPrTT=    2784 LenC2=     523 LenP2D=    2157.
 LDataN:  DoStor=T MaxTD1= 4 Len=   56
 NBasis=    87 RedAO= T  NBF=    87
 NBsUse=    87 1.00D-06 NBFU=    87
 Harris functional with IExCor=  402 diagonalized for initial guess.
 ExpMin= 4.38D-02 ExpMax= 6.10D+03 ExpMxC= 6.10D+03 IAcc=2 IRadAn=         0 AccDes= 0.00D+00
 HarFok:  IExCor=  402 AccDes= 0.00D+00 IRadAn=         0 IDoV= 1
 ScaDFX=  1.000000  1.000000  1.000000  1.000000
 FoFCou: FMM=F IPFlag=           0 FMFlag=      100000 FMFlg1=           0
         NFxFlg=           0 DoJE=T BraDBF=F KetDBF=T FulRan=T
         Omega=  0.000000  0.000000  1.000000  0.000000  0.000000 ICntrl=     500 IOpCl=  0
         NMat0=    1 NMatS0=    1 NMatT0=    0 NMatD0=    1 NMtDS0=    0 NMtDT0=    0
         I1Cent=           4 NGrid=           0.
 Petite list used in FoFCou.
 Initial guess orbital symmetries:
       Occupied  (A) (A) (A) (A) (A) (A) (A) (A) (A) (A) (A) (A)
                 (A) (A) (A) (A) (A) (A) (A) (A) (A) (A) (A) (A)
                 (A) (A) (A) (A) (A)
       Virtual   (A) (A) (A) (A) (A) (A) (A) (A) (A) (A) (A) (A)
                 (A) (A) (A) (A) (A) (A) (A) (A) (A) (A) (A) (A)
                 (A) (A) (A) (A) (A) (A) (A) (A) (A) (A) (A) (A)
                 (A) (A) (A) (A) (A) (A) (A) (A) (A) (A) (A) (A)
                 (A) (A) (A) (A) (A) (A) (A) (A) (A) (A)
 The electronic state of the initial guess is 1-A.
 Requested convergence on RMS density matrix=1.00D-08 within 128 cycles.
 Requested convergence on MAX density matrix=1.00D-06.
 Requested convergence on             energy=1.00D-06.
 No special actions if energy rises.
 Keep R1 ints in memory in canonical form, NReq=10168917.
 SCF Done:  E(RB3LYP) =  -2715.27215739     A.U. after   12 cycles
             Convg  =    0.9156D-08             -V/T =  2.0004

 **********************************************************************

            Population analysis using the SCF density.

 **********************************************************************

 Orbital symmetries:
       Occupied  (A) (A) (A) (A) (A) (A) (A) (A) (A) (A) (A) (A)
                 (A) (A) (A) (A) (A) (A) (A) (A) (A) (A) (A) (A)
                 (A) (A) (A) (A) (A)
       Virtual   (A) (A) (A) (A) (A) (A) (A) (A) (A) (A) (A) (A)
                 (A) (A) (A) (A) (A) (A) (A) (A) (A) (A) (A) (A)
                 (A) (A) (A) (A) (A) (A) (A) (A) (A) (A) (A) (A)
                 (A) (A) (A) (A) (A) (A) (A) (A) (A) (A) (A) (A)
                 (A) (A) (A) (A) (A) (A) (A) (A) (A) (A)
 The electronic state is 1-A.
 Alpha  occ. eigenvalues -- -479.87738 -62.40749 -56.01909 -56.01565 -56.01550
 Alpha  occ. eigenvalues --  -19.20104 -10.34678 -10.22476  -8.77400  -6.56400
 Alpha  occ. eigenvalues --   -6.55322  -6.55194  -2.67793  -2.67414  -2.67355
 Alpha  occ. eigenvalues --   -2.66434  -2.66429  -1.11029  -0.81496  -0.76180
 Alpha  occ. eigenvalues --   -0.57130  -0.49513  -0.48664  -0.48306  -0.41749
 Alpha  occ. eigenvalues --   -0.40838  -0.30518  -0.29893  -0.28934
 Alpha virt. eigenvalues --   -0.05335  -0.01773   0.00234   0.03737   0.04678
 Alpha virt. eigenvalues --    0.05199   0.08522   0.08538   0.09014   0.12039
 Alpha virt. eigenvalues --    0.15817   0.16368   0.22972   0.24383   0.24964
 Alpha virt. eigenvalues --    0.26741   0.27928   0.28531   0.39706   0.50356
 Alpha virt. eigenvalues --    0.53328   0.55755   0.56479   0.57278   0.63858
 Alpha virt. eigenvalues --    0.66135   0.66427   0.67642   0.73274   0.75471
 Alpha virt. eigenvalues --    0.76589   0.79528   0.88922   0.93455   0.95594
 Alpha virt. eigenvalues --    0.99087   1.05081   1.07919   1.19893   1.24537
 Alpha virt. eigenvalues --    1.26419   1.37018   1.38102   1.53223   1.68327
 Alpha virt. eigenvalues --    1.72586   1.79215   1.80565   1.87463   2.01540
 Alpha virt. eigenvalues --    2.07911   2.14824   2.29994   2.38021   2.55266
 Alpha virt. eigenvalues --    2.58320   2.85264   3.11097
          Condensed to atoms (all electrons):
              1          2          3          4          5          6
     1  C    5.304733  -0.384627  -0.055536  -0.055628   0.037204   0.404884
     2  C   -0.384627   6.280090   0.390533   0.390622   0.298700  -0.077315
     3  H   -0.055536   0.390533   0.463733  -0.021747  -0.025981   0.001940
     4  H   -0.055628   0.390622  -0.021747   0.463751  -0.025981   0.001945
     5  H    0.037204   0.298700  -0.025981  -0.025981   0.480725  -0.005320
     6  O    0.404884  -0.077315   0.001940   0.001945  -0.005320   8.057179
     7  Br   0.411713  -0.162662  -0.003244  -0.003251   0.003808  -0.109083
              7
     1  C    0.411713
     2  C   -0.162662
     3  H   -0.003244
     4  H   -0.003251
     5  H    0.003808
     6  O   -0.109083
     7  Br  34.927842
 Mulliken atomic charges:
              1
     1  C    0.337258
     2  C   -0.735341
     3  H    0.250302
     4  H    0.250289
     5  H    0.236844
     6  O   -0.274229
     7  Br  -0.065123
 Sum of Mulliken atomic charges =   0.00000
 Mulliken charges with hydrogens summed into heavy atoms:
              1
     1  C    0.337258
     2  C    0.002095
     6  O   -0.274229
     7  Br  -0.065123
 Sum of Mulliken charges with hydrogens summed into heavy atoms =   0.00000
 Electronic spatial extent (au):  <R**2>=            492.9251
 Charge=              0.0000 electrons
 Dipole moment (field-independent basis, Debye):
    X=              1.0367    Y=             -2.7393    Z=              0.0002  Tot=              2.9289
 Quadrupole moment (field-independent basis, Debye-Ang):
   XX=            -34.0891   YY=            -38.0199   ZZ=            -35.6817
   XY=             -4.3432   XZ=              0.0011   YZ=              0.0002
 Traceless Quadrupole moment (field-independent basis, Debye-Ang):
   XX=              1.8411   YY=             -2.0896   ZZ=              0.2486
   XY=             -4.3432   XZ=              0.0011   YZ=              0.0002
 Octapole moment (field-independent basis, Debye-Ang**2):
  XXX=            -27.1143  YYY=             -4.5362  ZZZ=              0.0005  XYY=             -9.9616
  XXY=             -7.4997  XXZ=             -0.0009  XZZ=             -7.2698  YZZ=             -0.3615
  YYZ=             -0.0003  XYZ=             -0.0010
 Hexadecapole moment (field-independent basis, Debye-Ang**3):
 XXXX=           -362.0534 YYYY=           -168.3732 ZZZZ=            -46.6328 XXXY=             -5.8680
 XXXZ=             -0.0033 YYYX=             -1.9361 YYYZ=              0.0001 ZZZX=              0.0040
 ZZZY=             -0.0024 XXYY=            -95.4548 XXZZ=            -71.6504 YYZZ=            -32.6790
 XXYZ=             -0.0020 YYXZ=              0.0032 ZZXY=              1.2302
 N-N= 2.271383430167D+02 E-N=-6.939048979014D+03  KE= 2.714192902365D+03
   1 Symmetry operations used in ECPInt.
 ECPInt:  NShTT=     528 NPrTT=    2784 LenC2=     523 LenP2D=    2157.
 LDataN:  DoStor=T MaxTD1= 5 Len=  102
 Calling FoFJK, ICntrl=      2127 FMM=F ISym2X=0 I1Cent= 0 IOpClX= 0 NMat=1 NMatS=1 NMatT=0.
 ***** Axes restored to original set *****
 -------------------------------------------------------------------
 Center     Atomic                   Forces (Hartrees/Bohr)
 Number     Number              X              Y              Z
 -------------------------------------------------------------------
      1        6          -0.013567687   -0.000523598   -0.000045971
      2        6           0.018356058   -0.022356517   -0.000012815
      3        1          -0.002469294    0.006144073   -0.003990038
      4        1          -0.002445402    0.006153735    0.004010261
      5        1          -0.005728422    0.004195822    0.000002834
      6        8           0.002405746    0.003923885    0.000020453
      7       35           0.003449001    0.002462600    0.000015276
 -------------------------------------------------------------------
 Cartesian Forces:  Max     0.022356517 RMS     0.007654380

 GradGradGradGradGradGradGradGradGradGradGradGradGradGradGradGradGradGrad
 Berny optimization.
 Internal  Forces:  Max     0.008856924 RMS     0.004359794
 Search for a local minimum.
 Step number   1 out of a maximum of   31
 All quantities printed in internal units (Hartrees-Bohrs-Radians)
 Mixed Optimization -- RFO/linear search
 Second derivative matrix not updated -- first step.
     Eigenvalues ---    0.01011   0.01011   0.07204   0.07224   0.14160
     Eigenvalues ---    0.16000   0.16000   0.16000   0.25000   0.25000
     Eigenvalues ---    0.33157   0.33160   0.33305   0.34404   1.11968
     Eigenvalues --- 1000.000001000.000001000.000001000.000001000.00000
     Eigenvalues --- 1000.00000
 RFO step:  Lambda=-1.71500769D-03 EMin= 1.01136755D-02
 Linear search not attempted -- first point.
 Iteration  1 RMS(Cart)=  0.01590665 RMS(Int)=  0.00044178
 Iteration  2 RMS(Cart)=  0.00036593 RMS(Int)=  0.00024796
 Iteration  3 RMS(Cart)=  0.00000013 RMS(Int)=  0.00024796
 Variable       Old X    -DE/DX   Delta X   Delta X   Delta X     New X
                                 (Linear)    (Quad)   (Total)
    R1        2.79953   0.00886   0.00000   0.02562   0.02562   2.82515
    R2        2.24196   0.00456   0.00000   0.00406   0.00406   2.24602
    R3        3.77744  -0.00377   0.00000  -0.02634  -0.02634   3.75110
    R4        2.08771  -0.00602   0.00000  -0.01805  -0.01805   2.06967
    R5        2.08776  -0.00604   0.00000  -0.01812  -0.01812   2.06964
    R6        2.08519  -0.00517   0.00000  -0.01544  -0.01544   2.06975
    A1        2.24641  -0.00364   0.00000  -0.01446  -0.01446   2.23195
    A2        1.93167   0.00560   0.00000   0.02224   0.02224   1.95391
    A3        2.10511  -0.00196   0.00000  -0.00778  -0.00778   2.09732
    A4        1.95519  -0.00471   0.00000  -0.03092  -0.03140   1.92379
    A5        1.95506  -0.00470   0.00000  -0.03080  -0.03128   1.92378
    A6        1.94571  -0.00420   0.00000  -0.02243  -0.02268   1.92304
    A7        1.84980   0.00390   0.00000   0.01757   0.01686   1.86666
    A8        1.87635   0.00542   0.00000   0.03674   0.03650   1.91285
    A9        1.87646   0.00541   0.00000   0.03670   0.03646   1.91292
    D1        2.10321   0.00072   0.00000   0.00884   0.00865   2.11185
    D2       -2.10395  -0.00075   0.00000  -0.01103  -0.01084  -2.11479
    D3       -0.00034  -0.00001   0.00000  -0.00108  -0.00108  -0.00143
    D4       -1.03890   0.00075   0.00000   0.01140   0.01120  -1.02770
    D5        1.03713  -0.00072   0.00000  -0.00848  -0.00828   1.02884
    D6        3.14073   0.00002   0.00000   0.00148   0.00148  -3.14098
         Item               Value     Threshold  Converged?
 Maximum Force            0.008857     0.000450     NO 
 RMS     Force            0.004360     0.000300     NO 
 Maximum Displacement     0.034829     0.001800     NO 
 RMS     Displacement     0.015966     0.001200     NO 
 Predicted change in Energy=-8.638792D-04
 GradGradGradGradGradGradGradGradGradGradGradGradGradGradGradGradGradGrad

                          Input orientation:                          
 ---------------------------------------------------------------------
 Center     Atomic      Atomic             Coordinates (Angstroms)
 Number     Number       Type             X           Y           Z
 ---------------------------------------------------------------------
      1          6           0        1.004704    0.224707   -0.000684
      2          6           0        1.736780   -1.078787   -0.000209
      3          1           0        1.459685   -1.668342    0.880218
      4          1           0        1.459426   -1.669113   -0.880023
      5          1           0        2.818144   -0.904848   -0.000400
      6          8           0        1.465261    1.320392    0.000138
      7         35           0       -0.963895   -0.029891    0.000766
 ---------------------------------------------------------------------
                    Distance matrix (angstroms):
                    1          2          3          4          5
     1  C    0.000000
     2  C    1.495002   0.000000
     3  H    2.136968   1.095220   0.000000
     4  H    2.136952   1.095208   1.760241   0.000000
     5  H    2.136460   1.095265   1.789922   1.789959   0.000000
     6  O    1.188544   2.414494   3.115622   3.116385   2.604225
     7  Br   1.984995   2.897210   3.054783   3.055376   3.881929
                    6          7
     6  O    0.000000
     7  Br   2.779219   0.000000
 Stoichiometry    C2H3BrO
 Framework group  C1[X(C2H3BrO)]
 Deg. of freedom    15
 Full point group                 C1      NOp   1
 Largest Abelian subgroup         C1      NOp   1
 Largest concise Abelian subgroup C1      NOp   1
                         Standard orientation:                         
 ---------------------------------------------------------------------
 Center     Atomic      Atomic             Coordinates (Angstroms)
 Number     Number       Type             X           Y           Z
 ---------------------------------------------------------------------
      1          6           0        0.998513    0.236202   -0.000712
      2          6           0        1.748871   -1.056854    0.000105
      3          1           0        1.479781   -1.650209    0.880461
      4          1           0        1.480184   -1.651071   -0.879779
      5          1           0        2.827679   -0.867705    0.000303
      6          8           0        1.443594    1.338264    0.000219
      7         35           0       -0.966306   -0.046092    0.000026
 ---------------------------------------------------------------------
 Rotational constants (GHZ):     10.1019002      2.9977097      2.3452139
 Basis read from rwf:  (5D, 7F)
 Pseudo-potential data read from rwf file.
 There are    87 symmetry adapted basis functions of A   symmetry.
 Integral buffers will be    262144 words long.
 Raffenetti 2 integral format.
 Two-electron integral symmetry is turned on.
    87 basis functions,   171 primitive gaussians,    92 cartesian basis functions
    29 alpha electrons       29 beta electrons
       nuclear repulsion energy       227.5728460988 Hartrees.
 NAtoms=    7 NActive=    7 NUniq=    7 SFac= 7.50D-01 NAtFMM=   80 NAOKFM=F Big=F
 One-electron integrals computed using PRISM.
   1 Symmetry operations used in ECPInt.
 ECPInt:  NShTT=     528 NPrTT=    2784 LenC2=     523 LenP2D=    2160.
 LDataN:  DoStor=T MaxTD1= 4 Len=   56
 NBasis=    87 RedAO= T  NBF=    87
 NBsUse=    87 1.00D-06 NBFU=    87
 Initial guess read from the read-write file.
 B after Tr=     0.000000    0.000000    0.000000
         Rot=    1.000000    0.000000    0.000000    0.000000 Ang=   0.00 deg.
 Initial guess orbital symmetries:
       Occupied  (A) (A) (A) (A) (A) (A) (A) (A) (A) (A) (A) (A)
                 (A) (A) (A) (A) (A) (A) (A) (A) (A) (A) (A) (A)
                 (A) (A) (A) (A) (A)
       Virtual   (A) (A) (A) (A) (A) (A) (A) (A) (A) (A) (A) (A)
                 (A) (A) (A) (A) (A) (A) (A) (A) (A) (A) (A) (A)
                 (A) (A) (A) (A) (A) (A) (A) (A) (A) (A) (A) (A)
                 (A) (A) (A) (A) (A) (A) (A) (A) (A) (A) (A) (A)
                 (A) (A) (A) (A) (A) (A) (A) (A) (A) (A)
 Harris functional with IExCor=  402 diagonalized for initial guess.
 ExpMin= 4.38D-02 ExpMax= 6.10D+03 ExpMxC= 6.10D+03 IAcc=2 IRadAn=         0 AccDes= 0.00D+00
 HarFok:  IExCor=  402 AccDes= 0.00D+00 IRadAn=         0 IDoV= 1
 ScaDFX=  1.000000  1.000000  1.000000  1.000000
 FoFCou: FMM=F IPFlag=           0 FMFlag=      100000 FMFlg1=           0
         NFxFlg=           0 DoJE=T BraDBF=F KetDBF=T FulRan=T
         Omega=  0.000000  0.000000  1.000000  0.000000  0.000000 ICntrl=     500 IOpCl=  0
         NMat0=    1 NMatS0=    1 NMatT0=    0 NMatD0=    1 NMtDS0=    0 NMtDT0=    0
         I1Cent=           4 NGrid=           0.
 Petite list used in FoFCou.
 Requested convergence on RMS density matrix=1.00D-08 within 128 cycles.
 Requested convergence on MAX density matrix=1.00D-06.
 Requested convergence on             energy=1.00D-06.
 No special actions if energy rises.
 Keep R1 ints in memory in canonical form, NReq=10168917.
 SCF Done:  E(RB3LYP) =  -2715.27326826     A.U. after   11 cycles
             Convg  =    0.2840D-08             -V/T =  2.0004
   1 Symmetry operations used in ECPInt.
 ECPInt:  NShTT=     528 NPrTT=    2784 LenC2=     523 LenP2D=    2160.
 LDataN:  DoStor=T MaxTD1= 5 Len=  102
 Calling FoFJK, ICntrl=      2127 FMM=F ISym2X=0 I1Cent= 0 IOpClX= 0 NMat=1 NMatS=1 NMatT=0.
 ***** Axes restored to original set *****
 -------------------------------------------------------------------
 Center     Atomic                   Forces (Hartrees/Bohr)
 Number     Number              X              Y              Z
 -------------------------------------------------------------------
      1        6          -0.006426307   -0.000100501    0.000216849
      2        6           0.005973760   -0.005935025   -0.000073706
      3        1          -0.000854264    0.000866827    0.000104961
      4        1          -0.000839230    0.000837868   -0.000107706
      5        1          -0.001287859    0.001466811   -0.000005893
      6        8           0.001974291    0.002258647   -0.000084790
      7       35           0.001459608    0.000605372   -0.000049716
 -------------------------------------------------------------------
 Cartesian Forces:  Max     0.006426307 RMS     0.002492813

 GradGradGradGradGradGradGradGradGradGradGradGradGradGradGradGradGradGrad
 Berny optimization.
 Using GEDIIS/GDIIS optimizer.
 Internal  Forces:  Max     0.003883909 RMS     0.001478242
 Search for a local minimum.
 Step number   2 out of a maximum of   31
 All quantities printed in internal units (Hartrees-Bohrs-Radians)
 Mixed Optimization -- RFO/linear search
 Update second derivatives using D2CorX and points    1    2
 DE= -1.11D-03 DEPred=-8.64D-04 R= 1.29D+00
 SS=  1.41D+00  RLast= 9.40D-02 DXNew= 5.0454D-01 2.8201D-01
 Trust test= 1.29D+00 RLast= 9.40D-02 DXMaxT set to 3.00D-01
 Use linear search instead of GDIIS.
     Eigenvalues ---    0.01011   0.01012   0.07464   0.07607   0.11865
     Eigenvalues ---    0.14639   0.16000   0.16076   0.23745   0.25188
     Eigenvalues ---    0.31900   0.33159   0.33369   0.35123   1.11101
     Eigenvalues --- 1000.000001000.000001000.000001000.000001000.00000
     Eigenvalues --- 1000.00000
 RFO step:  Lambda=-7.03461778D-05 EMin= 1.01136532D-02
 Quartic linear search produced a step of  0.36614.
 Iteration  1 RMS(Cart)=  0.00918889 RMS(Int)=  0.00017884
 Iteration  2 RMS(Cart)=  0.00011769 RMS(Int)=  0.00012814
 Iteration  3 RMS(Cart)=  0.00000002 RMS(Int)=  0.00012814
 Variable       Old X    -DE/DX   Delta X   Delta X   Delta X     New X
                                 (Linear)    (Quad)   (Total)
    R1        2.82515   0.00388   0.00938   0.00676   0.01614   2.84129
    R2        2.24602   0.00286   0.00149   0.00215   0.00364   2.24966
    R3        3.75110  -0.00154  -0.00964  -0.00546  -0.01510   3.73600
    R4        2.06967  -0.00016  -0.00661   0.00545  -0.00115   2.06851
    R5        2.06964  -0.00015  -0.00663   0.00553  -0.00110   2.06854
    R6        2.06975  -0.00105  -0.00565   0.00092  -0.00473   2.06502
    A1        2.23195  -0.00203  -0.00529  -0.00612  -0.01145   2.22051
    A2        1.95391   0.00186   0.00814   0.00256   0.01067   1.96458
    A3        2.09732   0.00017  -0.00285   0.00358   0.00070   2.09803
    A4        1.92379  -0.00115  -0.01150   0.00124  -0.01050   1.91329
    A5        1.92378  -0.00110  -0.01145   0.00168  -0.01002   1.91376
    A6        1.92304  -0.00176  -0.00830  -0.00665  -0.01512   1.90791
    A7        1.86666   0.00105   0.00617   0.00291   0.00875   1.87541
    A8        1.91285   0.00155   0.01336   0.00060   0.01379   1.92663
    A9        1.91292   0.00153   0.01335   0.00052   0.01370   1.92662
    D1        2.11185   0.00009   0.00317   0.00508   0.00818   2.12003
    D2       -2.11479   0.00001  -0.00397   0.01044   0.00654  -2.10825
    D3       -0.00143   0.00006  -0.00040   0.00786   0.00746   0.00603
    D4       -1.02770  -0.00002   0.00410  -0.01129  -0.00725  -1.03495
    D5        1.02884  -0.00010  -0.00303  -0.00593  -0.00889   1.01995
    D6       -3.14098  -0.00005   0.00054  -0.00851  -0.00797   3.13423
         Item               Value     Threshold  Converged?
 Maximum Force            0.003884     0.000450     NO 
 RMS     Force            0.001478     0.000300     NO 
 Maximum Displacement     0.024366     0.001800     NO 
 RMS     Displacement     0.009181     0.001200     NO 
 Predicted change in Energy=-1.311795D-04
 GradGradGradGradGradGradGradGradGradGradGradGradGradGradGradGradGradGrad

                          Input orientation:                          
 ---------------------------------------------------------------------
 Center     Atomic      Atomic             Coordinates (Angstroms)
 Number     Number       Type             X           Y           Z
 ---------------------------------------------------------------------
      1          6           0        0.998808    0.220347    0.004495
      2          6           0        1.741407   -1.087009    0.000575
      3          1           0        1.462318   -1.670955    0.883347
      4          1           0        1.456947   -1.669282   -0.881609
      5          1           0        2.816613   -0.891954   -0.002515
      6          8           0        1.467311    1.314737   -0.001321
      7         35           0       -0.963299   -0.021767   -0.003164
 ---------------------------------------------------------------------
                    Distance matrix (angstroms):
                    1          2          3          4          5
     1  C    0.000000
     2  C    1.503545   0.000000
     3  H    2.136410   1.094609   0.000000
     4  H    2.136766   1.094626   1.764965   0.000000
     5  H    2.131121   1.092760   1.796026   1.796033   0.000000
     6  O    1.190469   2.417337   3.114004   3.111170   2.586524
     7  Br   1.977004   2.906921   3.064204   3.056724   3.878784
                    6          7
     6  O    0.000000
     7  Br   2.773826   0.000000
 Stoichiometry    C2H3BrO
 Framework group  C1[X(C2H3BrO)]
 Deg. of freedom    15
 Full point group                 C1      NOp   1
 Largest Abelian subgroup         C1      NOp   1
 Largest concise Abelian subgroup C1      NOp   1
                         Standard orientation:                         
 ---------------------------------------------------------------------
 Center     Atomic      Atomic             Coordinates (Angstroms)
 Number     Number       Type             X           Y           Z
 ---------------------------------------------------------------------
      1          6           0       -0.990514    0.236127   -0.004688
      2          6           0       -1.761062   -1.054947    0.000779
      3          1           0       -1.495906   -1.645042   -0.882199
      4          1           0       -1.487895   -1.642926    0.882746
      5          1           0       -2.831818   -0.836802    0.005381
      6          8           0       -1.435352    1.340346    0.001436
      7         35           0        0.965940   -0.048145    0.000173
 ---------------------------------------------------------------------
 Rotational constants (GHZ):     10.1063072      2.9981044      2.3458820
 Basis read from rwf:  (5D, 7F)
 Pseudo-potential data read from rwf file.
 There are    87 symmetry adapted basis functions of A   symmetry.
 Integral buffers will be    262144 words long.
 Raffenetti 2 integral format.
 Two-electron integral symmetry is turned on.
    87 basis functions,   171 primitive gaussians,    92 cartesian basis functions
    29 alpha electrons       29 beta electrons
       nuclear repulsion energy       227.6632239585 Hartrees.
 NAtoms=    7 NActive=    7 NUniq=    7 SFac= 7.50D-01 NAtFMM=   80 NAOKFM=F Big=F
 One-electron integrals computed using PRISM.
   1 Symmetry operations used in ECPInt.
 ECPInt:  NShTT=     528 NPrTT=    2784 LenC2=     523 LenP2D=    2161.
 LDataN:  DoStor=T MaxTD1= 4 Len=   56
 NBasis=    87 RedAO= T  NBF=    87
 NBsUse=    87 1.00D-06 NBFU=    87
 Initial guess read from the read-write file.
 B after Tr=     0.000000    0.000000    0.000000
         Rot=    1.000000    0.000000    0.000000    0.000000 Ang=   0.00 deg.
 Initial guess orbital symmetries:
       Occupied  (A) (A) (A) (A) (A) (A) (A) (A) (A) (A) (A) (A)
                 (A) (A) (A) (A) (A) (A) (A) (A) (A) (A) (A) (A)
                 (A) (A) (A) (A) (A)
       Virtual   (A) (A) (A) (A) (A) (A) (A) (A) (A) (A) (A) (A)
                 (A) (A) (A) (A) (A) (A) (A) (A) (A) (A) (A) (A)
                 (A) (A) (A) (A) (A) (A) (A) (A) (A) (A) (A) (A)
                 (A) (A) (A) (A) (A) (A) (A) (A) (A) (A) (A) (A)
                 (A) (A) (A) (A) (A) (A) (A) (A) (A) (A)
 Harris functional with IExCor=  402 diagonalized for initial guess.
 ExpMin= 4.38D-02 ExpMax= 6.10D+03 ExpMxC= 6.10D+03 IAcc=2 IRadAn=         0 AccDes= 0.00D+00
 HarFok:  IExCor=  402 AccDes= 0.00D+00 IRadAn=         0 IDoV= 1
 ScaDFX=  1.000000  1.000000  1.000000  1.000000
 FoFCou: FMM=F IPFlag=           0 FMFlag=      100000 FMFlg1=           0
         NFxFlg=           0 DoJE=T BraDBF=F KetDBF=T FulRan=T
         Omega=  0.000000  0.000000  1.000000  0.000000  0.000000 ICntrl=     500 IOpCl=  0
         NMat0=    1 NMatS0=    1 NMatT0=    0 NMatD0=    1 NMtDS0=    0 NMtDT0=    0
         I1Cent=           4 NGrid=           0.
 Petite list used in FoFCou.
 Requested convergence on RMS density matrix=1.00D-08 within 128 cycles.
 Requested convergence on MAX density matrix=1.00D-06.
 Requested convergence on             energy=1.00D-06.
 No special actions if energy rises.
 Keep R1 ints in memory in canonical form, NReq=10168917.
 SCF Done:  E(RB3LYP) =  -2715.27340090     A.U. after   13 cycles
             Convg  =    0.4047D-08             -V/T =  2.0004
   1 Symmetry operations used in ECPInt.
 ECPInt:  NShTT=     528 NPrTT=    2784 LenC2=     523 LenP2D=    2161.
 LDataN:  DoStor=T MaxTD1= 5 Len=  102
 Calling FoFJK, ICntrl=      2127 FMM=F ISym2X=0 I1Cent= 0 IOpClX= 0 NMat=1 NMatS=1 NMatT=0.
 ***** Axes restored to original set *****
 -------------------------------------------------------------------
 Center     Atomic                   Forces (Hartrees/Bohr)
 Number     Number              X              Y              Z
 -------------------------------------------------------------------
      1        6          -0.001660176   -0.000079151   -0.001460341
      2        6           0.000275608   -0.000177649    0.000505667
      3        1           0.000102211   -0.000202036    0.000070538
      4        1           0.000021188   -0.000011220   -0.000060131
      5        1           0.000183451    0.000078522    0.000034761
      6        8           0.000629915    0.000368796    0.000573705
      7       35           0.000447803    0.000022739    0.000335802
 -------------------------------------------------------------------
 Cartesian Forces:  Max     0.001660176 RMS     0.000557865

 GradGradGradGradGradGradGradGradGradGradGradGradGradGradGradGradGradGrad
 Berny optimization.
 Using GEDIIS/GDIIS optimizer.
 Internal  Forces:  Max     0.000695312 RMS     0.000350670
 Search for a local minimum.
 Step number   3 out of a maximum of   31
 All quantities printed in internal units (Hartrees-Bohrs-Radians)
 Mixed Optimization -- En-DIIS/RFO-DIIS
 Update second derivatives using D2CorX and points    1    2    3
 DE= -1.33D-04 DEPred=-1.31D-04 R= 1.01D+00
 SS=  1.41D+00  RLast= 4.50D-02 DXNew= 5.0454D-01 1.3505D-01
 Trust test= 1.01D+00 RLast= 4.50D-02 DXMaxT set to 3.00D-01
 Use linear search instead of GDIIS.
     Eigenvalues ---    0.01011   0.01106   0.07606   0.07773   0.11023
     Eigenvalues ---    0.15168   0.16036   0.16263   0.22631   0.25316
     Eigenvalues ---    0.31615   0.33163   0.33367   0.35312   1.10161
     Eigenvalues --- 1000.000001000.000001000.000001000.000001000.00000
     Eigenvalues --- 1000.00000
 RFO step:  Lambda=-9.22119614D-05 EMin= 1.01136680D-02
 Quartic linear search produced a step of  0.03471.
 Iteration  1 RMS(Cart)=  0.01589247 RMS(Int)=  0.00041036
 Iteration  2 RMS(Cart)=  0.00036024 RMS(Int)=  0.00026295
 Iteration  3 RMS(Cart)=  0.00000004 RMS(Int)=  0.00026295
 Variable       Old X    -DE/DX   Delta X   Delta X   Delta X     New X
                                 (Linear)    (Quad)   (Total)
    R1        2.84129   0.00057   0.00056   0.00703   0.00759   2.84887
    R2        2.24966   0.00059   0.00013   0.00169   0.00182   2.25148
    R3        3.73600  -0.00046  -0.00052  -0.00841  -0.00893   3.72707
    R4        2.06851   0.00015  -0.00004  -0.00049  -0.00053   2.06799
    R5        2.06854   0.00006  -0.00004  -0.00075  -0.00079   2.06775
    R6        2.06502   0.00018  -0.00016  -0.00126  -0.00142   2.06360
    A1        2.22051  -0.00070  -0.00040  -0.00626  -0.00735   2.21315
    A2        1.96458   0.00036   0.00037   0.00546   0.00514   1.96971
    A3        2.09803   0.00034   0.00002   0.00160   0.00093   2.09896
    A4        1.91329   0.00029  -0.00036  -0.00195  -0.00232   1.91097
    A5        1.91376  -0.00004  -0.00035  -0.00414  -0.00450   1.90926
    A6        1.90791  -0.00009  -0.00053  -0.00564  -0.00618   1.90173
    A7        1.87541  -0.00007   0.00030   0.00274   0.00303   1.87844
    A8        1.92663  -0.00010   0.00048   0.00437   0.00484   1.93147
    A9        1.92662   0.00001   0.00048   0.00469   0.00515   1.93177
    D1        2.12003  -0.00036   0.00028  -0.03321  -0.03291   2.08712
    D2       -2.10825  -0.00030   0.00023  -0.03348  -0.03324  -2.14149
    D3        0.00603  -0.00037   0.00026  -0.03383  -0.03356  -0.02752
    D4       -1.03495   0.00036  -0.00025   0.03722   0.03696  -0.99800
    D5        1.01995   0.00042  -0.00031   0.03695   0.03663   1.05658
    D6        3.13423   0.00036  -0.00028   0.03660   0.03631  -3.11264
         Item               Value     Threshold  Converged?
 Maximum Force            0.000695     0.000450     NO 
 RMS     Force            0.000351     0.000300     NO 
 Maximum Displacement     0.044447     0.001800     NO 
 RMS     Displacement     0.015835     0.001200     NO 
 Predicted change in Energy=-4.621289D-05
 GradGradGradGradGradGradGradGradGradGradGradGradGradGradGradGradGradGrad

                          Input orientation:                          
 ---------------------------------------------------------------------
 Center     Atomic      Atomic             Coordinates (Angstroms)
 Number     Number       Type             X           Y           Z
 ---------------------------------------------------------------------
      1          6           0        0.995031    0.218581   -0.019026
      2          6           0        1.742957   -1.090267   -0.002912
      3          1           0        1.451462   -1.666518    0.880563
      4          1           0        1.469269   -1.676009   -0.885685
      5          1           0        2.815621   -0.885875    0.006966
      6          8           0        1.468555    1.311603    0.005216
      7         35           0       -0.962790   -0.017398    0.014683
 ---------------------------------------------------------------------
                    Distance matrix (angstroms):
                    1          2          3          4          5
     1  C    0.000000
     2  C    1.507560   0.000000
     3  H    2.138033   1.094332   0.000000
     4  H    2.136696   1.094207   1.766363   0.000000
     5  H    2.129565   1.092008   1.798195   1.798278   0.000000
     6  O    1.191433   2.417508   3.104147   3.117617   2.577499
     7  Br   1.972279   2.910743   3.049255   3.078403   3.876945
                    6          7
     6  O    0.000000
     7  Br   2.770880   0.000000
 Stoichiometry    C2H3BrO
 Framework group  C1[X(C2H3BrO)]
 Deg. of freedom    15
 Full point group                 C1      NOp   1
 Largest Abelian subgroup         C1      NOp   1
 Largest concise Abelian subgroup C1      NOp   1
                         Standard orientation:                         
 ---------------------------------------------------------------------
 Center     Atomic      Atomic             Coordinates (Angstroms)
 Number     Number       Type             X           Y           Z
 ---------------------------------------------------------------------
      1          6           0        0.985830    0.236189   -0.019860
      2          6           0        1.766441   -1.053326    0.003275
      3          1           0        1.483497   -1.635639    0.885553
      4          1           0        1.513734   -1.646910   -0.880515
      5          1           0        2.833508   -0.821889    0.020229
      6          8           0        1.431423    1.340855    0.006064
      7         35           0       -0.965593   -0.049131    0.000735
 ---------------------------------------------------------------------
 Rotational constants (GHZ):     10.1148032      2.9992413      2.3472006
 Basis read from rwf:  (5D, 7F)
 Pseudo-potential data read from rwf file.
 There are    87 symmetry adapted basis functions of A   symmetry.
 Integral buffers will be    262144 words long.
 Raffenetti 2 integral format.
 Two-electron integral symmetry is turned on.
    87 basis functions,   171 primitive gaussians,    92 cartesian basis functions
    29 alpha electrons       29 beta electrons
       nuclear repulsion energy       227.7521342413 Hartrees.
 NAtoms=    7 NActive=    7 NUniq=    7 SFac= 7.50D-01 NAtFMM=   80 NAOKFM=F Big=F
 One-electron integrals computed using PRISM.
   1 Symmetry operations used in ECPInt.
 ECPInt:  NShTT=     528 NPrTT=    2784 LenC2=     523 LenP2D=    2159.
 LDataN:  DoStor=T MaxTD1= 4 Len=   56
 NBasis=    87 RedAO= T  NBF=    87
 NBsUse=    87 1.00D-06 NBFU=    87
 Initial guess read from the read-write file.
 B after Tr=     0.000000    0.000000    0.000000
         Rot=    1.000000    0.000000    0.000000    0.000000 Ang=   0.00 deg.
 Initial guess orbital symmetries:
       Occupied  (A) (A) (A) (A) (A) (A) (A) (A) (A) (A) (A) (A)
                 (A) (A) (A) (A) (A) (A) (A) (A) (A) (A) (A) (A)
                 (A) (A) (A) (A) (A)
       Virtual   (A) (A) (A) (A) (A) (A) (A) (A) (A) (A) (A) (A)
                 (A) (A) (A) (A) (A) (A) (A) (A) (A) (A) (A) (A)
                 (A) (A) (A) (A) (A) (A) (A) (A) (A) (A) (A) (A)
                 (A) (A) (A) (A) (A) (A) (A) (A) (A) (A) (A) (A)
                 (A) (A) (A) (A) (A) (A) (A) (A) (A) (A)
 Harris functional with IExCor=  402 diagonalized for initial guess.
 ExpMin= 4.38D-02 ExpMax= 6.10D+03 ExpMxC= 6.10D+03 IAcc=2 IRadAn=         0 AccDes= 0.00D+00
 HarFok:  IExCor=  402 AccDes= 0.00D+00 IRadAn=         0 IDoV= 1
 ScaDFX=  1.000000  1.000000  1.000000  1.000000
 FoFCou: FMM=F IPFlag=           0 FMFlag=      100000 FMFlg1=           0
         NFxFlg=           0 DoJE=T BraDBF=F KetDBF=T FulRan=T
         Omega=  0.000000  0.000000  1.000000  0.000000  0.000000 ICntrl=     500 IOpCl=  0
         NMat0=    1 NMatS0=    1 NMatT0=    0 NMatD0=    1 NMtDS0=    0 NMtDT0=    0
         I1Cent=           4 NGrid=           0.
 Petite list used in FoFCou.
 Requested convergence on RMS density matrix=1.00D-08 within 128 cycles.
 Requested convergence on MAX density matrix=1.00D-06.
 Requested convergence on             energy=1.00D-06.
 No special actions if energy rises.
 Keep R1 ints in memory in canonical form, NReq=10168917.
 SCF Done:  E(RB3LYP) =  -2715.27327305     A.U. after   13 cycles
             Convg  =    0.6569D-08             -V/T =  2.0004
   1 Symmetry operations used in ECPInt.
 ECPInt:  NShTT=     528 NPrTT=    2784 LenC2=     523 LenP2D=    2159.
 LDataN:  DoStor=T MaxTD1= 5 Len=  102
 Calling FoFJK, ICntrl=      2127 FMM=F ISym2X=0 I1Cent= 0 IOpClX= 0 NMat=1 NMatS=1 NMatT=0.
 ***** Axes restored to original set *****
 -------------------------------------------------------------------
 Center     Atomic                   Forces (Hartrees/Bohr)
 Number     Number              X              Y              Z
 -------------------------------------------------------------------
      1        6           0.000975323   -0.000202835    0.006175536
      2        6          -0.001915212    0.002103699   -0.002163291
      3        1           0.000184873   -0.000074686    0.000119331
      4        1           0.000543078   -0.000889736   -0.000161903
      5        1           0.000613746   -0.000438630   -0.000133786
      6        8          -0.000119775   -0.000271479   -0.002438042
      7       35          -0.000282034   -0.000226333   -0.001397844
 -------------------------------------------------------------------
 Cartesian Forces:  Max     0.006175536 RMS     0.001715110

 GradGradGradGradGradGradGradGradGradGradGradGradGradGradGradGradGradGrad
 Berny optimization.
 Using GEDIIS/GDIIS optimizer.
 Internal  Forces:  Max     0.001710611 RMS     0.000947386
 Search for a local minimum.
 Step number   4 out of a maximum of   31
 All quantities printed in internal units (Hartrees-Bohrs-Radians)
 Mixed Optimization -- En-DIIS/RFO-DIIS
 Swaping is turned off.
 Update second derivatives using D2CorX and points    1    2    3    4
 DE=  1.28D-04 DEPred=-4.62D-05 R=-2.77D+00
 Trust test=-2.77D+00 RLast= 8.77D-02 DXMaxT set to 1.50D-01
     Eigenvalues ---    0.01011   0.03752   0.06556   0.07725   0.07873
     Eigenvalues ---    0.14752   0.16025   0.16479   0.21963   0.25100
     Eigenvalues ---    0.30696   0.33184   0.33378   0.34435   1.09451
     Eigenvalues --- 1000.000001000.000001000.000001000.000001000.00000
     Eigenvalues --- 1000.00000
 En-DIIS/RFO-DIIS IScMMF=        0 using points:     4    3
 RFO step:  Lambda=-7.12998121D-05.
 DIIS coeffs:      0.20728      0.79272
 Iteration  1 RMS(Cart)=  0.01258212 RMS(Int)=  0.00018954
 Iteration  2 RMS(Cart)=  0.00022480 RMS(Int)=  0.00003364
 Iteration  3 RMS(Cart)=  0.00000001 RMS(Int)=  0.00003364
 Variable       Old X    -DE/DX   Delta X   Delta X   Delta X     New X
                                  (DIIS)     (GDIIS)  (Total)
    R1        2.84887  -0.00091  -0.00601   0.00185  -0.00416   2.84471
    R2        2.25148  -0.00034  -0.00144   0.00059  -0.00085   2.25063
    R3        3.72707   0.00027   0.00708  -0.00338   0.00370   3.73076
    R4        2.06799   0.00009   0.00042   0.00011   0.00052   2.06851
    R5        2.06775   0.00048   0.00063   0.00012   0.00075   2.06850
    R6        2.06360   0.00051   0.00113   0.00039   0.00152   2.06512
    A1        2.21315   0.00027   0.00583  -0.00285   0.00307   2.21622
    A2        1.96971  -0.00030  -0.00407   0.00171  -0.00227   1.96744
    A3        2.09896   0.00018  -0.00074   0.00121   0.00057   2.09952
    A4        1.91097  -0.00015   0.00184   0.00061   0.00245   1.91341
    A5        1.90926   0.00128   0.00357   0.00071   0.00428   1.91354
    A6        1.90173   0.00055   0.00490  -0.00081   0.00410   1.90583
    A7        1.87844  -0.00045  -0.00240  -0.00008  -0.00248   1.87595
    A8        1.93147  -0.00039  -0.00384  -0.00019  -0.00403   1.92745
    A9        1.93177  -0.00084  -0.00408  -0.00020  -0.00428   1.92749
    D1        2.08712   0.00135   0.02609   0.00055   0.02663   2.11376
    D2       -2.14149   0.00147   0.02635   0.00122   0.02757  -2.11392
    D3       -0.02752   0.00157   0.02660   0.00091   0.02751  -0.00001
    D4       -0.99800  -0.00171  -0.02930  -0.00109  -0.03039  -1.02838
    D5        1.05658  -0.00159  -0.02904  -0.00041  -0.02945   1.02713
    D6       -3.11264  -0.00149  -0.02878  -0.00072  -0.02951   3.14103
         Item               Value     Threshold  Converged?
 Maximum Force            0.001711     0.000450     NO 
 RMS     Force            0.000947     0.000300     NO 
 Maximum Displacement     0.036270     0.001800     NO 
 RMS     Displacement     0.012611     0.001200     NO 
 Predicted change in Energy=-1.419387D-04
 GradGradGradGradGradGradGradGradGradGradGradGradGradGradGradGradGradGrad

                          Input orientation:                          
 ---------------------------------------------------------------------
 Center     Atomic      Atomic             Coordinates (Angstroms)
 Number     Number       Type             X           Y           Z
 ---------------------------------------------------------------------
      1          6           0        0.996233    0.219855    0.000168
      2          6           0        1.741542   -1.088048   -0.000084
      3          1           0        1.461255   -1.671195    0.882835
      4          1           0        1.460301   -1.671540   -0.882463
      5          1           0        2.816122   -0.889256   -0.000675
      6          8           0        1.468148    1.313352   -0.000189
      7         35           0       -0.963494   -0.019050    0.000214
 ---------------------------------------------------------------------
                    Distance matrix (angstroms):
                    1          2          3          4          5
     1  C    0.000000
     2  C    1.505356   0.000000
     3  H    2.138087   1.094609   0.000000
     4  H    2.138170   1.094601   1.765299   0.000000
     5  H    2.131226   1.092813   1.796575   1.796599   0.000000
     6  O    1.190983   2.416913   3.112443   3.112563   2.582347
     7  Br   1.974235   2.908604   3.063986   3.063433   3.878499
                    6          7
     6  O    0.000000
     7  Br   2.772756   0.000000
 Stoichiometry    C2H3BrO
 Framework group  C1[X(C2H3BrO)]
 Deg. of freedom    15
 Full point group                 C1      NOp   1
 Largest Abelian subgroup         C1      NOp   1
 Largest concise Abelian subgroup C1      NOp   1
                         Standard orientation:                         
 ---------------------------------------------------------------------
 Center     Atomic      Atomic             Coordinates (Angstroms)
 Number     Number       Type             X           Y           Z
 ---------------------------------------------------------------------
      1          6           0        0.987727    0.236249    0.000061
      2          6           0        1.763559   -1.053783   -0.000191
      3          1           0        1.497050   -1.643354    0.882729
      4          1           0        1.496104   -1.643721   -0.882570
      5          1           0        2.833172   -0.829799   -0.000781
      6          8           0        1.433821    1.340531   -0.000296
      7         35           0       -0.965846   -0.048633    0.000108
 ---------------------------------------------------------------------
 Rotational constants (GHZ):     10.1124746      2.9983101      2.3463466
 Basis read from rwf:  (5D, 7F)
 Pseudo-potential data read from rwf file.
 There are    87 symmetry adapted basis functions of A   symmetry.
 Integral buffers will be    262144 words long.
 Raffenetti 2 integral format.
 Two-electron integral symmetry is turned on.
    87 basis functions,   171 primitive gaussians,    92 cartesian basis functions
    29 alpha electrons       29 beta electrons
       nuclear repulsion energy       227.7056515125 Hartrees.
 NAtoms=    7 NActive=    7 NUniq=    7 SFac= 7.50D-01 NAtFMM=   80 NAOKFM=F Big=F
 One-electron integrals computed using PRISM.
   1 Symmetry operations used in ECPInt.
 ECPInt:  NShTT=     528 NPrTT=    2784 LenC2=     523 LenP2D=    2159.
 LDataN:  DoStor=T MaxTD1= 4 Len=   56
 NBasis=    87 RedAO= T  NBF=    87
 NBsUse=    87 1.00D-06 NBFU=    87
 Initial guess read from the read-write file.
 B after Tr=     0.000000    0.000000    0.000000
         Rot=    1.000000    0.000000    0.000000    0.000000 Ang=   0.00 deg.
 Initial guess orbital symmetries:
       Occupied  (A) (A) (A) (A) (A) (A) (A) (A) (A) (A) (A) (A)
                 (A) (A) (A) (A) (A) (A) (A) (A) (A) (A) (A) (A)
                 (A) (A) (A) (A) (A)
       Virtual   (A) (A) (A) (A) (A) (A) (A) (A) (A) (A) (A) (A)
                 (A) (A) (A) (A) (A) (A) (A) (A) (A) (A) (A) (A)
                 (A) (A) (A) (A) (A) (A) (A) (A) (A) (A) (A) (A)
                 (A) (A) (A) (A) (A) (A) (A) (A) (A) (A) (A) (A)
                 (A) (A) (A) (A) (A) (A) (A) (A) (A) (A)
 Harris functional with IExCor=  402 diagonalized for initial guess.
 ExpMin= 4.38D-02 ExpMax= 6.10D+03 ExpMxC= 6.10D+03 IAcc=2 IRadAn=         0 AccDes= 0.00D+00
 HarFok:  IExCor=  402 AccDes= 0.00D+00 IRadAn=         0 IDoV= 1
 ScaDFX=  1.000000  1.000000  1.000000  1.000000
 FoFCou: FMM=F IPFlag=           0 FMFlag=      100000 FMFlg1=           0
         NFxFlg=           0 DoJE=T BraDBF=F KetDBF=T FulRan=T
         Omega=  0.000000  0.000000  1.000000  0.000000  0.000000 ICntrl=     500 IOpCl=  0
         NMat0=    1 NMatS0=    1 NMatT0=    0 NMatD0=    1 NMtDS0=    0 NMtDT0=    0
         I1Cent=           4 NGrid=           0.
 Petite list used in FoFCou.
 Requested convergence on RMS density matrix=1.00D-08 within 128 cycles.
 Requested convergence on MAX density matrix=1.00D-06.
 Requested convergence on             energy=1.00D-06.
 No special actions if energy rises.
 Keep R1 ints in memory in canonical form, NReq=10168917.
 SCF Done:  E(RB3LYP) =  -2715.27341409     A.U. after   10 cycles
             Convg  =    0.2820D-08             -V/T =  2.0004
   1 Symmetry operations used in ECPInt.
 ECPInt:  NShTT=     528 NPrTT=    2784 LenC2=     523 LenP2D=    2159.
 LDataN:  DoStor=T MaxTD1= 5 Len=  102
 Calling FoFJK, ICntrl=      2127 FMM=F ISym2X=0 I1Cent= 0 IOpClX= 0 NMat=1 NMatS=1 NMatT=0.
 ***** Axes restored to original set *****
 -------------------------------------------------------------------
 Center     Atomic                   Forces (Hartrees/Bohr)
 Number     Number              X              Y              Z
 -------------------------------------------------------------------
      1        6          -0.000165291   -0.000209568   -0.000065469
      2        6          -0.000342293    0.000534458    0.000027279
      3        1           0.000096614   -0.000134457    0.000070445
      4        1           0.000092135   -0.000124104   -0.000072495
      5        1           0.000114580   -0.000060806    0.000000877
      6        8           0.000116653    0.000059336    0.000024691
      7       35           0.000087602   -0.000064859    0.000014672
 -------------------------------------------------------------------
 Cartesian Forces:  Max     0.000534458 RMS     0.000167227

 GradGradGradGradGradGradGradGradGradGradGradGradGradGradGradGradGradGrad
 Berny optimization.
 Using GEDIIS/GDIIS optimizer.
 Internal  Forces:  Max     0.000198083 RMS     0.000102055
 Search for a local minimum.
 Step number   5 out of a maximum of   31
 All quantities printed in internal units (Hartrees-Bohrs-Radians)
 Mixed Optimization -- En-DIIS/RFO-DIIS
 Swaping is turned off.
 Update second derivatives using D2CorX and points    1    2    3    4    5
 DE= -1.41D-04 DEPred=-1.42D-04 R= 9.94D-01
 SS=  1.41D+00  RLast= 7.08D-02 DXNew= 2.5227D-01 2.1254D-01
 Trust test= 9.94D-01 RLast= 7.08D-02 DXMaxT set to 2.13D-01
     Eigenvalues ---    0.01011   0.05215   0.07639   0.07677   0.10467
     Eigenvalues ---    0.14965   0.15895   0.16484   0.20671   0.24964
     Eigenvalues ---    0.32079   0.33186   0.33301   0.34155   1.08709
     Eigenvalues --- 1000.000001000.000001000.000001000.000001000.00000
     Eigenvalues --- 1000.00000
 En-DIIS/RFO-DIIS IScMMF=        0 using points:     5    4    3
 RFO step:  Lambda=-4.76513948D-07.
 DIIS coeffs:      1.09984     -0.02039     -0.07946
 Iteration  1 RMS(Cart)=  0.00046629 RMS(Int)=  0.00000431
 Iteration  2 RMS(Cart)=  0.00000037 RMS(Int)=  0.00000429
 Variable       Old X    -DE/DX   Delta X   Delta X   Delta X     New X
                                  (DIIS)     (GDIIS)  (Total)
    R1        2.84471  -0.00020   0.00019  -0.00085  -0.00066   2.84405
    R2        2.25063   0.00011   0.00006   0.00004   0.00010   2.25073
    R3        3.73076  -0.00009  -0.00034  -0.00034  -0.00068   3.73008
    R4        2.06851   0.00011   0.00001   0.00033   0.00034   2.06885
    R5        2.06850   0.00011   0.00001   0.00033   0.00034   2.06883
    R6        2.06512   0.00009   0.00004   0.00027   0.00030   2.06542
    A1        2.21622  -0.00012  -0.00028  -0.00021  -0.00050   2.21571
    A2        1.96744  -0.00001   0.00018  -0.00023  -0.00006   1.96738
    A3        2.09952   0.00013   0.00013   0.00045   0.00056   2.10009
    A4        1.91341   0.00015   0.00006   0.00098   0.00104   1.91446
    A5        1.91354   0.00013   0.00007   0.00092   0.00098   1.91452
    A6        1.90583   0.00008  -0.00008   0.00056   0.00048   1.90631
    A7        1.87595  -0.00010  -0.00001  -0.00045  -0.00046   1.87549
    A8        1.92745  -0.00013  -0.00002  -0.00099  -0.00101   1.92643
    A9        1.92749  -0.00013  -0.00002  -0.00100  -0.00102   1.92647
    D1        2.11376  -0.00004   0.00004  -0.00055  -0.00051   2.11325
    D2       -2.11392   0.00001   0.00011   0.00002   0.00013  -2.11378
    D3       -0.00001  -0.00002   0.00008  -0.00029  -0.00021  -0.00022
    D4       -1.02838  -0.00001  -0.00010   0.00007  -0.00003  -1.02841
    D5        1.02713   0.00004  -0.00003   0.00064   0.00061   1.02774
    D6        3.14103   0.00001  -0.00006   0.00033   0.00027   3.14130
         Item               Value     Threshold  Converged?
 Maximum Force            0.000198     0.000450     YES
 RMS     Force            0.000102     0.000300     YES
 Maximum Displacement     0.000948     0.001800     YES
 RMS     Displacement     0.000466     0.001200     YES
 Predicted change in Energy=-5.496893D-07
 Optimization completed.
    -- Stationary point found.
                           ----------------------------
                           !   Optimized Parameters   !
                           ! (Angstroms and Degrees)  !
 --------------------------                            --------------------------
 ! Name  Definition              Value          Derivative Info.                !
 --------------------------------------------------------------------------------
 ! R1    R(1,2)                  1.5054         -DE/DX =   -0.0002              !
 ! R2    R(1,6)                  1.191          -DE/DX =    0.0001              !
 ! R3    R(1,7)                  1.9742         -DE/DX =   -0.0001              !
 ! R4    R(2,3)                  1.0946         -DE/DX =    0.0001              !
 ! R5    R(2,4)                  1.0946         -DE/DX =    0.0001              !
 ! R6    R(2,5)                  1.0928         -DE/DX =    0.0001              !
 ! A1    A(2,1,6)              126.98           -DE/DX =   -0.0001              !
 ! A2    A(2,1,7)              112.7262         -DE/DX =    0.0                 !
 ! A3    A(6,1,7)              120.2938         -DE/DX =    0.0001              !
 ! A4    A(1,2,3)              109.6305         -DE/DX =    0.0001              !
 ! A5    A(1,2,4)              109.6375         -DE/DX =    0.0001              !
 ! A6    A(1,2,5)              109.1957         -DE/DX =    0.0001              !
 ! A7    A(3,2,4)              107.4843         -DE/DX =   -0.0001              !
 ! A8    A(3,2,5)              110.4345         -DE/DX =   -0.0001              !
 ! A9    A(4,2,5)              110.4373         -DE/DX =   -0.0001              !
 ! D1    D(6,1,2,3)            121.1094         -DE/DX =    0.0                 !
 ! D2    D(6,1,2,4)           -121.1186         -DE/DX =    0.0                 !
 ! D3    D(6,1,2,5)             -0.0007         -DE/DX =    0.0                 !
 ! D4    D(7,1,2,3)            -58.9219         -DE/DX =    0.0                 !
 ! D5    D(7,1,2,4)             58.8502         -DE/DX =    0.0                 !
 ! D6    D(7,1,2,5)            179.968          -DE/DX =    0.0                 !
 --------------------------------------------------------------------------------
 GradGradGradGradGradGradGradGradGradGradGradGradGradGradGradGradGradGrad

                          Input orientation:                          
 ---------------------------------------------------------------------
 Center     Atomic      Atomic             Coordinates (Angstroms)
 Number     Number       Type             X           Y           Z
 ---------------------------------------------------------------------
      1          6           0        0.996233    0.219855    0.000168
      2          6           0        1.741542   -1.088048   -0.000084
      3          1           0        1.461255   -1.671195    0.882835
      4          1           0        1.460301   -1.671540   -0.882463
      5          1           0        2.816122   -0.889256   -0.000675
      6          8           0        1.468148    1.313352   -0.000189
      7         35           0       -0.963494   -0.019050    0.000214
 ---------------------------------------------------------------------
                    Distance matrix (angstroms):
                    1          2          3          4          5
     1  C    0.000000
     2  C    1.505356   0.000000
     3  H    2.138087   1.094609   0.000000
     4  H    2.138170   1.094601   1.765299   0.000000
     5  H    2.131226   1.092813   1.796575   1.796599   0.000000
     6  O    1.190983   2.416913   3.112443   3.112563   2.582347
     7  Br   1.974235   2.908604   3.063986   3.063433   3.878499
                    6          7
     6  O    0.000000
     7  Br   2.772756   0.000000
 Stoichiometry    C2H3BrO
 Framework group  C1[X(C2H3BrO)]
 Deg. of freedom    15
 Full point group                 C1      NOp   1
 Largest Abelian subgroup         C1      NOp   1
 Largest concise Abelian subgroup C1      NOp   1
                         Standard orientation:                         
 ---------------------------------------------------------------------
 Center     Atomic      Atomic             Coordinates (Angstroms)
 Number     Number       Type             X           Y           Z
 ---------------------------------------------------------------------
      1          6           0        0.987727    0.236249    0.000061
      2          6           0        1.763559   -1.053783   -0.000191
      3          1           0        1.497050   -1.643354    0.882729
      4          1           0        1.496104   -1.643721   -0.882570
      5          1           0        2.833172   -0.829799   -0.000781
      6          8           0        1.433821    1.340531   -0.000296
      7         35           0       -0.965846   -0.048633    0.000108
 ---------------------------------------------------------------------
 Rotational constants (GHZ):     10.1124746      2.9983101      2.3463466

 **********************************************************************

            Population analysis using the SCF density.

 **********************************************************************

 Orbital symmetries:
       Occupied  (A) (A) (A) (A) (A) (A) (A) (A) (A) (A) (A) (A)
                 (A) (A) (A) (A) (A) (A) (A) (A) (A) (A) (A) (A)
                 (A) (A) (A) (A) (A)
       Virtual   (A) (A) (A) (A) (A) (A) (A) (A) (A) (A) (A) (A)
                 (A) (A) (A) (A) (A) (A) (A) (A) (A) (A) (A) (A)
                 (A) (A) (A) (A) (A) (A) (A) (A) (A) (A) (A) (A)
                 (A) (A) (A) (A) (A) (A) (A) (A) (A) (A) (A) (A)
                 (A) (A) (A) (A) (A) (A) (A) (A) (A) (A)
 The electronic state is 1-A.
 Alpha  occ. eigenvalues -- -479.88131 -62.41144 -56.02309 -56.01960 -56.01943
 Alpha  occ. eigenvalues --  -19.19658 -10.34435 -10.22193  -8.77791  -6.56801
 Alpha  occ. eigenvalues --   -6.55711  -6.55576  -2.68198  -2.67813  -2.67750
 Alpha  occ. eigenvalues --   -2.66816  -2.66812  -1.10476  -0.81560  -0.76298
 Alpha  occ. eigenvalues --   -0.56678  -0.49476  -0.48205  -0.48034  -0.42207
 Alpha  occ. eigenvalues --   -0.40822  -0.30495  -0.30180  -0.29043
 Alpha virt. eigenvalues --   -0.05083  -0.01435   0.00386   0.03853   0.04693
 Alpha virt. eigenvalues --    0.05202   0.08463   0.08634   0.09070   0.12009
 Alpha virt. eigenvalues --    0.15713   0.16657   0.22947   0.24285   0.24399
 Alpha virt. eigenvalues --    0.26528   0.27936   0.28343   0.39350   0.50360
 Alpha virt. eigenvalues --    0.53832   0.55476   0.56683   0.57513   0.63529
 Alpha virt. eigenvalues --    0.65457   0.66082   0.67737   0.72980   0.75263
 Alpha virt. eigenvalues --    0.76141   0.79771   0.89805   0.93862   0.95609
 Alpha virt. eigenvalues --    0.99938   1.05477   1.07989   1.19867   1.24789
 Alpha virt. eigenvalues --    1.26437   1.36472   1.38100   1.53719   1.68551
 Alpha virt. eigenvalues --    1.73178   1.78947   1.80115   1.88127   2.04383
 Alpha virt. eigenvalues --    2.07678   2.17131   2.28891   2.37943   2.52607
 Alpha virt. eigenvalues --    2.57195   2.83417   3.09825
          Condensed to atoms (all electrons):
              1          2          3          4          5          6
     1  C    5.370839  -0.424488  -0.055734  -0.055776   0.037418   0.405358
     2  C   -0.424488   6.296697   0.391310   0.391371   0.301332  -0.082002
     3  H   -0.055734   0.391310   0.464367  -0.022373  -0.023563   0.001929
     4  H   -0.055776   0.391371  -0.022373   0.464345  -0.023564   0.001928
     5  H    0.037418   0.301332  -0.023563  -0.023564   0.473541  -0.005931
     6  O    0.405358  -0.082002   0.001929   0.001928  -0.005931   8.072169
     7  Br   0.417998  -0.168595  -0.002164  -0.002169   0.003685  -0.117444
              7
     1  C    0.417998
     2  C   -0.168595
     3  H   -0.002164
     4  H   -0.002169
     5  H    0.003685
     6  O   -0.117444
     7  Br  34.920991
 Mulliken atomic charges:
              1
     1  C    0.304385
     2  C   -0.705624
     3  H    0.246228
     4  H    0.246238
     5  H    0.237082
     6  O   -0.276008
     7  Br  -0.052302
 Sum of Mulliken atomic charges =   0.00000
 Mulliken charges with hydrogens summed into heavy atoms:
              1
     1  C    0.304385
     2  C    0.023924
     6  O   -0.276008
     7  Br  -0.052302
 Sum of Mulliken charges with hydrogens summed into heavy atoms =   0.00000
 Electronic spatial extent (au):  <R**2>=            491.7644
 Charge=              0.0000 electrons
 Dipole moment (field-independent basis, Debye):
    X=              0.9019    Y=             -2.7004    Z=              0.0002  Tot=              2.8470
 Quadrupole moment (field-independent basis, Debye-Ang):
   XX=            -33.9652   YY=            -38.3994   ZZ=            -35.6340
   XY=             -4.1636   XZ=              0.0008   YZ=              0.0010
 Traceless Quadrupole moment (field-independent basis, Debye-Ang):
   XX=              2.0344   YY=             -2.3999   ZZ=              0.3655
   XY=             -4.1636   XZ=              0.0008   YZ=              0.0010
 Octapole moment (field-independent basis, Debye-Ang**2):
  XXX=            -26.9855  YYY=             -4.4266  ZZZ=              0.0025  XYY=            -10.7048
  XXY=             -6.9820  XXZ=              0.0004  XZZ=             -7.3422  YZZ=             -0.4056
  YYZ=              0.0006  XYZ=              0.0008
 Hexadecapole moment (field-independent basis, Debye-Ang**3):
 XXXX=           -360.5801 YYYY=           -168.7139 ZZZZ=            -46.4126 XXXY=             -4.0170
 XXXZ=              0.0146 YYYX=             -0.8738 YYYZ=              0.0049 ZZZX=              0.0219
 ZZZY=              0.0009 XXYY=            -96.6432 XXZZ=            -71.6617 YYZZ=            -32.6058
 XXYZ=              0.0019 YYXZ=              0.0086 ZZXY=              1.2494
 N-N= 2.277056515125D+02 E-N=-6.940122970332D+03  KE= 2.714208119870D+03
 1|1|UNPC-LAWALM-PC|FOpt|RB3LYP|Gen|C2H3Br1O1|LAWALM|25-Feb-2015|0||# o
 pt freq b3lyp/gen geom=connectivity gfinput pseudo=read||BrAc-6-31+g(d
 )/midix||0,1|C,0.9962327242,0.2198548279,0.0001678506|C,1.7415420419,-
 1.0880482474,-0.0000843155|H,1.4612547038,-1.6711951397,0.882835225|H,
 1.4603006918,-1.6715396569,-0.8824630318|H,2.8161216231,-0.8892562685,
 -0.000674574|O,1.4681475349,1.3133517965,-0.0001892988|Br,-0.963494319
 8,-0.0190503118,0.0002141445||Version=IA32W-G09RevA.02|State=1-A|HF=-2
 715.2734141|RMSD=2.820e-009|RMSF=1.672e-004|Dipole=0.329758,-1.0704666
 ,0.0000754|Quadrupole=1.3652669,-1.6370373,0.2717703,-3.1695495,0.0006
 391,0.000727|PG=C01 [X(C2H3Br1O1)]||@


 SLITHERY-DITHERY
 FRIEDRICH A. KEKULE
 DREAMT ON A BUS OF THINGS
 FREUD WOULD THINK KEEN.
 MOST OF THE TIME THEY WERE
 HERPETOLOGICAL
 BITING THEIR TAILS IN THE
 SHAPE OF BENZENE.
 Job cpu time:  0 days  0 hours  1 minutes 58.0 seconds.
 File lengths (MBytes):  RWF=      9 Int=      0 D2E=      0 Chk=      1 Scr=      1
 Normal termination of Gaussian 09 at Wed Feb 25 12:10:15 2015.
 Link1:  Proceeding to internal job step number  2.
 ------------------------------------------------------------------
 #N Geom=AllCheck Guess=TCheck SCRF=Check GenChk RB3LYP/ChkBas Freq
 ------------------------------------------------------------------
 1/10=4,29=7,30=1,38=1,40=1/1,3;
 2/12=2,40=1/2;
 3/5=7,6=2,11=2,14=-4,16=1,17=8,24=10,25=1,30=1,67=1,70=2,71=2,74=-5,82=7,116=1/1,2,3;
 4/5=101/1;
 5/5=2,98=1/2;
 8/6=4,10=90,11=11/1;
 11/6=1,8=1,9=11,15=111,16=1/1,2,10;
 10/6=1/2;
 6/7=2,8=2,9=2,10=2,18=1,28=1/1;
 7/8=1,10=1,25=1/1,2,3,16;
 1/10=4,30=1/3;
 99//99;
 --------------------
 gen calculation BrAc-C H O=6-31+g(d)/Br=midix
 --------------------
 Redundant internal coordinates taken from checkpoint file:
 C:\Users\LawalM\Desktop\RCOBr\bac.chk
 Charge =  0 Multiplicity = 1
 C,0,0.9962327242,0.2198548279,0.0001678506
 C,0,1.7415420419,-1.0880482474,-0.0000843155
 H,0,1.4612547038,-1.6711951397,0.882835225
 H,0,1.4603006918,-1.6715396569,-0.8824630318
 H,0,2.8161216231,-0.8892562685,-0.000674574
 O,0,1.4681475349,1.3133517965,-0.0001892988
 Br,0,-0.9634943198,-0.0190503118,0.0002141445
 Recover connectivity data from disk.

 GradGradGradGradGradGradGradGradGradGradGradGradGradGradGradGradGradGrad
 Berny optimization.
 Initialization pass.
                           ----------------------------
                           !    Initial Parameters    !
                           ! (Angstroms and Degrees)  !
[...]
     2   6     0.00   0.00  -0.01     0.34   0.01   0.00     0.07   0.15   0.00
     3   1     0.40   0.30   0.32     0.55  -0.07   0.01    -0.08   0.22   0.00
     4   1    -0.40  -0.30   0.32     0.55  -0.07  -0.01    -0.08   0.22   0.00
     5   1     0.00   0.00  -0.54     0.27   0.38   0.00     0.12  -0.08   0.00
     6   8     0.00   0.00   0.05    -0.03  -0.13   0.00     0.75   0.12   0.00
     7  35     0.00   0.00  -0.01    -0.07   0.04   0.00    -0.22  -0.10   0.00
                     4                      5                      6
                     A                      A                      A
 Frequencies --   506.3934               589.0762               962.1836
 Red. masses --     3.1042                 4.0734                 2.7740
 Frc consts  --     0.4690                 0.8328                 1.5131
 IR Inten    --     0.4721                94.2799                65.5266
  Atom  AN      X      Y      Z        X      Y      Z        X      Y      Z
     1   6     0.00   0.00   0.40     0.31   0.02   0.00     0.20  -0.15   0.00
     2   6     0.00   0.00  -0.02     0.12  -0.26   0.00    -0.01   0.26   0.00
     3   1     0.35  -0.41  -0.19    -0.18  -0.13  -0.01    -0.48   0.38  -0.06
     4   1    -0.35   0.41  -0.19    -0.19  -0.13   0.01    -0.48   0.38   0.06
     5   1     0.00   0.00  -0.41     0.23  -0.77   0.00     0.10  -0.30   0.00
     6   8     0.00   0.00  -0.15    -0.16   0.20   0.00    -0.07  -0.13   0.00
     7  35     0.00   0.00  -0.02    -0.03   0.01   0.00     0.00   0.00   0.00
                     7                      8                      9
                     A                      A                      A
 Frequencies --  1051.8528              1124.2461              1410.8544
 Red. masses --     1.5639                 1.9840                 1.2407
 Frc consts  --     1.0194                 1.4775                 1.4551
 IR Inten    --     1.6043               137.9940                23.6575
  Atom  AN      X      Y      Z        X      Y      Z        X      Y      Z
     1   6     0.00   0.00  -0.16     0.22  -0.07   0.00     0.02  -0.01   0.00
     2   6     0.00   0.00   0.16    -0.18  -0.02   0.00    -0.07   0.12   0.00
     3   1     0.27  -0.56  -0.15     0.32  -0.05   0.11     0.32  -0.45  -0.25
     4   1    -0.27   0.56  -0.15     0.32  -0.05  -0.11     0.32  -0.45   0.25
     5   1     0.00   0.00  -0.36    -0.33   0.75   0.00     0.06  -0.49   0.00
     6   8     0.00   0.00   0.03    -0.03   0.02   0.00     0.00   0.00   0.00
     7  35     0.00   0.00   0.00     0.00   0.00   0.00     0.00   0.00   0.00
                    10                     11                     12
                     A                      A                      A
 Frequencies --  1486.8733              1487.9268              1881.9391
 Red. masses --     1.0484                 1.0448                11.9758
 Frc consts  --     1.3656                 1.3629                24.9899
 IR Inten    --    13.7203                14.8771               370.1762
  Atom  AN      X      Y      Z        X      Y      Z        X      Y      Z
     1   6    -0.01   0.01   0.00     0.00   0.00   0.02     0.22   0.75   0.00
     2   6    -0.05  -0.01   0.00     0.00   0.00   0.05     0.01  -0.06   0.00
     3   1     0.37   0.35   0.36    -0.48   0.07  -0.06     0.04  -0.18  -0.09
     4   1     0.37   0.35  -0.36     0.48  -0.07  -0.06     0.04  -0.18   0.09
     5   1     0.06  -0.46   0.00     0.00   0.00  -0.72    -0.01   0.16   0.00
     6   8     0.00  -0.02   0.00     0.00   0.00   0.00    -0.20  -0.50   0.00
     7  35     0.00   0.00   0.00     0.00   0.00   0.00     0.00   0.00   0.00
                    13                     14                     15
                     A                      A                      A
 Frequencies --  3070.2147              3142.6440              3166.7418
 Red. masses --     1.0331                 1.1008                 1.1063
 Frc consts  --     5.7379                 6.4057                 6.5367
 IR Inten    --     1.0399                 0.3604                 6.4995
  Atom  AN      X      Y      Z        X      Y      Z        X      Y      Z
     1   6     0.00   0.00   0.00     0.00   0.00   0.00     0.00   0.00   0.00
     2   6    -0.02   0.04   0.00     0.00   0.00   0.09    -0.08  -0.05   0.00
     3   1    -0.15  -0.31   0.49     0.18   0.39  -0.56     0.08   0.19  -0.31
     4   1    -0.15  -0.31  -0.48    -0.18  -0.39  -0.56     0.08   0.20   0.31
     5   1     0.52   0.12   0.00     0.00   0.00   0.01     0.82   0.17   0.00
     6   8     0.00   0.00   0.00     0.00   0.00   0.00     0.00   0.00   0.00
     7  35     0.00   0.00   0.00     0.00   0.00   0.00     0.00   0.00   0.00

 -------------------
 - Thermochemistry -
 -------------------
 Temperature   298.150 Kelvin.  Pressure   1.00000 Atm.
 Atom     1 has atomic number  6 and mass  12.00000
 Atom     2 has atomic number  6 and mass  12.00000
 Atom     3 has atomic number  1 and mass   1.00783
 Atom     4 has atomic number  1 and mass   1.00783
 Atom     5 has atomic number  1 and mass   1.00783
 Atom     6 has atomic number  8 and mass  15.99491
 Atom     7 has atomic number 35 and mass  78.91834
 Molecular mass:   121.93673 amu.
 Principal axes and moments of inertia in atomic units:
                           1         2         3
     Eigenvalues --   178.46682 601.91947 769.17078
           X            0.99768  -0.06807   0.00011
           Y            0.06807   0.99768   0.00005
           Z           -0.00012  -0.00005   1.00000
 This molecule is an asymmetric top.
 Rotational symmetry number  1.
 Rotational temperatures (Kelvin)      0.48532     0.14390     0.11261
 Rotational constants (GHZ):          10.11247     2.99831     2.34635
 Zero-point vibrational energy     123691.3 (Joules/Mol)
                                   29.56294 (Kcal/Mol)
 Warning -- explicit consideration of   5 degrees of freedom as
           vibrations may cause significant error
 Vibrational temperatures:    201.13   432.09   515.83   728.59   847.55
          (Kelvin)           1384.37  1513.38  1617.54  2029.90  2139.28
                             2140.79  2707.69  4417.35  4521.56  4556.23
 
 Zero-point correction=                           0.047112 (Hartree/Particle)
 Thermal correction to Energy=                    0.051876
 Thermal correction to Enthalpy=                  0.052821
 Thermal correction to Gibbs Free Energy=         0.018149
 Sum of electronic and zero-point Energies=          -2715.226303
 Sum of electronic and thermal Energies=             -2715.221538
 Sum of electronic and thermal Enthalpies=           -2715.220593
 Sum of electronic and thermal Free Energies=        -2715.255265
 
                     E (Thermal)             CV                S
                      KCal/Mol        Cal/Mol-Kelvin    Cal/Mol-Kelvin
 Total                   32.553             14.679             72.972
 Electronic               0.000              0.000              0.000
 Translational            0.889              2.981             40.309
 Rotational               0.889              2.981             25.916
 Vibrational             30.775              8.717              6.747
 Vibration     1          0.615              1.914              2.807
 Vibration     2          0.693              1.673              1.415
 Vibration     3          0.733              1.558              1.129
 Vibration     4          0.862              1.236              0.642
 Vibration     5          0.946              1.055              0.469
                       Q            Log10(Q)             Ln(Q)
 Total Bot       0.448780D-08         -8.347967        -19.221904
 Total V=0       0.209795D+14         13.321794         30.674565
 Vib (Bot)       0.824082D-21        -21.084029        -48.547772
 Vib (Bot)    1  0.145461D+01          0.162747          0.374740
 Vib (Bot)    2  0.633145D+00         -0.198497         -0.457056
 Vib (Bot)    3  0.511741D+00         -0.290950         -0.669937
 Vib (Bot)    4  0.322710D+00         -0.491188         -1.131001
 Vib (Bot)    5  0.256325D+00         -0.591209         -1.361310
 Vib (V=0)       0.385240D+01          0.585731          1.348696
 Vib (V=0)    1  0.203815D+01          0.309236          0.712042
 Vib (V=0)    2  0.130677D+01          0.116198          0.267556
 Vib (V=0)    3  0.121546D+01          0.084740          0.195120
 Vib (V=0)    4  0.109510D+01          0.039453          0.090844
 Vib (V=0)    5  0.106187D+01          0.026073          0.060035
 Electronic      0.100000D+01          0.000000          0.000000
 Translational   0.529245D+08          7.723657         17.784377
 Rotational      0.102898D+06          5.012406         11.541491
 ***** Axes restored to original set *****
 -------------------------------------------------------------------
 Center     Atomic                   Forces (Hartrees/Bohr)
 Number     Number              X              Y              Z
 -------------------------------------------------------------------
      1        6          -0.000165282   -0.000209567   -0.000065469
      2        6          -0.000342291    0.000534453    0.000027291
      3        1           0.000096615   -0.000134453    0.000070440
      4        1           0.000092133   -0.000124105   -0.000072498
      5        1           0.000114577   -0.000060805    0.000000876
      6        8           0.000116651    0.000059335    0.000024689
      7       35           0.000087597   -0.000064858    0.000014671
 -------------------------------------------------------------------
 Cartesian Forces:  Max     0.000534453 RMS     0.000167225

 GradGradGradGradGradGradGradGradGradGradGradGradGradGradGradGradGradGrad
 Berny optimization.
 Internal  Forces:  Max     0.000198083 RMS     0.000102054
 Search for a local minimum.
 Step number   1 out of a maximum of    2
 All quantities printed in internal units (Hartrees-Bohrs-Radians)
 Second derivative matrix not updated -- analytic derivatives used.
     Eigenvalues ---    0.00146   0.05110   0.05745   0.05767   0.10369
     Eigenvalues ---    0.12802   0.14369   0.14634   0.20184   0.23689
     Eigenvalues ---    0.30260   0.34369   0.34816   0.35219   0.93879
     Eigenvalues --- 1000.000001000.000001000.000001000.000001000.00000
     Eigenvalues --- 1000.00000
 Angle between quadratic step and forces=  26.49 degrees.
 Linear search not attempted -- first point.
 Iteration  1 RMS(Cart)=  0.00065122 RMS(Int)=  0.00000080
 Iteration  2 RMS(Cart)=  0.00000065 RMS(Int)=  0.00000040
 Variable       Old X    -DE/DX   Delta X   Delta X   Delta X     New X
                                 (Linear)    (Quad)   (Total)
    R1        2.84471  -0.00020   0.00000  -0.00092  -0.00092   2.84379
    R2        2.25063   0.00011   0.00000   0.00025   0.00025   2.25088
    R3        3.73076  -0.00009   0.00000  -0.00112  -0.00112   3.72965
    R4        2.06851   0.00011   0.00000   0.00036   0.00036   2.06887
    R5        2.06850   0.00011   0.00000   0.00037   0.00037   2.06887
    R6        2.06512   0.00009   0.00000   0.00033   0.00033   2.06544
    A1        2.21622  -0.00012   0.00000  -0.00081  -0.00081   2.21541
    A2        1.96744  -0.00001   0.00000   0.00019   0.00019   1.96763
    A3        2.09952   0.00013   0.00000   0.00062   0.00062   2.10014
    A4        1.91341   0.00015   0.00000   0.00131   0.00131   1.91473
    A5        1.91354   0.00013   0.00000   0.00120   0.00120   1.91473
    A6        1.90583   0.00008   0.00000   0.00059   0.00059   1.90641
    A7        1.87595  -0.00010   0.00000  -0.00061  -0.00061   1.87535
    A8        1.92745  -0.00013   0.00000  -0.00122  -0.00122   1.92623
    A9        1.92749  -0.00013   0.00000  -0.00126  -0.00126   1.92623
    D1        2.11376  -0.00004   0.00000  -0.00036  -0.00036   2.11340
    D2       -2.11392   0.00001   0.00000   0.00039   0.00039  -2.11352
    D3       -0.00001  -0.00002   0.00000  -0.00004  -0.00004  -0.00006
    D4       -1.02838  -0.00001   0.00000   0.00019   0.00019  -1.02819
    D5        1.02713   0.00004   0.00000   0.00094   0.00094   1.02807
    D6        3.14103   0.00001   0.00000   0.00050   0.00050   3.14154
         Item               Value     Threshold  Converged?
 Maximum Force            0.000198     0.000450     YES
 RMS     Force            0.000102     0.000300     YES
 Maximum Displacement     0.001377     0.001800     YES
 RMS     Displacement     0.000651     0.001200     YES
 Predicted change in Energy=-7.254106D-07
 Optimization completed.
    -- Stationary point found.
                           ----------------------------
                           !   Optimized Parameters   !
                           ! (Angstroms and Degrees)  !
 --------------------------                            --------------------------
 ! Name  Definition              Value          Derivative Info.                !
 --------------------------------------------------------------------------------
 ! R1    R(1,2)                  1.5054         -DE/DX =   -0.0002              !
 ! R2    R(1,6)                  1.191          -DE/DX =    0.0001              !
 ! R3    R(1,7)                  1.9742         -DE/DX =   -0.0001              !
 ! R4    R(2,3)                  1.0946         -DE/DX =    0.0001              !
 ! R5    R(2,4)                  1.0946         -DE/DX =    0.0001              !
 ! R6    R(2,5)                  1.0928         -DE/DX =    0.0001              !
 ! A1    A(2,1,6)              126.98           -DE/DX =   -0.0001              !
 ! A2    A(2,1,7)              112.7262         -DE/DX =    0.0                 !
 ! A3    A(6,1,7)              120.2938         -DE/DX =    0.0001              !
 ! A4    A(1,2,3)              109.6305         -DE/DX =    0.0001              !
 ! A5    A(1,2,4)              109.6375         -DE/DX =    0.0001              !
 ! A6    A(1,2,5)              109.1957         -DE/DX =    0.0001              !
 ! A7    A(3,2,4)              107.4843         -DE/DX =   -0.0001              !
 ! A8    A(3,2,5)              110.4345         -DE/DX =   -0.0001              !
 ! A9    A(4,2,5)              110.4373         -DE/DX =   -0.0001              !
 ! D1    D(6,1,2,3)            121.1094         -DE/DX =    0.0                 !
 ! D2    D(6,1,2,4)           -121.1186         -DE/DX =    0.0                 !
 ! D3    D(6,1,2,5)             -0.0007         -DE/DX =    0.0                 !
 ! D4    D(7,1,2,3)            -58.9219         -DE/DX =    0.0                 !
 ! D5    D(7,1,2,4)             58.8502         -DE/DX =    0.0                 !
 ! D6    D(7,1,2,5)            179.968          -DE/DX =    0.0                 !
 --------------------------------------------------------------------------------
 GradGradGradGradGradGradGradGradGradGradGradGradGradGradGradGradGradGrad

 1|1|UNPC-LAWALM-PC|Freq|RB3LYP|Gen|C2H3Br1O1|LAWALM|25-Feb-2015|0||#N 
 Geom=AllCheck Guess=TCheck SCRF=Check GenChk RB3LYP/ChkBas Freq||BrAc-
 6-31+g(d)/midix||0,1|C,0.9962327242,0.2198548279,0.0001678506|C,1.7415
 420419,-1.0880482474,-0.0000843155|H,1.4612547038,-1.6711951397,0.8828
 35225|H,1.4603006918,-1.6715396569,-0.8824630318|H,2.8161216231,-0.889
 2562685,-0.000674574|O,1.4681475349,1.3133517965,-0.0001892988|Br,-0.9
 634943198,-0.0190503118,0.0002141445||Version=IA32W-G09RevA.02|State=1
 -A|HF=-2715.2734141|RMSD=1.049e-009|RMSF=1.672e-004|ZeroPoint=0.047111
 5|Thermal=0.0518764|Dipole=0.3297582,-1.0704666,0.0000754|DipoleDeriv=
 2.1089138,0.1674859,-0.0002191,0.7067657,1.1848124,-0.0000887,-0.00040
 42,-0.0000814,0.086409,-0.1345089,0.1322779,-0.0000328,0.0482711,-0.24
 9194,-0.0000118,0.0000387,-0.0000594,0.0618503,0.0426513,0.0028934,0.0
 584648,0.0090612,0.0778702,0.021869,0.0295477,0.0556244,0.0228378,0.04
 25193,0.0028548,-0.0584817,0.009017,0.07787,-0.0218634,-0.0295772,-0.0
 55636,0.0230001,-0.0985071,0.0201071,0.0000795,0.0172126,0.0402583,0.0
 000197,0.0001106,-0.0000225,0.1065721,-0.9602966,-0.2546367,0.0000855,
 -0.7177691,-1.016396,0.0000709,0.0003307,0.0001855,-0.2354926,-1.00077
 17,-0.0709824,0.0001038,-0.0725585,-0.1152209,0.0000043,-0.0000463,-0.
 0000106,-0.0651768|Polar=58.5946265,1.9489093,43.5498833,-0.0031802,-0
 .0018395,32.0195859|PG=C01 [X(C2H3Br1O1)]|NImag=0||0.37878503,0.168261
 31,0.95650418,-0.00009395,-0.00018672,0.17091265,-0.11696124,0.0642792
 0,0.00000068,0.57395639,0.05503006,-0.15235765,-0.00001206,0.06248985,
 0.49811033,0.00001647,-0.00003758,-0.08313829,-0.00000421,0.00000629,0
 .54385082,0.00575144,0.00745831,-0.01646104,-0.06762877,-0.03614022,0.
 05812911,0.06723695,-0.01118062,-0.01995119,0.02505485,-0.03587842,-0.
 11891158,0.12073262,0.03861440,0.13209688,0.00080405,-0.00097487,0.002
 13063,0.05672107,0.11927975,-0.22240074,-0.06310265,-0.12857915,0.2400
 1457,0.00576555,0.00746693,0.01645547,-0.06775695,-0.03630261,-0.05829
 438,0.00143224,0.00461459,0.00688986,0.06738120,-0.01120867,-0.0199580
 7,-0.02503293,-0.03603524,-0.11900468,-0.12074248,0.00462933,0.0111952
 6,0.01498270,0.03878347,0.13219242,-0.00080635,0.00098107,0.00212091,-
 0.05687967,-0.11929375,-0.22219904,-0.00691643,-0.01499843,-0.02121461
 ,0.06328423,0.12858390,0.23979228,-0.01852401,-0.00363435,0.00000875,-
 0.31368369,-0.04996797,0.00014563,-0.00453259,-0.00075364,-0.00042976,
 -0.00455941,-0.00075659,0.00043768,0.33901539,0.03020435,0.00335676,-0
 .00001734,-0.05465168,-0.06026974,0.00002551,-0.01622768,-0.00267426,-
 0.00241836,-0.01623183,-0.00267400,0.00243780,0.05405971,0.06188361,0.
 00000280,0.00000325,-0.00111129,0.00014615,0.00002281,-0.05075793,0.02
 583460,0.00298326,0.00211293,-0.02581988,-0.00297979,0.00214159,-0.000
 16087,-0.00002917,0.04671923,-0.18949357,-0.28165564,0.00008865,0.0163
 2150,0.00943419,0.00000535,-0.00017171,0.00372077,-0.00053349,-0.00017
 325,0.00372548,0.00053103,0.00371777,-0.00144200,-0.00000179,0.2133020
 2,-0.23807345,-0.74125767,0.00019702,-0.01512465,-0.05017323,0.0000203
 8,0.00145776,-0.00269253,-0.00167567,0.00145864,-0.00268991,0.00167355
 ,-0.00106203,0.00235225,-0.00000098,0.30139077,0.80179540,0.00008075,0
 .00021537,-0.05936177,0.00001071,0.00000145,0.02648306,0.00218012,-0.0
 0363523,-0.00121058,-0.00218196,0.00363063,-0.00120959,-0.00000238,0.0
 0000100,-0.00076473,-0.00010111,-0.00022067,0.02351123,-0.06532321,0.0
 3782423,0.00000144,-0.02424723,-0.00454330,0.00000203,-0.00208756,0.00
 086292,-0.00034908,-0.00208938,0.00086222,0.00034951,-0.00143347,0.004
 28913,-0.00000101,-0.04350277,-0.05004703,0.00001388,0.13868362,0.0069
 6702,-0.02633636,-0.00000282,0.01492094,0.00260655,-0.00000474,0.00020
 809,0.00093741,-0.00061439,0.00021081,0.00093898,0.00061586,0.00211488
 ,-0.00197462,0.00000063,-0.03517357,-0.00733431,0.00000744,0.01075184,
 0.03116235,-0.00000377,-0.00000052,-0.03155286,0.00000527,-0.00000450,
 0.00816211,0.00033628,-0.00155793,0.00056779,-0.00033333,0.00155798,0.
 00056845,0.00000096,0.00000057,0.00166019,0.00001136,0.00000637,0.0125
 5236,-0.00001677,-0.00000198,0.00804195||0.00016528,0.00020957,0.00006
 547,0.00034229,-0.00053445,-0.00002729,-0.00009661,0.00013445,-0.00007
 044,-0.00009213,0.00012410,0.00007250,-0.00011458,0.00006081,-0.000000
 88,-0.00011665,-0.00005933,-0.00002469,-0.00008760,0.00006486,-0.00001
 467|||@


 THERE ARE PEOPLE SO ADDICTED TO EXAGERATING THEY
 CAN'T TELL THE TRUTH WITHOUT LYING. -- FORTUNE COOKIE
 Job cpu time:  0 days  0 hours  1 minutes 31.0 seconds.
 File lengths (MBytes):  RWF=     12 Int=      0 D2E=      0 Chk=      1 Scr=      1
 Normal termination of Gaussian 09 at Wed Feb 25 12:11:46 2015.
