 Entering Link 1 = C:\G09W\l1.exe PID=      6720.
  
 Copyright (c) 1988,1990,1992,1993,1995,1998,2003,2009, Gaussian, Inc.
                  All Rights Reserved.
  
 This is part of the Gaussian(R) 09 program.  It is based on
 the Gaussian(R) 03 system (copyright 2003, Gaussian, Inc.),
 the Gaussian(R) 98 system (copyright 1998, Gaussian, Inc.),
 the Gaussian(R) 94 system (copyright 1995, Gaussian, Inc.),
 the Gaussian 92(TM) system (copyright 1992, Gaussian, Inc.),
 the Gaussian 90(TM) system (copyright 1990, Gaussian, Inc.),
 the Gaussian 88(TM) system (copyright 1988, Gaussian, Inc.),
 the Gaussian 86(TM) system (copyright 1986, Carnegie Mellon
 University), and the Gaussian 82(TM) system (copyright 1983,
 Carnegie Mellon University). Gaussian is a federally registered
 trademark of Gaussian, Inc.
  
 This software contains proprietary and confidential information,
 including trade secrets, belonging to Gaussian, Inc.
  
 This software is provided under written license and may be
 used, copied, transmitted, or stored only in accord with that
 written license.
  
 The following legend is applicable only to US Government
 contracts under FAR:
  
                    RESTRICTED RIGHTS LEGEND
  
 Use, reproduction and disclosure by the US Government is
 subject to restrictions as set forth in subparagraphs (a)
 and (c) of the Commercial Computer Software - Restricted
 Rights clause in FAR 52.227-19.
  
 Gaussian, Inc.
 340 Quinnipiac St., Bldg. 40, Wallingford CT 06492
  
  
 ---------------------------------------------------------------
 Warning -- This program may not be used in any manner that
 competes with the business of Gaussian, Inc. or will provide
 assistance to any competitor of Gaussian, Inc.  The licensee
 of this program is prohibited from giving any competitor of
 Gaussian, Inc. access to this program.  By using this program,
 the user acknowledges that Gaussian, Inc. is engaged in the
 business of creating and licensing software in the field of
 computational chemistry and represents and warrants to the
 licensee that it is not a competitor of Gaussian, Inc. and that
 it will not use this program in any manner prohibited above.
 ---------------------------------------------------------------
  

 Cite this work as:
 Gaussian 09, Revision A.02,
 M. J. Frisch, G. W. Trucks, H. B. Schlegel, G. E. Scuseria, 
 M. A. Robb, J. R. Cheeseman, G. Scalmani, V. Barone, B. Mennucci, 
 G. A. Petersson, H. Nakatsuji, M. Caricato, X. Li, H. P. Hratchian, 
 A. F. Izmaylov, J. Bloino, G. Zheng, J. L. Sonnenberg, M. Hada, 
 M. Ehara, K. Toyota, R. Fukuda, J. Hasegawa, M. Ishida, T. Nakajima, 
 Y. Honda, O. Kitao, H. Nakai, T. Vreven, J. A. Montgomery, Jr., 
 J. E. Peralta, F. Ogliaro, M. Bearpark, J. J. Heyd, E. Brothers, 
 K. N. Kudin, V. N. Staroverov, R. Kobayashi, J. Normand, 
 K. Raghavachari, A. Rendell, J. C. Burant, S. S. Iyengar, J. Tomasi, 
 M. Cossi, N. Rega, J. M. Millam, M. Klene, J. E. Knox, J. B. Cross, 
 V. Bakken, C. Adamo, J. Jaramillo, R. Gomperts, R. E. Stratmann, 
 O. Yazyev, A. J. Austin, R. Cammi, C. Pomelli, J. W. Ochterski, 
 R. L. Martin, K. Morokuma, V. G. Zakrzewski, G. A. Voth, 
 P. Salvador, J. J. Dannenberg, S. Dapprich, A. D. Daniels, 
 O. Farkas, J. B. Foresman, J. V. Ortiz, J. Cioslowski, 
 and D. J. Fox, Gaussian, Inc., Wallingford CT, 2009.
 
 ******************************************
 Gaussian 09:  IA32W-G09RevA.02 11-Jun-2009
                25-Mar-2015 
 ******************************************
 -------------------------------------------------------------
 # opt freq b3lyp/genecp geom=connectivity gfinput pseudo=read
 -------------------------------------------------------------
 1/14=-1,18=20,19=15,26=3,38=1,57=2/1,3;
 2/9=110,12=2,17=6,18=5,40=1/2;
 3/5=7,11=2,16=1,17=8,24=10,25=1,30=1,71=1,74=-5/1,2,3;
 4//1;
 5/5=2,38=5/2;
 6/7=2,8=2,9=2,10=2,28=1/1;
 7//1,2,3,16;
 1/14=-1,18=20,19=15/3(2);
 2/9=110/2;
 99//99;
 2/9=110/2;
 3/5=7,6=1,11=2,16=1,17=8,25=1,30=1,71=1,74=-5,82=7/1,2,3;
 4/5=5,16=3/1;
 5/5=2,38=5/2;
 7//1,2,3,16;
 1/14=-1,18=20,19=15/3(-5);
 2/9=110/2;
 6/7=2,8=2,9=2,10=2,19=2,28=1/1;
 99/9=1/99;
 -------------------------------------------------
 gen calculation BrAc-C H O=aug-cc-pvtz/Br=Lanl2dz
 -------------------------------------------------
 Symbolic Z-matrix:
 Charge =  0 Multiplicity = 1
 C                     1.01121   0.23761   0.00018 
 C                     1.72256  -1.06187  -0.00003 
 H                     1.46581  -1.67485   0.8825 
 H                     1.46445  -1.67517  -0.88197 
 H                     2.81725  -0.92328  -0.00081 
 O                     1.46701   1.33296  -0.00006 
 Br                   -0.96818  -0.04128  -0.00001 
 

 GradGradGradGradGradGradGradGradGradGradGradGradGradGradGradGradGradGrad
 Berny optimization.
 Initialization pass.
                           ----------------------------
                           !    Initial Parameters    !
                           ! (Angstroms and Degrees)  !
 --------------------------                            --------------------------
 ! Name  Definition              Value          Derivative Info.                !
 --------------------------------------------------------------------------------
 ! R1    R(1,2)                  1.4814         estimate D2E/DX2                !
 ! R2    R(1,6)                  1.1864         estimate D2E/DX2                !
 ! R3    R(1,7)                  1.9989         estimate D2E/DX2                !
 ! R4    R(2,3)                  1.1048         estimate D2E/DX2                !
 ! R5    R(2,4)                  1.1048         estimate D2E/DX2                !
 ! R6    R(2,5)                  1.1034         estimate D2E/DX2                !
 ! A1    A(2,1,6)              128.7098         estimate D2E/DX2                !
 ! A2    A(2,1,7)              110.6765         estimate D2E/DX2                !
 ! A3    A(6,1,7)              120.6137         estimate D2E/DX2                !
 ! A4    A(1,2,3)              112.0239         estimate D2E/DX2                !
 ! A5    A(1,2,4)              112.0164         estimate D2E/DX2                !
 ! A6    A(1,2,5)              111.4811         estimate D2E/DX2                !
 ! A7    A(3,2,4)              105.9857         estimate D2E/DX2                !
 ! A8    A(3,2,5)              107.5067         estimate D2E/DX2                !
 ! A9    A(4,2,5)              107.5132         estimate D2E/DX2                !
 ! D1    D(6,1,2,3)            120.5048         estimate D2E/DX2                !
 ! D2    D(6,1,2,4)           -120.5474         estimate D2E/DX2                !
 ! D3    D(6,1,2,5)             -0.0197         estimate D2E/DX2                !
 ! D4    D(7,1,2,3)            -59.5249         estimate D2E/DX2                !
 ! D5    D(7,1,2,4)             59.4229         estimate D2E/DX2                !
 ! D6    D(7,1,2,5)            179.9506         estimate D2E/DX2                !
 --------------------------------------------------------------------------------
 Trust Radius=3.00D-01 FncErr=1.00D-07 GrdErr=1.00D-06
 Number of steps in this run=  31 maximum allowed number of steps= 100.
 GradGradGradGradGradGradGradGradGradGradGradGradGradGradGradGradGradGrad

                          Input orientation:                          
 ---------------------------------------------------------------------
 Center     Atomic      Atomic             Coordinates (Angstroms)
 Number     Number       Type             X           Y           Z
 ---------------------------------------------------------------------
      1          6           0        1.011206    0.237614    0.000180
      2          6           0        1.722556   -1.061873   -0.000028
      3          1           0        1.465808   -1.674851    0.882500
      4          1           0        1.464453   -1.675170   -0.881972
      5          1           0        2.817250   -0.923279   -0.000814
      6          8           0        1.467008    1.332956   -0.000055
      7         35           0       -0.968176   -0.041280   -0.000005
 ---------------------------------------------------------------------
                    Distance matrix (angstroms):
                    1          2          3          4          5
     1  C    0.000000
     2  C    1.481447   0.000000
     3  H    2.154687   1.104770   0.000000
     4  H    2.154615   1.104797   1.764473   0.000000
     5  H    2.146967   1.103433   1.780870   1.780966   0.000000
     6  O    1.186394   2.408425   3.134614   3.134742   2.629401
     7  Br   1.998933   2.877785   3.061315   3.060253   3.886820
                    6          7
     6  O    0.000000
     7  Br   2.796184   0.000000
 Stoichiometry    C2H3BrO
 Framework group  C1[X(C2H3BrO)]
 Deg. of freedom    15
 Full point group                 C1      NOp   1
 Largest Abelian subgroup         C1      NOp   1
 Largest concise Abelian subgroup C1      NOp   1
                         Standard orientation:                         
 ---------------------------------------------------------------------
 Center     Atomic      Atomic             Coordinates (Angstroms)
 Number     Number       Type             X           Y           Z
 ---------------------------------------------------------------------
      1          6           0        1.011206    0.237614    0.000180
      2          6           0        1.722556   -1.061873   -0.000028
      3          1           0        1.465808   -1.674851    0.882500
      4          1           0        1.464453   -1.675170   -0.881972
      5          1           0        2.817250   -0.923279   -0.000814
      6          8           0        1.467008    1.332956   -0.000055
      7         35           0       -0.968176   -0.041280   -0.000005
 ---------------------------------------------------------------------
 Rotational constants (GHZ):     10.0778499      2.9893900      2.3389884
 General basis read from cards:  (5D, 7F)
 AO basis set in the form of general basis input (Overlap normalization):
      1 0
 S   7 1.00       0.000000000000
      0.8236000000D+04  0.5419783203D-03
      0.1235000000D+04  0.4192873817D-02
      0.2808000000D+03  0.2152216205D-01
      0.7927000000D+02  0.8353432195D-01
      0.2559000000D+02  0.2395828457D+00
      0.8997000000D+01  0.4428528419D+00
      0.3319000000D+01  0.3517995618D+00
 S   6 1.00       0.000000000000
      0.2808000000D+03 -0.5949224937D-04
      0.7927000000D+02 -0.1148158310D-02
      0.2559000000D+02 -0.1001913745D-01
      0.8997000000D+01 -0.6121949230D-01
      0.3319000000D+01 -0.1732698541D+00
      0.3643000000D+00  0.1072915192D+01
 S   1 1.00       0.000000000000
      0.9059000000D+00  0.1000000000D+01
 S   1 1.00       0.000000000000
      0.1285000000D+00  0.1000000000D+01
 S   1 1.00       0.000000000000
      0.4402000000D-01  0.1000000000D+01
 P   3 1.00       0.000000000000
      0.1871000000D+02  0.3942638716D-01
      0.4133000000D+01  0.2440889849D+00
      0.1200000000D+01  0.8154920089D+00
 P   1 1.00       0.000000000000
      0.3827000000D+00  0.1000000000D+01
 P   1 1.00       0.000000000000
      0.1209000000D+00  0.1000000000D+01
 P   1 1.00       0.000000000000
      0.3569000000D-01  0.1000000000D+01
 D   1 1.00       0.000000000000
      0.1097000000D+01  0.1000000000D+01
 D   1 1.00       0.000000000000
      0.3180000000D+00  0.1000000000D+01
 D   1 1.00       0.000000000000
      0.1000000000D+00  0.1000000000D+01
 F   1 1.00       0.000000000000
      0.7610000000D+00  0.1000000000D+01
 F   1 1.00       0.000000000000
      0.2680000000D+00  0.1000000000D+01
 ****
      2 0
 S   7 1.00       0.000000000000
      0.8236000000D+04  0.5419783203D-03
      0.1235000000D+04  0.4192873817D-02
      0.2808000000D+03  0.2152216205D-01
      0.7927000000D+02  0.8353432195D-01
      0.2559000000D+02  0.2395828457D+00
      0.8997000000D+01  0.4428528419D+00
      0.3319000000D+01  0.3517995618D+00
 S   6 1.00       0.000000000000
      0.2808000000D+03 -0.5949224937D-04
      0.7927000000D+02 -0.1148158310D-02
      0.2559000000D+02 -0.1001913745D-01
      0.8997000000D+01 -0.6121949230D-01
      0.3319000000D+01 -0.1732698541D+00
      0.3643000000D+00  0.1072915192D+01
 S   1 1.00       0.000000000000
      0.9059000000D+00  0.1000000000D+01
 S   1 1.00       0.000000000000
      0.1285000000D+00  0.1000000000D+01
 S   1 1.00       0.000000000000
      0.4402000000D-01  0.1000000000D+01
 P   3 1.00       0.000000000000
      0.1871000000D+02  0.3942638716D-01
      0.4133000000D+01  0.2440889849D+00
      0.1200000000D+01  0.8154920089D+00
 P   1 1.00       0.000000000000
      0.3827000000D+00  0.1000000000D+01
 P   1 1.00       0.000000000000
      0.1209000000D+00  0.1000000000D+01
 P   1 1.00       0.000000000000
      0.3569000000D-01  0.1000000000D+01
 D   1 1.00       0.000000000000
      0.1097000000D+01  0.1000000000D+01
 D   1 1.00       0.000000000000
      0.3180000000D+00  0.1000000000D+01
 D   1 1.00       0.000000000000
      0.1000000000D+00  0.1000000000D+01
 F   1 1.00       0.000000000000
      0.7610000000D+00  0.1000000000D+01
 F   1 1.00       0.000000000000
      0.2680000000D+00  0.1000000000D+01
 ****
      3 0
 S   3 1.00       0.000000000000
      0.3387000000D+02  0.2549486323D-01
      0.5095000000D+01  0.1903627659D+00
      0.1159000000D+01  0.8521620222D+00
 S   1 1.00       0.000000000000
      0.3258000000D+00  0.1000000000D+01
 S   1 1.00       0.000000000000
      0.1027000000D+00  0.1000000000D+01
 S   1 1.00       0.000000000000
      0.2526000000D-01  0.1000000000D+01
 P   1 1.00       0.000000000000
      0.1407000000D+01  0.1000000000D+01
 P   1 1.00       0.000000000000
      0.3880000000D+00  0.1000000000D+01
 P   1 1.00       0.000000000000
      0.1020000000D+00  0.1000000000D+01
 D   1 1.00       0.000000000000
      0.1057000000D+01  0.1000000000D+01
 D   1 1.00       0.000000000000
      0.2470000000D+00  0.1000000000D+01
 ****
      4 0
 S   3 1.00       0.000000000000
      0.3387000000D+02  0.2549486323D-01
      0.5095000000D+01  0.1903627659D+00
      0.1159000000D+01  0.8521620222D+00
 S   1 1.00       0.000000000000
      0.3258000000D+00  0.1000000000D+01
 S   1 1.00       0.000000000000
      0.1027000000D+00  0.1000000000D+01
 S   1 1.00       0.000000000000
      0.2526000000D-01  0.1000000000D+01
 P   1 1.00       0.000000000000
      0.1407000000D+01  0.1000000000D+01
 P   1 1.00       0.000000000000
      0.3880000000D+00  0.1000000000D+01
 P   1 1.00       0.000000000000
      0.1020000000D+00  0.1000000000D+01
 D   1 1.00       0.000000000000
      0.1057000000D+01  0.1000000000D+01
 D   1 1.00       0.000000000000
      0.2470000000D+00  0.1000000000D+01
 ****
      5 0
 S   3 1.00       0.000000000000
      0.3387000000D+02  0.2549486323D-01
      0.5095000000D+01  0.1903627659D+00
      0.1159000000D+01  0.8521620222D+00
 S   1 1.00       0.000000000000
      0.3258000000D+00  0.1000000000D+01
 S   1 1.00       0.000000000000
      0.1027000000D+00  0.1000000000D+01
 S   1 1.00       0.000000000000
      0.2526000000D-01  0.1000000000D+01
 P   1 1.00       0.000000000000
      0.1407000000D+01  0.1000000000D+01
 P   1 1.00       0.000000000000
      0.3880000000D+00  0.1000000000D+01
 P   1 1.00       0.000000000000
      0.1020000000D+00  0.1000000000D+01
 D   1 1.00       0.000000000000
      0.1057000000D+01  0.1000000000D+01
 D   1 1.00       0.000000000000
      0.2470000000D+00  0.1000000000D+01
 ****
      6 0
 S   7 1.00       0.000000000000
      0.1533000000D+05  0.5198089434D-03
      0.2299000000D+04  0.4020256215D-02
      0.5224000000D+03  0.2071282673D-01
      0.1473000000D+03  0.8101055358D-01
      0.4755000000D+02  0.2359629851D+00
      0.1676000000D+02  0.4426534455D+00
      0.6207000000D+01  0.3570644227D+00
 S   6 1.00       0.000000000000
      0.5224000000D+03 -0.4421150084D-04
      0.1473000000D+03 -0.1225910413D-02
      0.4755000000D+02 -0.1055177248D-01
      0.1676000000D+02 -0.6744526326D-01
      0.6207000000D+01 -0.1711986073D+00
      0.6882000000D+00  0.1073298561D+01
 S   1 1.00       0.000000000000
      0.1752000000D+01  0.1000000000D+01
 S   1 1.00       0.000000000000
      0.2384000000D+00  0.1000000000D+01
 S   1 1.00       0.000000000000
      0.7376000000D-01  0.1000000000D+01
 P   3 1.00       0.000000000000
      0.3446000000D+02  0.4116348957D-01
      0.7749000000D+01  0.2577628359D+00
      0.2280000000D+01  0.8024192744D+00
 P   1 1.00       0.000000000000
      0.7156000000D+00  0.1000000000D+01
 P   1 1.00       0.000000000000
      0.2140000000D+00  0.1000000000D+01
 P   1 1.00       0.000000000000
      0.5974000000D-01  0.1000000000D+01
 D   1 1.00       0.000000000000
      0.2314000000D+01  0.1000000000D+01
 D   1 1.00       0.000000000000
      0.6450000000D+00  0.1000000000D+01
 D   1 1.00       0.000000000000
      0.2140000000D+00  0.1000000000D+01
 F   1 1.00       0.000000000000
      0.1428000000D+01  0.1000000000D+01
 F   1 1.00       0.000000000000
      0.5000000000D+00  0.1000000000D+01
 ****
      7 0
 S   2 1.00       0.000000000000
      0.1159000000D+01 -0.3037876889D+01
      0.7107000000D+00  0.3370373488D+01
 S   1 1.00       0.000000000000
      0.1905000000D+00  0.1000000000D+01
 P   2 1.00       0.000000000000
      0.2691000000D+01 -0.1189799989D+00
      0.4446000000D+00  0.1042447090D+01
 P   1 1.00       0.000000000000
      0.1377000000D+00  0.1000000000D+01
 ****

 ======================================================================================================
                                       Pseudopotential Parameters
 ======================================================================================================
  Center     Atomic      Valence      Angular      Power
  Number     Number     Electrons     Momentum     of R      Exponent        Coefficient   SO-Coeffient
 ======================================================================================================
    1          6
                                   No pseudopotential on this center.
    2          6
                                   No pseudopotential on this center.
    3          1
                                   No pseudopotential on this center.
    4          1
                                   No pseudopotential on this center.
    5          1
                                   No pseudopotential on this center.
    6          8
                                   No pseudopotential on this center.
    7         35            7
                                      F and up 
                                                     1      213.6143969      -28.00000000    0.00000000
                                                     2       41.0585380     -134.92688520    0.00000000
                                                     2        8.7086530      -41.92719130    0.00000000
                                                     2        2.6074661       -5.93364200    0.00000000
                                      S - F
                                                     0       54.1980682        3.00000000    0.00000000
                                                     1       32.9053558       27.34306420    0.00000000
                                                     2       13.6744890      118.80288470    0.00000000
                                                     2        3.0341152       43.43548760    0.00000000
                                      P - F
                                                     0       54.2563340        5.00000000    0.00000000
                                                     1       26.0095593       25.05042520    0.00000000
                                                     2       28.2012995       92.61574630    0.00000000
                                                     2        9.4341061       95.82490160    0.00000000
                                                     2        2.5321764       26.26849830    0.00000000
                                      D - F
                                                     0       87.6328721        3.00000000    0.00000000
                                                     1       61.7373377       22.55335570    0.00000000
                                                     2       32.4385104      178.12419880    0.00000000
                                                     2        8.7537199       76.99241620    0.00000000
                                                     2        1.6633189        9.48182700    0.00000000
 ======================================================================================================
 There are   215 symmetry adapted basis functions of A   symmetry.
 Integral buffers will be    262144 words long.
 Raffenetti 2 integral format.
 Two-electron integral symmetry is turned on.
   215 basis functions,   309 primitive gaussians,   248 cartesian basis functions
    15 alpha electrons       15 beta electrons
       nuclear repulsion energy        95.8854530419 Hartrees.
 NAtoms=    7 NActive=    7 NUniq=    7 SFac= 7.50D-01 NAtFMM=   80 NAOKFM=F Big=F
 One-electron integrals computed using PRISM.
   1 Symmetry operations used in ECPInt.
 ECPInt:  NShTT=    2701 NPrTT=    7388 LenC2=    2702 LenP2D=    6793.
 LDataN:  DoStor=T MaxTD1= 6 Len=  172
 NBasis=   215 RedAO= T  NBF=   215
 NBsUse=   215 1.00D-06 NBFU=   215
 Harris functional with IExCor=  402 diagonalized for initial guess.
 ExpMin= 2.53D-02 ExpMax= 1.53D+04 ExpMxC= 5.22D+02 IAcc=3 IRadAn=         0 AccDes= 0.00D+00
 HarFok:  IExCor=  402 AccDes= 0.00D+00 IRadAn=         0 IDoV= 1
 ScaDFX=  1.000000  1.000000  1.000000  1.000000
 FoFCou: FMM=F IPFlag=           0 FMFlag=      100000 FMFlg1=           0
         NFxFlg=           0 DoJE=T BraDBF=F KetDBF=T FulRan=T
         Omega=  0.000000  0.000000  1.000000  0.000000  0.000000 ICntrl=     500 IOpCl=  0
         NMat0=    1 NMatS0=    1 NMatT0=    0 NMatD0=    1 NMtDS0=    0 NMtDT0=    0
         I1Cent=           4 NGrid=           0.
 Petite list used in FoFCou.
 Initial guess orbital symmetries:
       Occupied  (A) (A) (A) (A) (A) (A) (A) (A) (A) (A) (A) (A)
                 (A) (A) (A)
       Virtual   (A) (A) (A) (A) (A) (A) (A) (A) (A) (A) (A) (A)
                 (A) (A) (A) (A) (A) (A) (A) (A) (A) (A) (A) (A)
                 (A) (A) (A) (A) (A) (A) (A) (A) (A) (A) (A) (A)
                 (A) (A) (A) (A) (A) (A) (A) (A) (A) (A) (A) (A)
                 (A) (A) (A) (A) (A) (A) (A) (A) (A) (A) (A) (A)
                 (A) (A) (A) (A) (A) (A) (A) (A) (A) (A) (A) (A)
                 (A) (A) (A) (A) (A) (A) (A) (A) (A) (A) (A) (A)
                 (A) (A) (A) (A) (A) (A) (A) (A) (A) (A) (A) (A)
                 (A) (A) (A) (A) (A) (A) (A) (A) (A) (A) (A) (A)
                 (A) (A) (A) (A) (A) (A) (A) (A) (A) (A) (A) (A)
                 (A) (A) (A) (A) (A) (A) (A) (A) (A) (A) (A) (A)
                 (A) (A) (A) (A) (A) (A) (A) (A) (A) (A) (A) (A)
                 (A) (A) (A) (A) (A) (A) (A) (A) (A) (A) (A) (A)
                 (A) (A) (A) (A) (A) (A) (A) (A) (A) (A) (A) (A)
                 (A) (A) (A) (A) (A) (A) (A) (A) (A) (A) (A) (A)
                 (A) (A) (A) (A) (A) (A) (A) (A) (A) (A) (A) (A)
                 (A) (A) (A) (A) (A) (A) (A) (A)
 The electronic state of the initial guess is 1-A.
 Requested convergence on RMS density matrix=1.00D-08 within 128 cycles.
 Requested convergence on MAX density matrix=1.00D-06.
 Requested convergence on             energy=1.00D-06.
 No special actions if energy rises.
 SCF Done:  E(RB3LYP) =  -166.482761669     A.U. after   14 cycles
             Convg  =    0.2467D-08             -V/T =  2.0635

 **********************************************************************

            Population analysis using the SCF density.

 **********************************************************************

 Orbital symmetries:
       Occupied  (A) (A) (A) (A) (A) (A) (A) (A) (A) (A) (A) (A)
                 (A) (A) (A)
       Virtual   (A) (A) (A) (A) (A) (A) (A) (A) (A) (A) (A) (A)
                 (A) (A) (A) (A) (A) (A) (A) (A) (A) (A) (A) (A)
                 (A) (A) (A) (A) (A) (A) (A) (A) (A) (A) (A) (A)
                 (A) (A) (A) (A) (A) (A) (A) (A) (A) (A) (A) (A)
                 (A) (A) (A) (A) (A) (A) (A) (A) (A) (A) (A) (A)
                 (A) (A) (A) (A) (A) (A) (A) (A) (A) (A) (A) (A)
                 (A) (A) (A) (A) (A) (A) (A) (A) (A) (A) (A) (A)
                 (A) (A) (A) (A) (A) (A) (A) (A) (A) (A) (A) (A)
                 (A) (A) (A) (A) (A) (A) (A) (A) (A) (A) (A) (A)
                 (A) (A) (A) (A) (A) (A) (A) (A) (A) (A) (A) (A)
                 (A) (A) (A) (A) (A) (A) (A) (A) (A) (A) (A) (A)
                 (A) (A) (A) (A) (A) (A) (A) (A) (A) (A) (A) (A)
                 (A) (A) (A) (A) (A) (A) (A) (A) (A) (A) (A) (A)
                 (A) (A) (A) (A) (A) (A) (A) (A) (A) (A) (A) (A)
                 (A) (A) (A) (A) (A) (A) (A) (A) (A) (A) (A) (A)
                 (A) (A) (A) (A) (A) (A) (A) (A) (A) (A) (A) (A)
                 (A) (A) (A) (A) (A) (A) (A) (A)
 The electronic state is 1-A.
 Alpha  occ. eigenvalues --  -19.17772 -10.33565 -10.21943  -1.10799  -0.81074
 Alpha  occ. eigenvalues --   -0.75463  -0.57105  -0.49526  -0.48891  -0.48424
 Alpha  occ. eigenvalues --   -0.41828  -0.40958  -0.30752  -0.30409  -0.29366
 Alpha virt. eigenvalues --   -0.05777  -0.02570  -0.01191   0.01610   0.01670
 Alpha virt. eigenvalues --    0.02267   0.05733   0.06335   0.06706   0.07241
 Alpha virt. eigenvalues --    0.07779   0.08406   0.10093   0.10648   0.13022
 Alpha virt. eigenvalues --    0.15805   0.16189   0.16362   0.17304   0.19049
 Alpha virt. eigenvalues --    0.19609   0.23692   0.24550   0.24634   0.25939
 Alpha virt. eigenvalues --    0.26748   0.27884   0.28248   0.30020   0.30741
 Alpha virt. eigenvalues --    0.30954   0.31945   0.33821   0.34232   0.37013
 Alpha virt. eigenvalues --    0.37642   0.39991   0.40546   0.42241   0.42312
 Alpha virt. eigenvalues --    0.44560   0.49164   0.49801   0.51173   0.53427
 Alpha virt. eigenvalues --    0.53927   0.59485   0.61172   0.61615   0.63632
 Alpha virt. eigenvalues --    0.65693   0.66078   0.66143   0.70142   0.70323
 Alpha virt. eigenvalues --    0.71409   0.73968   0.75141   0.77381   0.79128
 Alpha virt. eigenvalues --    0.80075   0.81933   0.82012   0.84360   0.85728
 Alpha virt. eigenvalues --    0.86138   0.88587   0.89155   0.90549   0.93341
 Alpha virt. eigenvalues --    0.96960   0.97544   0.98104   1.01213   1.04855
 Alpha virt. eigenvalues --    1.05086   1.08057   1.09647   1.11626   1.13372
 Alpha virt. eigenvalues --    1.18834   1.19648   1.20040   1.22146   1.26684
 Alpha virt. eigenvalues --    1.28008   1.33305   1.35197   1.35795   1.39075
 Alpha virt. eigenvalues --    1.41217   1.44526   1.45104   1.48470   1.49930
 Alpha virt. eigenvalues --    1.51985   1.54314   1.57396   1.59040   1.60374
 Alpha virt. eigenvalues --    1.64489   1.69823   1.71364   1.80858   1.84280
 Alpha virt. eigenvalues --    1.86251   1.94340   1.95392   1.96527   2.02629
 Alpha virt. eigenvalues --    2.02690   2.11192   2.14645   2.17782   2.22105
 Alpha virt. eigenvalues --    2.24531   2.26464   2.38194   2.44183   2.44196
 Alpha virt. eigenvalues --    2.47772   2.55820   2.56753   2.66937   2.74061
 Alpha virt. eigenvalues --    2.77540   2.87274   2.95710   2.98147   3.05902
 Alpha virt. eigenvalues --    3.13415   3.14163   3.16448   3.16829   3.19066
 Alpha virt. eigenvalues --    3.24620   3.29813   3.30903   3.33710   3.38233
 Alpha virt. eigenvalues --    3.40057   3.41732   3.47159   3.48079   3.55135
 Alpha virt. eigenvalues --    3.56222   3.63023   3.67236   3.69463   3.72875
 Alpha virt. eigenvalues --    3.76272   3.78343   3.85769   3.88489   3.92491
 Alpha virt. eigenvalues --    4.01262   4.09278   4.16298   4.17834   4.28654
 Alpha virt. eigenvalues --    4.31494   4.36654   4.37463   4.39316   4.47775
 Alpha virt. eigenvalues --    4.54441   4.61913   4.67898   4.73404   4.82302
 Alpha virt. eigenvalues --    4.86794   4.94286   5.01802   5.09686   5.10725
 Alpha virt. eigenvalues --    5.19156   5.28774   5.34333   5.49420   5.69722
 Alpha virt. eigenvalues --    5.72392   5.78460   6.10757   6.15022   6.23613
 Alpha virt. eigenvalues --    6.26702   6.43164   6.44887   6.69382   6.69889
 Alpha virt. eigenvalues --    6.71372   6.82333   6.97344   7.06140   7.16377
 Alpha virt. eigenvalues --    7.18822  13.91800  14.76296  16.54004  21.32519
          Condensed to atoms (all electrons):
              1          2          3          4          5          6
     1  C    5.435005   0.075813  -0.140103  -0.140290   0.152830   0.201559
     2  C    0.075813   5.457583   0.355268   0.355206   0.320722  -0.042766
     3  H   -0.140103   0.355268   0.512052   0.099440  -0.093987   0.037262
     4  H   -0.140290   0.355206   0.099440   0.512396  -0.094111   0.037301
     5  H    0.152830   0.320722  -0.093987  -0.094111   0.531064  -0.056999
     6  O    0.201559  -0.042766   0.037262   0.037301  -0.056999   8.347498
     7  Br   0.535056  -0.160035  -0.034247  -0.034320   0.030604  -0.181081
              7
     1  C    0.535056
     2  C   -0.160035
     3  H   -0.034247
     4  H   -0.034320
     5  H    0.030604
     6  O   -0.181081
     7  Br   6.758158
 Mulliken atomic charges:
              1
     1  C   -0.119871
     2  C   -0.361792
     3  H    0.264316
     4  H    0.264378
     5  H    0.209878
     6  O   -0.342775
     7  Br   0.085865
 Sum of Mulliken atomic charges =   0.00000
 Mulliken charges with hydrogens summed into heavy atoms:
              1
     1  C   -0.119871
     2  C    0.376780
     6  O   -0.342775
     7  Br   0.085865
 Sum of Mulliken charges with hydrogens summed into heavy atoms =   0.00000
 Electronic spatial extent (au):  <R**2>=            392.3789
 Charge=              0.0000 electrons
 Dipole moment (field-independent basis, Debye):
    X=              1.3168    Y=             -2.5731    Z=              0.0002  Tot=              2.8904
 Quadrupole moment (field-independent basis, Debye-Ang):
   XX=            -31.5123   YY=            -34.7702   ZZ=            -32.5652
   XY=             -4.4133   XZ=              0.0010   YZ=              0.0002
 Traceless Quadrupole moment (field-independent basis, Debye-Ang):
   XX=              1.4369   YY=             -1.8210   ZZ=              0.3841
   XY=             -4.4133   XZ=              0.0010   YZ=              0.0002
 Octapole moment (field-independent basis, Debye-Ang**2):
  XXX=            -33.8821  YYY=             -4.0878  ZZZ=              0.0006  XYY=            -12.1800
  XXY=             -7.2883  XXZ=             -0.0011  XZZ=             -9.7040  YZZ=             -0.2289
  YYZ=             -0.0002  XYZ=             -0.0009
 Hexadecapole moment (field-independent basis, Debye-Ang**3):
 XXXX=           -348.5135 YYYY=           -167.4326 ZZZZ=            -47.2250 XXXY=             -5.5007
 XXXZ=             -0.0039 YYYX=             -1.8859 YYYZ=              0.0002 ZZZX=              0.0038
 ZZZY=             -0.0026 XXYY=            -92.9545 XXZZ=            -69.3128 YYZZ=            -32.5739
 XXYZ=             -0.0017 YYXZ=              0.0030 ZZXY=              1.2436
 N-N= 9.588545304192D+01 E-N=-5.755002363052D+02  KE= 1.565357082222D+02
   1 Symmetry operations used in ECPInt.
 ECPInt:  NShTT=    2701 NPrTT=    7388 LenC2=    2702 LenP2D=    6793.
 LDataN:  DoStor=T MaxTD1= 7 Len=  274
 Calling FoFJK, ICntrl=      2127 FMM=F ISym2X=0 I1Cent= 0 IOpClX= 0 NMat=1 NMatS=1 NMatT=0.
 ***** Axes restored to original set *****
 -------------------------------------------------------------------
 Center     Atomic                   Forces (Hartrees/Bohr)
 Number     Number              X              Y              Z
 -------------------------------------------------------------------
      1        6           0.005344553    0.012910056   -0.000047553
      2        6           0.018465367   -0.021811309   -0.000013095
      3        1          -0.001857376    0.007977748   -0.006730694
      4        1          -0.001831599    0.007988007    0.006748949
      5        1          -0.009051789    0.003842126    0.000005565
      6        8          -0.004833980   -0.012312005    0.000023584
      7       35          -0.006235176    0.001405378    0.000013244
 -------------------------------------------------------------------
 Cartesian Forces:  Max     0.021811309 RMS     0.008590000

 GradGradGradGradGradGradGradGradGradGradGradGradGradGradGradGradGradGrad
 Berny optimization.
 Internal  Forces:  Max     0.013214646 RMS     0.005673298
 Search for a local minimum.
 Step number   1 out of a maximum of   31
 All quantities printed in internal units (Hartrees-Bohrs-Radians)
 Mixed Optimization -- RFO/linear search
 Second derivative matrix not updated -- first step.
     Eigenvalues ---    0.01011   0.01011   0.07204   0.07224   0.14160
     Eigenvalues ---    0.16000   0.16000   0.16000   0.25000   0.25000
     Eigenvalues ---    0.33157   0.33160   0.33305   0.34404   1.11968
     Eigenvalues --- 1000.000001000.000001000.000001000.000001000.00000
     Eigenvalues --- 1000.00000
 RFO step:  Lambda=-2.33267256D-03 EMin= 1.01136755D-02
 Linear search not attempted -- first point.
 Iteration  1 RMS(Cart)=  0.02121845 RMS(Int)=  0.00044509
 Iteration  2 RMS(Cart)=  0.00034939 RMS(Int)=  0.00026334
 Iteration  3 RMS(Cart)=  0.00000004 RMS(Int)=  0.00026334
 Variable       Old X    -DE/DX   Delta X   Delta X   Delta X     New X
                                 (Linear)    (Quad)   (Total)
    R1        2.79953   0.00452   0.00000   0.01304   0.01304   2.81257
    R2        2.24196  -0.01321   0.00000  -0.01178  -0.01178   2.23018
    R3        3.77744   0.00596   0.00000   0.04143   0.04143   3.81887
    R4        2.08771  -0.00937   0.00000  -0.02804  -0.02804   2.05967
    R5        2.08776  -0.00939   0.00000  -0.02811  -0.02811   2.05965
    R6        2.08519  -0.00851   0.00000  -0.02537  -0.02537   2.05982
    A1        2.24641  -0.00334   0.00000  -0.01324  -0.01324   2.23317
    A2        1.93167   0.00601   0.00000   0.02383   0.02383   1.95550
    A3        2.10511  -0.00267   0.00000  -0.01059  -0.01059   2.09452
    A4        1.95519  -0.00480   0.00000  -0.03155  -0.03205   1.92313
    A5        1.95506  -0.00479   0.00000  -0.03144  -0.03194   1.92311
    A6        1.94571  -0.00421   0.00000  -0.02198  -0.02222   1.92349
    A7        1.84980   0.00385   0.00000   0.01642   0.01565   1.86545
    A8        1.87635   0.00555   0.00000   0.03775   0.03752   1.91386
    A9        1.87646   0.00554   0.00000   0.03772   0.03749   1.91395
    D1        2.10321   0.00082   0.00000   0.01008   0.00986   2.11307
    D2       -2.10395  -0.00084   0.00000  -0.01213  -0.01191  -2.11586
    D3       -0.00034  -0.00001   0.00000  -0.00101  -0.00101  -0.00135
    D4       -1.03890   0.00084   0.00000   0.01240   0.01218  -1.02673
    D5        1.03713  -0.00081   0.00000  -0.00982  -0.00959   1.02753
    D6        3.14073   0.00002   0.00000   0.00131   0.00131  -3.14114
         Item               Value     Threshold  Converged?
 Maximum Force            0.013215     0.000450     NO 
 RMS     Force            0.005673     0.000300     NO 
 Maximum Displacement     0.043132     0.001800     NO 
 RMS     Displacement     0.021291     0.001200     NO 
 Predicted change in Energy=-1.177860D-03
 GradGradGradGradGradGradGradGradGradGradGradGradGradGradGradGradGradGrad

                          Input orientation:                          
 ---------------------------------------------------------------------
 Center     Atomic      Atomic             Coordinates (Angstroms)
 Number     Number       Type             X           Y           Z
 ---------------------------------------------------------------------
      1          6           0        1.014545    0.222494   -0.000602
      2          6           0        1.740883   -1.076585   -0.000194
      3          1           0        1.462750   -1.662742    0.875596
      4          1           0        1.462372   -1.663476   -0.875360
      5          1           0        2.817465   -0.906025   -0.000446
      6          8           0        1.472609    1.310132    0.000132
      7         35           0       -0.990519   -0.029680    0.000679
 ---------------------------------------------------------------------
                    Distance matrix (angstroms):
                    1          2          3          4          5
     1  C    0.000000
     2  C    1.488346   0.000000
     3  H    2.126670   1.089930   0.000000
     4  H    2.126647   1.089919   1.750956   0.000000
     5  H    2.126988   1.090010   1.781944   1.781988   0.000000
     6  O    1.180161   2.401747   3.099115   3.099827   2.592294
     7  Br   2.020860   2.925161   3.074232   3.074640   3.907522
                    6          7
     6  O    0.000000
     7  Br   2.803943   0.000000
 Stoichiometry    C2H3BrO
 Framework group  C1[X(C2H3BrO)]
 Deg. of freedom    15
 Full point group                 C1      NOp   1
 Largest Abelian subgroup         C1      NOp   1
 Largest concise Abelian subgroup C1      NOp   1
                         Standard orientation:                         
 ---------------------------------------------------------------------
 Center     Atomic      Atomic             Coordinates (Angstroms)
 Number     Number       Type             X           Y           Z
 ---------------------------------------------------------------------
      1          6           0        1.021938    0.235204   -0.000626
      2          6           0        1.766208   -1.053685    0.000091
      3          1           0        1.495941   -1.643594    0.875825
      4          1           0        1.496140   -1.644425   -0.875131
      5          1           0        2.840323   -0.868224    0.000177
      6          8           0        1.464887    1.329085    0.000194
      7         35           0       -0.979439   -0.044730    0.000022
 ---------------------------------------------------------------------
 Rotational constants (GHZ):     10.2100911      2.9214020      2.3034586
 Basis read from rwf:  (5D, 7F)
 Pseudo-potential data read from rwf file.
 There are   215 symmetry adapted basis functions of A   symmetry.
 Integral buffers will be    262144 words long.
 Raffenetti 2 integral format.
 Two-electron integral symmetry is turned on.
   215 basis functions,   309 primitive gaussians,   248 cartesian basis functions
    15 alpha electrons       15 beta electrons
       nuclear repulsion energy        95.8995699748 Hartrees.
 NAtoms=    7 NActive=    7 NUniq=    7 SFac= 7.50D-01 NAtFMM=   80 NAOKFM=F Big=F
 One-electron integrals computed using PRISM.
   1 Symmetry operations used in ECPInt.
 ECPInt:  NShTT=    2701 NPrTT=    7388 LenC2=    2702 LenP2D=    6793.
 LDataN:  DoStor=T MaxTD1= 6 Len=  172
 NBasis=   215 RedAO= T  NBF=   215
 NBsUse=   215 1.00D-06 NBFU=   215
 Initial guess read from the read-write file.
 B after Tr=     0.000000    0.000000    0.000000
         Rot=    1.000000    0.000000    0.000000    0.000000 Ang=   0.00 deg.
 Initial guess orbital symmetries:
       Occupied  (A) (A) (A) (A) (A) (A) (A) (A) (A) (A) (A) (A)
                 (A) (A) (A)
       Virtual   (A) (A) (A) (A) (A) (A) (A) (A) (A) (A) (A) (A)
                 (A) (A) (A) (A) (A) (A) (A) (A) (A) (A) (A) (A)
                 (A) (A) (A) (A) (A) (A) (A) (A) (A) (A) (A) (A)
                 (A) (A) (A) (A) (A) (A) (A) (A) (A) (A) (A) (A)
                 (A) (A) (A) (A) (A) (A) (A) (A) (A) (A) (A) (A)
                 (A) (A) (A) (A) (A) (A) (A) (A) (A) (A) (A) (A)
                 (A) (A) (A) (A) (A) (A) (A) (A) (A) (A) (A) (A)
                 (A) (A) (A) (A) (A) (A) (A) (A) (A) (A) (A) (A)
                 (A) (A) (A) (A) (A) (A) (A) (A) (A) (A) (A) (A)
                 (A) (A) (A) (A) (A) (A) (A) (A) (A) (A) (A) (A)
                 (A) (A) (A) (A) (A) (A) (A) (A) (A) (A) (A) (A)
                 (A) (A) (A) (A) (A) (A) (A) (A) (A) (A) (A) (A)
                 (A) (A) (A) (A) (A) (A) (A) (A) (A) (A) (A) (A)
                 (A) (A) (A) (A) (A) (A) (A) (A) (A) (A) (A) (A)
                 (A) (A) (A) (A) (A) (A) (A) (A) (A) (A) (A) (A)
                 (A) (A) (A) (A) (A) (A) (A) (A) (A) (A) (A) (A)
                 (A) (A) (A) (A) (A) (A) (A) (A)
 Harris functional with IExCor=  402 diagonalized for initial guess.
 ExpMin= 2.53D-02 ExpMax= 1.53D+04 ExpMxC= 5.22D+02 IAcc=3 IRadAn=         0 AccDes= 0.00D+00
 HarFok:  IExCor=  402 AccDes= 0.00D+00 IRadAn=         0 IDoV= 1
 ScaDFX=  1.000000  1.000000  1.000000  1.000000
 FoFCou: FMM=F IPFlag=           0 FMFlag=      100000 FMFlg1=           0
         NFxFlg=           0 DoJE=T BraDBF=F KetDBF=T FulRan=T
         Omega=  0.000000  0.000000  1.000000  0.000000  0.000000 ICntrl=     500 IOpCl=  0
         NMat0=    1 NMatS0=    1 NMatT0=    0 NMatD0=    1 NMtDS0=    0 NMtDT0=    0
         I1Cent=           4 NGrid=           0.
 Petite list used in FoFCou.
 Requested convergence on RMS density matrix=1.00D-08 within 128 cycles.
 Requested convergence on MAX density matrix=1.00D-06.
 Requested convergence on             energy=1.00D-06.
 No special actions if energy rises.
 SCF Done:  E(RB3LYP) =  -166.484164251     A.U. after   10 cycles
             Convg  =    0.7036D-08             -V/T =  2.0631
   1 Symmetry operations used in ECPInt.
 ECPInt:  NShTT=    2701 NPrTT=    7388 LenC2=    2702 LenP2D=    6793.
 LDataN:  DoStor=T MaxTD1= 7 Len=  274
 Calling FoFJK, ICntrl=      2127 FMM=F ISym2X=0 I1Cent= 0 IOpClX= 0 NMat=1 NMatS=1 NMatT=0.
 ***** Axes restored to original set *****
 -------------------------------------------------------------------
 Center     Atomic                   Forces (Hartrees/Bohr)
 Number     Number              X              Y              Z
 -------------------------------------------------------------------
      1        6           0.002728164    0.006647668    0.000191068
      2        6           0.004459797   -0.006857863   -0.000066722
      3        1          -0.001090987    0.000963259   -0.000096774
      4        1          -0.001073646    0.000936595    0.000094984
      5        1          -0.001541429    0.001855805   -0.000005427
      6        8          -0.002643151   -0.003542268   -0.000078860
      7       35          -0.000838748   -0.000003195   -0.000038269
 -------------------------------------------------------------------
 Cartesian Forces:  Max     0.006857863 RMS     0.002662142

 GradGradGradGradGradGradGradGradGradGradGradGradGradGradGradGradGradGrad
 Berny optimization.
 Using GEDIIS/GDIIS optimizer.
 Internal  Forces:  Max     0.004282028 RMS     0.001538543
 Search for a local minimum.
 Step number   2 out of a maximum of   31
 All quantities printed in internal units (Hartrees-Bohrs-Radians)
 Mixed Optimization -- RFO/linear search
 Update second derivatives using D2CorX and points    1    2
 DE= -1.40D-03 DEPred=-1.18D-03 R= 1.19D+00
 SS=  1.41D+00  RLast= 1.06D-01 DXNew= 5.0454D-01 3.1725D-01
 Trust test= 1.19D+00 RLast= 1.06D-01 DXMaxT set to 3.17D-01
 Use linear search instead of GDIIS.
     Eigenvalues ---    0.01011   0.01012   0.07460   0.07537   0.12353
     Eigenvalues ---    0.14547   0.16000   0.16086   0.24790   0.26079
     Eigenvalues ---    0.32177   0.33159   0.33378   0.36231   1.08873
     Eigenvalues --- 1000.000001000.000001000.000001000.000001000.00000
     Eigenvalues --- 1000.00000
 RFO step:  Lambda=-1.24901414D-04 EMin= 1.01136665D-02
 Quartic linear search produced a step of  0.22760.
 Iteration  1 RMS(Cart)=  0.00681408 RMS(Int)=  0.00013785
 Iteration  2 RMS(Cart)=  0.00008585 RMS(Int)=  0.00010551
 Iteration  3 RMS(Cart)=  0.00000001 RMS(Int)=  0.00010551
 Variable       Old X    -DE/DX   Delta X   Delta X   Delta X     New X
                                 (Linear)    (Quad)   (Total)
    R1        2.81257   0.00308   0.00297   0.00865   0.01161   2.82418
    R2        2.23018  -0.00428  -0.00268  -0.00262  -0.00530   2.22488
    R3        3.81887   0.00082   0.00943  -0.00077   0.00866   3.82753
    R4        2.05967  -0.00031  -0.00638   0.00392  -0.00247   2.05720
    R5        2.05965  -0.00030  -0.00640   0.00397  -0.00243   2.05722
    R6        2.05982  -0.00124  -0.00577   0.00001  -0.00576   2.05406
    A1        2.23317   0.00136  -0.00301   0.00912   0.00609   2.23926
    A2        1.95550  -0.00042   0.00542  -0.00643  -0.00102   1.95448
    A3        2.09452  -0.00094  -0.00241  -0.00267  -0.00510   2.08941
    A4        1.92313  -0.00127  -0.00730  -0.00399  -0.01150   1.91164
    A5        1.92311  -0.00122  -0.00727  -0.00359  -0.01106   1.91205
    A6        1.92349  -0.00223  -0.00506  -0.01218  -0.01739   1.90610
    A7        1.86545   0.00104   0.00356   0.00392   0.00721   1.87266
    A8        1.91386   0.00192   0.00854   0.00830   0.01669   1.93055
    A9        1.91395   0.00190   0.00853   0.00822   0.01661   1.93056
    D1        2.11307   0.00016   0.00224   0.00564   0.00783   2.12090
    D2       -2.11586  -0.00008  -0.00271   0.00583   0.00317  -2.11269
    D3       -0.00135   0.00005  -0.00023   0.00582   0.00559   0.00424
    D4       -1.02673   0.00007   0.00277  -0.00619  -0.00347  -1.03019
    D5        1.02753  -0.00017  -0.00218  -0.00600  -0.00813   1.01940
    D6       -3.14114  -0.00004   0.00030  -0.00601  -0.00571   3.13633
         Item               Value     Threshold  Converged?
 Maximum Force            0.004282     0.000450     NO 
 RMS     Force            0.001539     0.000300     NO 
 Maximum Displacement     0.015657     0.001800     NO 
 RMS     Displacement     0.006832     0.001200     NO 
 Predicted change in Energy=-1.173728D-04
 GradGradGradGradGradGradGradGradGradGradGradGradGradGradGradGradGradGrad

                          Input orientation:                          
 ---------------------------------------------------------------------
 Center     Atomic      Atomic             Coordinates (Angstroms)
 Number     Number       Type             X           Y           Z
 ---------------------------------------------------------------------
      1          6           0        1.019403    0.221308    0.003168
      2          6           0        1.746321   -1.084482    0.000357
      3          1           0        1.460007   -1.662251    0.877460
      4          1           0        1.455911   -1.661245   -0.876073
      5          1           0        2.817116   -0.897740   -0.002033
      6          8           0        1.471758    1.308286   -0.000921
      7         35           0       -0.990410   -0.029758   -0.002152
 ---------------------------------------------------------------------
                    Distance matrix (angstroms):
                    1          2          3          4          5
     1  C    0.000000
     2  C    1.494491   0.000000
     3  H    2.122808   1.088624   0.000000
     4  H    2.123113   1.088633   1.753538   0.000000
     5  H    2.117562   1.086959   1.788779   1.788789   0.000000
     6  O    1.177354   2.408469   3.097706   3.095845   2.583900
     7  Br   2.025441   2.932942   3.072995   3.067569   3.905208
                    6          7
     6  O    0.000000
     7  Br   2.802255   0.000000
 Stoichiometry    C2H3BrO
 Framework group  C1[X(C2H3BrO)]
 Deg. of freedom    15
 Full point group                 C1      NOp   1
 Largest Abelian subgroup         C1      NOp   1
 Largest concise Abelian subgroup C1      NOp   1
                         Standard orientation:                         
 ---------------------------------------------------------------------
 Center     Atomic      Atomic             Coordinates (Angstroms)
 Number     Number       Type             X           Y           Z
 ---------------------------------------------------------------------
      1          6           0       -1.025553    0.236861   -0.003273
      2          6           0       -1.772685   -1.057467    0.000557
      3          1           0       -1.496261   -1.639805   -0.876697
      4          1           0       -1.490409   -1.638489    0.876831
      5          1           0       -2.840444   -0.854095    0.003964
      6          8           0       -1.460946    1.330743    0.001016
      7         35           0        0.980118   -0.045426    0.000116
 ---------------------------------------------------------------------
 Rotational constants (GHZ):     10.1815002      2.9169372      2.2993254
 Basis read from rwf:  (5D, 7F)
 Pseudo-potential data read from rwf file.
 There are   215 symmetry adapted basis functions of A   symmetry.
 Integral buffers will be    262144 words long.
 Raffenetti 2 integral format.
 Two-electron integral symmetry is turned on.
   215 basis functions,   309 primitive gaussians,   248 cartesian basis functions
    15 alpha electrons       15 beta electrons
       nuclear repulsion energy        95.8658154615 Hartrees.
 NAtoms=    7 NActive=    7 NUniq=    7 SFac= 7.50D-01 NAtFMM=   80 NAOKFM=F Big=F
 One-electron integrals computed using PRISM.
   1 Symmetry operations used in ECPInt.
 ECPInt:  NShTT=    2701 NPrTT=    7388 LenC2=    2702 LenP2D=    6793.
 LDataN:  DoStor=T MaxTD1= 6 Len=  172
 NBasis=   215 RedAO= T  NBF=   215
 NBsUse=   215 1.00D-06 NBFU=   215
 Initial guess read from the read-write file.
 B after Tr=     0.000000    0.000000    0.000000
         Rot=    1.000000    0.000000    0.000000    0.000000 Ang=   0.00 deg.
 Initial guess orbital symmetries:
       Occupied  (A) (A) (A) (A) (A) (A) (A) (A) (A) (A) (A) (A)
                 (A) (A) (A)
       Virtual   (A) (A) (A) (A) (A) (A) (A) (A) (A) (A) (A) (A)
                 (A) (A) (A) (A) (A) (A) (A) (A) (A) (A) (A) (A)
                 (A) (A) (A) (A) (A) (A) (A) (A) (A) (A) (A) (A)
                 (A) (A) (A) (A) (A) (A) (A) (A) (A) (A) (A) (A)
                 (A) (A) (A) (A) (A) (A) (A) (A) (A) (A) (A) (A)
                 (A) (A) (A) (A) (A) (A) (A) (A) (A) (A) (A) (A)
                 (A) (A) (A) (A) (A) (A) (A) (A) (A) (A) (A) (A)
                 (A) (A) (A) (A) (A) (A) (A) (A) (A) (A) (A) (A)
                 (A) (A) (A) (A) (A) (A) (A) (A) (A) (A) (A) (A)
                 (A) (A) (A) (A) (A) (A) (A) (A) (A) (A) (A) (A)
                 (A) (A) (A) (A) (A) (A) (A) (A) (A) (A) (A) (A)
                 (A) (A) (A) (A) (A) (A) (A) (A) (A) (A) (A) (A)
                 (A) (A) (A) (A) (A) (A) (A) (A) (A) (A) (A) (A)
                 (A) (A) (A) (A) (A) (A) (A) (A) (A) (A) (A) (A)
                 (A) (A) (A) (A) (A) (A) (A) (A) (A) (A) (A) (A)
                 (A) (A) (A) (A) (A) (A) (A) (A) (A) (A) (A) (A)
                 (A) (A) (A) (A) (A) (A) (A) (A)
 Requested convergence on RMS density matrix=1.00D-08 within 128 cycles.
 Requested convergence on MAX density matrix=1.00D-06.
 Requested convergence on             energy=1.00D-06.
 No special actions if energy rises.
 SCF Done:  E(RB3LYP) =  -166.484284809     A.U. after   13 cycles
             Convg  =    0.1437D-08             -V/T =  2.0631
   1 Symmetry operations used in ECPInt.
 ECPInt:  NShTT=    2701 NPrTT=    7388 LenC2=    2702 LenP2D=    6793.
 LDataN:  DoStor=T MaxTD1= 7 Len=  274
 Calling FoFJK, ICntrl=      2127 FMM=F ISym2X=0 I1Cent= 0 IOpClX= 0 NMat=1 NMatS=1 NMatT=0.
 ***** Axes restored to original set *****
 -------------------------------------------------------------------
 Center     Atomic                   Forces (Hartrees/Bohr)
 Number     Number              X              Y              Z
 -------------------------------------------------------------------
      1        6           0.000543961    0.001501672   -0.001005153
      2        6          -0.000028182   -0.000803239    0.000350054
      3        1          -0.000069692   -0.000108680    0.000284774
      4        1          -0.000141686    0.000031633   -0.000272532
      5        1           0.000506773    0.000091723    0.000024899
      6        8          -0.000279894   -0.000427798    0.000407079
      7       35          -0.000531280   -0.000285312    0.000210880
 -------------------------------------------------------------------
 Cartesian Forces:  Max     0.001501672 RMS     0.000517500

 GradGradGradGradGradGradGradGradGradGradGradGradGradGradGradGradGradGrad
 Berny optimization.
 Using GEDIIS/GDIIS optimizer.
 Internal  Forces:  Max     0.000826289 RMS     0.000347595
 Search for a local minimum.
 Step number   3 out of a maximum of   31
 All quantities printed in internal units (Hartrees-Bohrs-Radians)
 Mixed Optimization -- En-DIIS/RFO-DIIS
 Update second derivatives using D2CorX and points    1    2    3
 DE= -1.21D-04 DEPred=-1.17D-04 R= 1.03D+00
 SS=  1.41D+00  RLast= 4.15D-02 DXNew= 5.3355D-01 1.2456D-01
 Trust test= 1.03D+00 RLast= 4.15D-02 DXMaxT set to 3.17D-01
 Use linear search instead of GDIIS.
     Eigenvalues ---    0.01011   0.01066   0.07612   0.07664   0.11088
     Eigenvalues ---    0.15060   0.16013   0.16353   0.25006   0.25953
     Eigenvalues ---    0.31723   0.33160   0.33470   0.36892   1.07483
     Eigenvalues --- 1000.000001000.000001000.000001000.000001000.00000
     Eigenvalues --- 1000.00000
 RFO step:  Lambda=-4.66667676D-05 EMin= 1.01136385D-02
 Quartic linear search produced a step of  0.04854.
 Iteration  1 RMS(Cart)=  0.01076434 RMS(Int)=  0.00018171
 Iteration  2 RMS(Cart)=  0.00016248 RMS(Int)=  0.00012319
 Iteration  3 RMS(Cart)=  0.00000001 RMS(Int)=  0.00012319
 Variable       Old X    -DE/DX   Delta X   Delta X   Delta X     New X
                                 (Linear)    (Quad)   (Total)
    R1        2.82418   0.00083   0.00056   0.00423   0.00479   2.82897
    R2        2.22488  -0.00050  -0.00026  -0.00136  -0.00162   2.22326
    R3        3.82753   0.00055   0.00042   0.00590   0.00632   3.83385
    R4        2.05720   0.00031  -0.00012   0.00015   0.00003   2.05723
    R5        2.05722   0.00025  -0.00012  -0.00005  -0.00017   2.05705
    R6        2.05406   0.00051  -0.00028   0.00038   0.00010   2.05416
    A1        2.23926   0.00034   0.00030   0.00207   0.00204   2.24129
    A2        1.95448  -0.00052  -0.00005  -0.00173  -0.00210   1.95237
    A3        2.08941   0.00018  -0.00025   0.00005  -0.00052   2.08889
    A4        1.91164  -0.00004  -0.00056  -0.00226  -0.00283   1.90881
    A5        1.91205  -0.00029  -0.00054  -0.00397  -0.00452   1.90753
    A6        1.90610   0.00008  -0.00084  -0.00206  -0.00292   1.90319
    A7        1.87266   0.00015   0.00035   0.00206   0.00240   1.87506
    A8        1.93055   0.00000   0.00081   0.00294   0.00375   1.93430
    A9        1.93056   0.00009   0.00081   0.00324   0.00404   1.93459
    D1        2.12090  -0.00022   0.00038  -0.02288  -0.02250   2.09841
    D2       -2.11269  -0.00023   0.00015  -0.02402  -0.02386  -2.13654
    D3        0.00424  -0.00025   0.00027  -0.02380  -0.02352  -0.01928
    D4       -1.03019   0.00027  -0.00017   0.02591   0.02573  -1.00446
    D5        1.01940   0.00025  -0.00039   0.02477   0.02437   1.04377
    D6        3.13633   0.00023  -0.00028   0.02499   0.02471  -3.12215
         Item               Value     Threshold  Converged?
 Maximum Force            0.000826     0.000450     NO 
 RMS     Force            0.000348     0.000300     NO 
 Maximum Displacement     0.030456     0.001800     NO 
 RMS     Displacement     0.010786     0.001200     NO 
 Predicted change in Energy=-2.360454D-05
 GradGradGradGradGradGradGradGradGradGradGradGradGradGradGradGradGradGrad

                          Input orientation:                          
 ---------------------------------------------------------------------
 Center     Atomic      Atomic             Coordinates (Angstroms)
 Number     Number       Type             X           Y           Z
 ---------------------------------------------------------------------
      1          6           0        1.021136    0.222195   -0.012948
      2          6           0        1.748030   -1.086468   -0.001988
      3          1           0        1.450074   -1.657585    0.875612
      4          1           0        1.462287   -1.663961   -0.879359
      5          1           0        2.818484   -0.897581    0.004939
      6          8           0        1.471706    1.308873    0.003357
      7         35           0       -0.991612   -0.031355    0.010192
 ---------------------------------------------------------------------
                    Distance matrix (angstroms):
                    1          2          3          4          5
     1  C    0.000000
     2  C    1.497028   0.000000
     3  H    2.122994   1.088639   0.000000
     4  H    2.121996   1.088543   1.755025   0.000000
     5  H    2.117705   1.087013   1.791151   1.791254   0.000000
     6  O    1.176498   2.411232   3.092114   3.101131   2.585004
     7  Br   2.028787   2.935822   3.058661   3.078688   3.907327
                    6          7
     6  O    0.000000
     7  Br   2.804317   0.000000
 Stoichiometry    C2H3BrO
 Framework group  C1[X(C2H3BrO)]
 Deg. of freedom    15
 Full point group                 C1      NOp   1
 Largest Abelian subgroup         C1      NOp   1
 Largest concise Abelian subgroup C1      NOp   1
                         Standard orientation:                         
 ---------------------------------------------------------------------
 Center     Atomic      Atomic             Coordinates (Angstroms)
 Number     Number       Type             X           Y           Z
 ---------------------------------------------------------------------
      1          6           0        1.027928    0.237930   -0.013339
      2          6           0        1.774011   -1.059842    0.002230
      3          1           0        1.480350   -1.634583    0.878911
      4          1           0        1.501007   -1.642208   -0.875975
      5          1           0        2.841513   -0.855154    0.014072
      6          8           0        1.462315    1.331159    0.004144
      7         35           0       -0.980943   -0.045310    0.000471
 ---------------------------------------------------------------------
 Rotational constants (GHZ):     10.1636862      2.9119059      2.2953932
 Basis read from rwf:  (5D, 7F)
 Pseudo-potential data read from rwf file.
 There are   215 symmetry adapted basis functions of A   symmetry.
 Integral buffers will be    262144 words long.
 Raffenetti 2 integral format.
 Two-electron integral symmetry is turned on.
   215 basis functions,   309 primitive gaussians,   248 cartesian basis functions
    15 alpha electrons       15 beta electrons
       nuclear repulsion energy        95.8142937636 Hartrees.
 NAtoms=    7 NActive=    7 NUniq=    7 SFac= 7.50D-01 NAtFMM=   80 NAOKFM=F Big=F
 One-electron integrals computed using PRISM.
   1 Symmetry operations used in ECPInt.
 ECPInt:  NShTT=    2701 NPrTT=    7388 LenC2=    2702 LenP2D=    6793.
 LDataN:  DoStor=T MaxTD1= 6 Len=  172
 NBasis=   215 RedAO= T  NBF=   215
 NBsUse=   215 1.00D-06 NBFU=   215
 Initial guess read from the read-write file.
 B after Tr=     0.000000    0.000000    0.000000
         Rot=    1.000000    0.000000    0.000000    0.000000 Ang=   0.00 deg.
 Initial guess orbital symmetries:
       Occupied  (A) (A) (A) (A) (A) (A) (A) (A) (A) (A) (A) (A)
                 (A) (A) (A)
       Virtual   (A) (A) (A) (A) (A) (A) (A) (A) (A) (A) (A) (A)
                 (A) (A) (A) (A) (A) (A) (A) (A) (A) (A) (A) (A)
                 (A) (A) (A) (A) (A) (A) (A) (A) (A) (A) (A) (A)
                 (A) (A) (A) (A) (A) (A) (A) (A) (A) (A) (A) (A)
                 (A) (A) (A) (A) (A) (A) (A) (A) (A) (A) (A) (A)
                 (A) (A) (A) (A) (A) (A) (A) (A) (A) (A) (A) (A)
                 (A) (A) (A) (A) (A) (A) (A) (A) (A) (A) (A) (A)
                 (A) (A) (A) (A) (A) (A) (A) (A) (A) (A) (A) (A)
                 (A) (A) (A) (A) (A) (A) (A) (A) (A) (A) (A) (A)
                 (A) (A) (A) (A) (A) (A) (A) (A) (A) (A) (A) (A)
                 (A) (A) (A) (A) (A) (A) (A) (A) (A) (A) (A) (A)
                 (A) (A) (A) (A) (A) (A) (A) (A) (A) (A) (A) (A)
                 (A) (A) (A) (A) (A) (A) (A) (A) (A) (A) (A) (A)
                 (A) (A) (A) (A) (A) (A) (A) (A) (A) (A) (A) (A)
                 (A) (A) (A) (A) (A) (A) (A) (A) (A) (A) (A) (A)
                 (A) (A) (A) (A) (A) (A) (A) (A) (A) (A) (A) (A)
                 (A) (A) (A) (A) (A) (A) (A) (A)
 Harris functional with IExCor=  402 diagonalized for initial guess.
 ExpMin= 2.53D-02 ExpMax= 1.53D+04 ExpMxC= 5.22D+02 IAcc=3 IRadAn=         0 AccDes= 0.00D+00
 HarFok:  IExCor=  402 AccDes= 0.00D+00 IRadAn=         0 IDoV= 1
 ScaDFX=  1.000000  1.000000  1.000000  1.000000
 FoFCou: FMM=F IPFlag=           0 FMFlag=      100000 FMFlg1=           0
         NFxFlg=           0 DoJE=T BraDBF=F KetDBF=T FulRan=T
         Omega=  0.000000  0.000000  1.000000  0.000000  0.000000 ICntrl=     500 IOpCl=  0
         NMat0=    1 NMatS0=    1 NMatT0=    0 NMatD0=    1 NMtDS0=    0 NMtDT0=    0
         I1Cent=           4 NGrid=           0.
 Petite list used in FoFCou.
 Requested convergence on RMS density matrix=1.00D-08 within 128 cycles.
 Requested convergence on MAX density matrix=1.00D-06.
 Requested convergence on             energy=1.00D-06.
 No special actions if energy rises.
 SCF Done:  E(RB3LYP) =  -166.484232970     A.U. after   15 cycles
             Convg  =    0.1795D-08             -V/T =  2.0631
   1 Symmetry operations used in ECPInt.
 ECPInt:  NShTT=    2701 NPrTT=    7388 LenC2=    2702 LenP2D=    6793.
 LDataN:  DoStor=T MaxTD1= 7 Len=  274
 Calling FoFJK, ICntrl=      2127 FMM=F ISym2X=0 I1Cent= 0 IOpClX= 0 NMat=1 NMatS=1 NMatT=0.
 ***** Axes restored to original set *****
 -------------------------------------------------------------------
 Center     Atomic                   Forces (Hartrees/Bohr)
 Number     Number              X              Y              Z
 -------------------------------------------------------------------
      1        6           0.000056440   -0.000313155    0.004063173
      2        6          -0.001003683    0.000931372   -0.001415183
      3        1           0.000038451    0.000065438    0.000152313
      4        1           0.000331401   -0.000508704   -0.000208377
      5        1           0.000477081   -0.000294415   -0.000101023
      6        8           0.000168351    0.000323818   -0.001637975
      7       35          -0.000068042   -0.000204353   -0.000852928
 -------------------------------------------------------------------
 Cartesian Forces:  Max     0.004063173 RMS     0.001087674

 GradGradGradGradGradGradGradGradGradGradGradGradGradGradGradGradGradGrad
 Berny optimization.
 Using GEDIIS/GDIIS optimizer.
 Internal  Forces:  Max     0.001083139 RMS     0.000604045
 Search for a local minimum.
 Step number   4 out of a maximum of   31
 All quantities printed in internal units (Hartrees-Bohrs-Radians)
 Mixed Optimization -- En-DIIS/RFO-DIIS
 Swaping is turned off.
 Update second derivatives using D2CorX and points    1    2    3    4
 DE=  5.18D-05 DEPred=-2.36D-05 R=-2.20D+00
 Trust test=-2.20D+00 RLast= 6.04D-02 DXMaxT set to 1.59D-01
     Eigenvalues ---    0.01011   0.03807   0.06025   0.07694   0.08104
     Eigenvalues ---    0.15101   0.16404   0.16630   0.24919   0.25445
     Eigenvalues ---    0.30418   0.33188   0.33522   0.34622   1.04197
     Eigenvalues --- 1000.000001000.000001000.000001000.000001000.00000
     Eigenvalues --- 1000.00000
 En-DIIS/RFO-DIIS IScMMF=        0 using points:     4    3
 RFO step:  Lambda=-2.92704192D-05.
 DIIS coeffs:      0.23945      0.76055
 Iteration  1 RMS(Cart)=  0.00870960 RMS(Int)=  0.00008445
 Iteration  2 RMS(Cart)=  0.00010316 RMS(Int)=  0.00001062
 Iteration  3 RMS(Cart)=  0.00000000 RMS(Int)=  0.00001062
 Variable       Old X    -DE/DX   Delta X   Delta X   Delta X     New X
                                  (DIIS)     (GDIIS)  (Total)
    R1        2.82897  -0.00025  -0.00365   0.00325  -0.00040   2.82858
    R2        2.22326   0.00035   0.00123  -0.00097   0.00026   2.22352
    R3        3.83385   0.00007  -0.00481   0.00529   0.00048   3.83433
    R4        2.05723   0.00008  -0.00002   0.00026   0.00024   2.05747
    R5        2.05705   0.00036   0.00013   0.00028   0.00041   2.05745
    R6        2.05416   0.00041  -0.00008   0.00087   0.00079   2.05495
    A1        2.24129   0.00018  -0.00155   0.00169   0.00017   2.24146
    A2        1.95237  -0.00035   0.00160  -0.00197  -0.00034   1.95203
    A3        2.08889   0.00023   0.00040   0.00037   0.00080   2.08969
    A4        1.90881  -0.00031   0.00215  -0.00218  -0.00003   1.90878
    A5        1.90753   0.00072   0.00344  -0.00205   0.00139   1.90892
    A6        1.90319   0.00045   0.00222  -0.00054   0.00168   1.90487
    A7        1.87506  -0.00014  -0.00183   0.00149  -0.00033   1.87473
    A8        1.93430  -0.00018  -0.00285   0.00162  -0.00123   1.93307
    A9        1.93459  -0.00053  -0.00307   0.00159  -0.00148   1.93312
    D1        2.09841   0.00088   0.01711   0.00182   0.01893   2.11734
    D2       -2.13654   0.00095   0.01815   0.00117   0.01932  -2.11723
    D3       -0.01928   0.00102   0.01789   0.00152   0.01941   0.00012
    D4       -1.00446  -0.00108  -0.01957  -0.00116  -0.02073  -1.02519
    D5        1.04377  -0.00101  -0.01854  -0.00181  -0.02034   1.02343
    D6       -3.12215  -0.00094  -0.01879  -0.00146  -0.02025   3.14078
         Item               Value     Threshold  Converged?
 Maximum Force            0.001083     0.000450     NO 
 RMS     Force            0.000604     0.000300     NO 
 Maximum Displacement     0.025026     0.001800     NO 
 RMS     Displacement     0.008710     0.001200     NO 
 Predicted change in Energy=-6.049169D-05
 GradGradGradGradGradGradGradGradGradGradGradGradGradGradGradGradGradGrad

                          Input orientation:                          
 ---------------------------------------------------------------------
 Center     Atomic      Atomic             Coordinates (Angstroms)
 Number     Number       Type             X           Y           Z
 ---------------------------------------------------------------------
      1          6           0        1.020975    0.222645    0.000295
      2          6           0        1.747717   -1.085908   -0.000065
      3          1           0        1.456952   -1.660596    0.877771
      4          1           0        1.455812   -1.660904   -0.877314
      5          1           0        2.818936   -0.898837   -0.000767
      6          8           0        1.471762    1.309504   -0.000196
      7         35           0       -0.992049   -0.031786    0.000083
 ---------------------------------------------------------------------
                    Distance matrix (angstroms):
                    1          2          3          4          5
     1  C    0.000000
     2  C    1.496818   0.000000
     3  H    2.122884   1.088764   0.000000
     4  H    2.122978   1.088758   1.755085   0.000000
     5  H    2.119052   1.087431   1.790839   1.790861   0.000000
     6  O    1.176636   2.411255   3.097183   3.097243   2.586822
     7  Br   2.029040   2.935557   3.069360   3.068530   3.908373
                    6          7
     6  O    0.000000
     7  Br   2.805250   0.000000
 Stoichiometry    C2H3BrO
 Framework group  C1[X(C2H3BrO)]
 Deg. of freedom    15
 Full point group                 C1      NOp   1
 Largest Abelian subgroup         C1      NOp   1
 Largest concise Abelian subgroup C1      NOp   1
                         Standard orientation:                         
 ---------------------------------------------------------------------
 Center     Atomic      Atomic             Coordinates (Angstroms)
 Number     Number       Type             X           Y           Z
 ---------------------------------------------------------------------
      1          6           0        1.028091    0.237983    0.000254
      2          6           0        1.773451   -1.060055   -0.000106
      3          1           0        1.490925   -1.638838    0.877730
      4          1           0        1.489789   -1.639162   -0.877355
      5          1           0        2.841888   -0.857701   -0.000809
      6          8           0        1.463306    1.331171   -0.000238
      7         35           0       -0.981094   -0.045178    0.000041
 ---------------------------------------------------------------------
 Rotational constants (GHZ):     10.1616037      2.9110986      2.2947369
 Basis read from rwf:  (5D, 7F)
 Pseudo-potential data read from rwf file.
 There are   215 symmetry adapted basis functions of A   symmetry.
 Integral buffers will be    262144 words long.
 Raffenetti 2 integral format.
 Two-electron integral symmetry is turned on.
   215 basis functions,   309 primitive gaussians,   248 cartesian basis functions
    15 alpha electrons       15 beta electrons
       nuclear repulsion energy        95.8035853215 Hartrees.
 NAtoms=    7 NActive=    7 NUniq=    7 SFac= 7.50D-01 NAtFMM=   80 NAOKFM=F Big=F
 One-electron integrals computed using PRISM.
   1 Symmetry operations used in ECPInt.
 ECPInt:  NShTT=    2701 NPrTT=    7388 LenC2=    2702 LenP2D=    6793.
 LDataN:  DoStor=T MaxTD1= 6 Len=  172
 NBasis=   215 RedAO= T  NBF=   215
 NBsUse=   215 1.00D-06 NBFU=   215
 Initial guess read from the read-write file.
 B after Tr=     0.000000    0.000000    0.000000
         Rot=    1.000000    0.000000    0.000000    0.000000 Ang=   0.00 deg.
 Initial guess orbital symmetries:
       Occupied  (A) (A) (A) (A) (A) (A) (A) (A) (A) (A) (A) (A)
                 (A) (A) (A)
       Virtual   (A) (A) (A) (A) (A) (A) (A) (A) (A) (A) (A) (A)
                 (A) (A) (A) (A) (A) (A) (A) (A) (A) (A) (A) (A)
                 (A) (A) (A) (A) (A) (A) (A) (A) (A) (A) (A) (A)
                 (A) (A) (A) (A) (A) (A) (A) (A) (A) (A) (A) (A)
                 (A) (A) (A) (A) (A) (A) (A) (A) (A) (A) (A) (A)
                 (A) (A) (A) (A) (A) (A) (A) (A) (A) (A) (A) (A)
                 (A) (A) (A) (A) (A) (A) (A) (A) (A) (A) (A) (A)
                 (A) (A) (A) (A) (A) (A) (A) (A) (A) (A) (A) (A)
                 (A) (A) (A) (A) (A) (A) (A) (A) (A) (A) (A) (A)
                 (A) (A) (A) (A) (A) (A) (A) (A) (A) (A) (A) (A)
                 (A) (A) (A) (A) (A) (A) (A) (A) (A) (A) (A) (A)
                 (A) (A) (A) (A) (A) (A) (A) (A) (A) (A) (A) (A)
                 (A) (A) (A) (A) (A) (A) (A) (A) (A) (A) (A) (A)
                 (A) (A) (A) (A) (A) (A) (A) (A) (A) (A) (A) (A)
                 (A) (A) (A) (A) (A) (A) (A) (A) (A) (A) (A) (A)
                 (A) (A) (A) (A) (A) (A) (A) (A) (A) (A) (A) (A)
                 (A) (A) (A) (A) (A) (A) (A) (A)
 Harris functional with IExCor=  402 diagonalized for initial guess.
 ExpMin= 2.53D-02 ExpMax= 1.53D+04 ExpMxC= 5.22D+02 IAcc=3 IRadAn=         0 AccDes= 0.00D+00
 HarFok:  IExCor=  402 AccDes= 0.00D+00 IRadAn=         0 IDoV= 1
 ScaDFX=  1.000000  1.000000  1.000000  1.000000
 FoFCou: FMM=F IPFlag=           0 FMFlag=      100000 FMFlg1=           0
         NFxFlg=           0 DoJE=T BraDBF=F KetDBF=T FulRan=T
         Omega=  0.000000  0.000000  1.000000  0.000000  0.000000 ICntrl=     500 IOpCl=  0
         NMat0=    1 NMatS0=    1 NMatT0=    0 NMatD0=    1 NMtDS0=    0 NMtDT0=    0
         I1Cent=           4 NGrid=           0.
 Petite list used in FoFCou.
 Requested convergence on RMS density matrix=1.00D-08 within 128 cycles.
 Requested convergence on MAX density matrix=1.00D-06.
 Requested convergence on             energy=1.00D-06.
 No special actions if energy rises.
 SCF Done:  E(RB3LYP) =  -166.484292610     A.U. after    9 cycles
             Convg  =    0.5199D-08             -V/T =  2.0631
   1 Symmetry operations used in ECPInt.
 ECPInt:  NShTT=    2701 NPrTT=    7388 LenC2=    2702 LenP2D=    6793.
 LDataN:  DoStor=T MaxTD1= 7 Len=  274
 Calling FoFJK, ICntrl=      2127 FMM=F ISym2X=0 I1Cent= 0 IOpClX= 0 NMat=1 NMatS=1 NMatT=0.
 ***** Axes restored to original set *****
 -------------------------------------------------------------------
 Center     Atomic                   Forces (Hartrees/Bohr)
 Number     Number              X              Y              Z
 -------------------------------------------------------------------
      1        6           0.000197104   -0.000093243   -0.000103206
      2        6          -0.000639951    0.000590329    0.000037891
      3        1           0.000121917   -0.000134597    0.000102214
      4        1           0.000113993   -0.000118201   -0.000101975
      5        1           0.000193248   -0.000149196    0.000002648
      6        8          -0.000031738    0.000047092    0.000040622
      7       35           0.000045427   -0.000142184    0.000021806
 -------------------------------------------------------------------
 Cartesian Forces:  Max     0.000639951 RMS     0.000216651

 GradGradGradGradGradGradGradGradGradGradGradGradGradGradGradGradGradGrad
 Berny optimization.
 Using GEDIIS/GDIIS optimizer.
 Internal  Forces:  Max     0.000305820 RMS     0.000143958
 Search for a local minimum.
 Step number   5 out of a maximum of   31
 All quantities printed in internal units (Hartrees-Bohrs-Radians)
 Mixed Optimization -- En-DIIS/RFO-DIIS
 Swaping is turned off.
 Update second derivatives using D2CorX and points    1    2    3    4    5
 DE= -5.96D-05 DEPred=-6.05D-05 R= 9.86D-01
 SS=  1.41D+00  RLast= 4.87D-02 DXNew= 2.6678D-01 1.4612D-01
 Trust test= 9.86D-01 RLast= 4.87D-02 DXMaxT set to 1.59D-01
     Eigenvalues ---    0.01011   0.04884   0.07681   0.07735   0.10446
     Eigenvalues ---    0.15225   0.16284   0.16554   0.22516   0.25116
     Eigenvalues ---    0.31900   0.32827   0.33190   0.33725   1.05385
     Eigenvalues --- 1000.000001000.000001000.000001000.000001000.00000
     Eigenvalues --- 1000.00000
 En-DIIS/RFO-DIIS IScMMF=        0 using points:     5    4    3
 RFO step:  Lambda=-9.82764141D-07.
 DIIS coeffs:      0.80845      0.04385      0.14770
 Iteration  1 RMS(Cart)=  0.00085954 RMS(Int)=  0.00000425
 Iteration  2 RMS(Cart)=  0.00000085 RMS(Int)=  0.00000417
 Variable       Old X    -DE/DX   Delta X   Delta X   Delta X     New X
                                  (DIIS)     (GDIIS)  (Total)
    R1        2.82858  -0.00026  -0.00063  -0.00023  -0.00086   2.82772
    R2        2.22352   0.00004   0.00019   0.00001   0.00020   2.22372
    R3        3.83433  -0.00004  -0.00103   0.00040  -0.00062   3.83371
    R4        2.05747   0.00013  -0.00005   0.00057   0.00052   2.05799
    R5        2.05745   0.00012  -0.00005   0.00057   0.00052   2.05797
    R6        2.05495   0.00016  -0.00017   0.00080   0.00063   2.05558
    A1        2.24146   0.00018  -0.00033   0.00086   0.00053   2.24200
    A2        1.95203  -0.00031   0.00038  -0.00147  -0.00109   1.95095
    A3        2.08969   0.00013  -0.00008   0.00062   0.00055   2.09024
    A4        1.90878   0.00014   0.00042   0.00067   0.00109   1.90988
    A5        1.90892   0.00011   0.00040   0.00064   0.00104   1.90996
    A6        1.90487   0.00022   0.00011   0.00128   0.00139   1.90626
    A7        1.87473  -0.00008  -0.00029  -0.00012  -0.00041   1.87432
    A8        1.93307  -0.00020  -0.00032  -0.00123  -0.00155   1.93153
    A9        1.93312  -0.00019  -0.00031  -0.00123  -0.00154   1.93157
    D1        2.11734  -0.00005  -0.00030  -0.00046  -0.00077   2.11657
    D2       -2.11723   0.00000  -0.00018   0.00015  -0.00003  -2.11726
    D3        0.00012  -0.00003  -0.00024  -0.00017  -0.00041  -0.00029
    D4       -1.02519   0.00000   0.00017  -0.00005   0.00012  -1.02507
    D5        1.02343   0.00005   0.00030   0.00056   0.00086   1.02429
    D6        3.14078   0.00002   0.00023   0.00025   0.00048   3.14126
         Item               Value     Threshold  Converged?
 Maximum Force            0.000306     0.000450     YES
 RMS     Force            0.000144     0.000300     YES
 Maximum Displacement     0.002137     0.001800     NO 
 RMS     Displacement     0.000860     0.001200     YES
 Predicted change in Energy=-1.158068D-06
 GradGradGradGradGradGradGradGradGradGradGradGradGradGradGradGradGradGrad

                          Input orientation:                          
 ---------------------------------------------------------------------
 Center     Atomic      Atomic             Coordinates (Angstroms)
 Number     Number       Type             X           Y           Z
 ---------------------------------------------------------------------
      1          6           0        1.021033    0.223221   -0.000006
      2          6           0        1.747066   -1.085206   -0.000104
      3          1           0        1.456844   -1.660578    0.877806
      4          1           0        1.456020   -1.660996   -0.877457
      5          1           0        2.818941   -0.899968   -0.000623
      6          8           0        1.471685    1.310250   -0.000136
      7         35           0       -0.991483   -0.032606    0.000326
 ---------------------------------------------------------------------
                    Distance matrix (angstroms):
                    1          2          3          4          5
     1  C    0.000000
     2  C    1.496364   0.000000
     3  H    2.123484   1.089040   0.000000
     4  H    2.123537   1.089032   1.755263   0.000000
     5  H    2.119912   1.087763   1.790384   1.790407   0.000000
     6  O    1.176741   2.411233   3.097874   3.098102   2.588467
     7  Br   2.028711   2.933874   3.068317   3.067968   3.907896
                    6          7
     6  O    0.000000
     7  Br   2.805434   0.000000
 Stoichiometry    C2H3BrO
 Framework group  C1[X(C2H3BrO)]
 Deg. of freedom    15
 Full point group                 C1      NOp   1
 Largest Abelian subgroup         C1      NOp   1
 Largest concise Abelian subgroup C1      NOp   1
                         Standard orientation:                         
 ---------------------------------------------------------------------
 Center     Atomic      Atomic             Coordinates (Angstroms)
 Number     Number       Type             X           Y           Z
 ---------------------------------------------------------------------
      1          6           0        1.028046    0.238054   -0.000168
      2          6           0        1.771708   -1.060434   -0.000266
[...]
     3   1     0.41   0.29   0.32     0.55  -0.07   0.01    -0.21   0.21  -0.01
     4   1    -0.41  -0.29   0.32     0.55  -0.07  -0.01    -0.21   0.21   0.01
     5   1     0.00   0.00  -0.54     0.29   0.36   0.00     0.07  -0.23   0.00
     6   8     0.00   0.00   0.04    -0.01  -0.12   0.00     0.68   0.15   0.00
     7  35     0.00   0.00  -0.01    -0.08   0.04   0.00    -0.19  -0.09   0.00
                     4                      5                      6
                     A                      A                      A
 Frequencies --   497.4435               568.6113               946.8001
 Red. masses --     3.0788                 4.1095                 3.0693
 Frc consts  --     0.4489                 0.7828                 1.6211
 IR Inten    --     0.8648               114.6494                74.4163
  Atom  AN      X      Y      Z        X      Y      Z        X      Y      Z
     1   6     0.00   0.00   0.39     0.32   0.01   0.00     0.21  -0.17   0.00
     2   6     0.00   0.00  -0.02     0.10  -0.25   0.00    -0.02   0.28   0.00
     3   1     0.34  -0.43  -0.20    -0.21  -0.11  -0.01    -0.47   0.40  -0.06
     4   1    -0.34   0.43  -0.20    -0.21  -0.11   0.01    -0.47   0.40   0.06
     5   1     0.00   0.00  -0.39     0.20  -0.77   0.00     0.06  -0.23   0.00
     6   8     0.00   0.00  -0.15    -0.19   0.20   0.00    -0.07  -0.14   0.00
     7  35     0.00   0.00  -0.02    -0.02   0.01   0.00     0.00   0.00   0.00
                     7                      8                      9
                     A                      A                      A
 Frequencies --  1042.8503              1102.4019              1387.8101
 Red. masses --     1.5768                 1.8526                 1.2351
 Frc consts  --     1.0104                 1.3265                 1.4016
 IR Inten    --     1.6622               139.8505                22.6591
  Atom  AN      X      Y      Z        X      Y      Z        X      Y      Z
     1   6     0.00   0.00  -0.16     0.20  -0.06   0.00     0.02  -0.01   0.00
     2   6     0.00   0.00   0.16    -0.18  -0.02   0.00    -0.07   0.13   0.00
     3   1     0.26  -0.56  -0.15     0.33  -0.07   0.12     0.29  -0.47  -0.27
     4   1    -0.26   0.56  -0.15     0.33  -0.07  -0.12     0.29  -0.47   0.27
     5   1     0.00   0.00  -0.37    -0.31   0.75   0.00     0.05  -0.46   0.00
     6   8     0.00   0.00   0.03    -0.03   0.02   0.00     0.00   0.00   0.00
     7  35     0.00   0.00   0.00     0.00   0.00   0.00     0.00   0.00   0.00
                    10                     11                     12
                     A                      A                      A
 Frequencies --  1463.9130              1464.4131              1895.7876
 Red. masses --     1.0490                 1.0446                12.0857
 Frc consts  --     1.3245                 1.3198                25.5918
 IR Inten    --    10.9406                13.7021               401.6413
  Atom  AN      X      Y      Z        X      Y      Z        X      Y      Z
     1   6     0.01  -0.01   0.00     0.00   0.00   0.02     0.21   0.75   0.00
     2   6     0.06   0.00   0.00     0.00   0.00   0.05     0.01  -0.06   0.00
     3   1    -0.39  -0.33  -0.35    -0.47   0.09  -0.05     0.04  -0.17  -0.09
     4   1    -0.38  -0.33   0.35     0.48  -0.08  -0.06     0.04  -0.17   0.09
     5   1    -0.05   0.49  -0.01     0.00  -0.01  -0.72     0.00   0.14   0.00
     6   8     0.00   0.02   0.00     0.00   0.00   0.00    -0.19  -0.50   0.00
     7  35     0.00   0.00   0.00     0.00   0.00   0.00     0.01   0.00   0.00
                    13                     14                     15
                     A                      A                      A
 Frequencies --  3051.9292              3121.7930              3142.6673
 Red. masses --     1.0324                 1.1000                 1.1062
 Frc consts  --     5.6654                 6.3160                 6.4371
 IR Inten    --     1.0531                 0.0132                 6.4183
  Atom  AN      X      Y      Z        X      Y      Z        X      Y      Z
     1   6     0.00   0.00   0.00     0.00   0.00   0.00     0.00   0.00   0.00
     2   6    -0.02   0.04   0.00     0.00   0.00   0.09    -0.08  -0.05   0.00
     3   1    -0.15  -0.30   0.47     0.19   0.38  -0.56     0.09   0.21  -0.33
     4   1    -0.15  -0.30  -0.47    -0.19  -0.38  -0.56     0.09   0.21   0.33
     5   1     0.56   0.11   0.00     0.00   0.00   0.01     0.80   0.15   0.00
     6   8     0.00   0.00   0.00     0.00   0.00   0.00     0.00   0.00   0.00
     7  35     0.00   0.00   0.00     0.00   0.00   0.00     0.00   0.00   0.00

 -------------------
 - Thermochemistry -
 -------------------
 Temperature   298.150 Kelvin.  Pressure   1.00000 Atm.
 Atom     1 has atomic number  6 and mass  12.00000
 Atom     2 has atomic number  6 and mass  12.00000
 Atom     3 has atomic number  1 and mass   1.00783
 Atom     4 has atomic number  1 and mass   1.00783
 Atom     5 has atomic number  1 and mass   1.00783
 Atom     6 has atomic number  8 and mass  15.99491
 Atom     7 has atomic number 35 and mass  78.91834
 Molecular mass:   121.93673 amu.
 Principal axes and moments of inertia in atomic units:
                           1         2         3
     Eigenvalues --   177.65610 619.60394 786.17168
           X            0.99785  -0.06555   0.00017
           Y            0.06555   0.99785   0.00004
           Z           -0.00017  -0.00003   1.00000
 This molecule is an asymmetric top.
 Rotational symmetry number  1.
 Rotational temperatures (Kelvin)      0.48754     0.13979     0.11017
 Rotational constants (GHZ):          10.15862     2.91273     2.29561
 Zero-point vibrational energy     122300.0 (Joules/Mol)
                                   29.23041 (Kcal/Mol)
 Warning -- explicit consideration of   5 degrees of freedom as
           vibrations may cause significant error
 Vibrational temperatures:    192.95   424.00   477.31   715.71   818.10
          (Kelvin)           1362.23  1500.43  1586.11  1996.75  2106.24
                             2106.96  2727.61  4391.04  4491.56  4521.59
 
 Zero-point correction=                           0.046582 (Hartree/Particle)
 Thermal correction to Energy=                    0.051420
 Thermal correction to Enthalpy=                  0.052364
 Thermal correction to Gibbs Free Energy=         0.017521
 Sum of electronic and zero-point Energies=           -166.437712
 Sum of electronic and thermal Energies=              -166.432874
 Sum of electronic and thermal Enthalpies=            -166.431930
 Sum of electronic and thermal Free Energies=         -166.466772
 
                     E (Thermal)             CV                S
                      KCal/Mol        Cal/Mol-Kelvin    Cal/Mol-Kelvin
 Total                   32.266             14.879             73.332
 Electronic               0.000              0.000              0.000
 Translational            0.889              2.981             40.309
 Rotational               0.889              2.981             25.962
 Vibrational             30.489              8.918              7.061
 Vibration     1          0.613              1.919              2.886
 Vibration     2          0.689              1.684              1.447
 Vibration     3          0.714              1.612              1.252
 Vibration     4          0.853              1.256              0.665
 Vibration     5          0.925              1.099              0.507
                       Q            Log10(Q)             Ln(Q)
 Total Bot       0.872474D-08         -8.059248        -18.557104
 Total V=0       0.232685D+14         13.366768         30.778120
 Vib (Bot)       0.156546D-20        -20.805357        -47.906105
 Vib (Bot)    1  0.151858D+01          0.181438          0.417776
 Vib (Bot)    2  0.647252D+00         -0.188927         -0.435020
 Vib (Bot)    3  0.562607D+00         -0.249795         -0.575174
 Vib (Bot)    4  0.331145D+00         -0.479982         -1.105200
 Vib (Bot)    5  0.271040D+00         -0.566966         -1.305488
 Vib (V=0)       0.417502D+01          0.620659          1.429119
 Vib (V=0)    1  0.209878D+01          0.321966          0.741354
 Vib (V=0)    2  0.131788D+01          0.119877          0.276028
 Vib (V=0)    3  0.125268D+01          0.097840          0.225285
 Vib (V=0)    4  0.109971D+01          0.041280          0.095050
 Vib (V=0)    5  0.106874D+01          0.028871          0.066478
 Electronic      0.100000D+01          0.000000          0.000000
 Translational   0.529245D+08          7.723657         17.784377
 Rotational      0.105306D+06          5.022452         11.564624
 ***** Axes restored to original set *****
 -------------------------------------------------------------------
 Center     Atomic                   Forces (Hartrees/Bohr)
 Number     Number              X              Y              Z
 -------------------------------------------------------------------
      1        6           0.000195227    0.000057414   -0.000008387
      2        6          -0.000131837    0.000090161    0.000004466
      3        1           0.000049442    0.000028283   -0.000031154
      4        1           0.000049053    0.000030338    0.000030046
      5        1          -0.000009314   -0.000022304    0.000000252
      6        8          -0.000098959   -0.000117203    0.000002659
      7       35          -0.000053611   -0.000066690    0.000002119
 -------------------------------------------------------------------
 Cartesian Forces:  Max     0.000195227 RMS     0.000071348

 GradGradGradGradGradGradGradGradGradGradGradGradGradGradGradGradGradGrad
 Berny optimization.
 Internal  Forces:  Max     0.000138060 RMS     0.000052447
 Search for a local minimum.
 Step number   1 out of a maximum of    2
 All quantities printed in internal units (Hartrees-Bohrs-Radians)
 Second derivative matrix not updated -- analytic derivatives used.
     Eigenvalues ---    0.00113   0.04770   0.05471   0.05478   0.08357
     Eigenvalues ---    0.12324   0.13875   0.14098   0.19673   0.22454
     Eigenvalues ---    0.29639   0.33959   0.34351   0.34795   0.95360
     Eigenvalues --- 1000.000001000.000001000.000001000.000001000.00000
     Eigenvalues --- 1000.00000
 Angle between quadratic step and forces=  47.38 degrees.
 Linear search not attempted -- first point.
 Iteration  1 RMS(Cart)=  0.00051083 RMS(Int)=  0.00000017
 Iteration  2 RMS(Cart)=  0.00000018 RMS(Int)=  0.00000001
 Variable       Old X    -DE/DX   Delta X   Delta X   Delta X     New X
                                 (Linear)    (Quad)   (Total)
    R1        2.82772  -0.00012   0.00000  -0.00054  -0.00054   2.82717
    R2        2.22372  -0.00014   0.00000  -0.00023  -0.00023   2.22349
    R3        3.83371   0.00005   0.00000   0.00094   0.00094   3.83464
    R4        2.05799  -0.00005   0.00000  -0.00015  -0.00015   2.05784
    R5        2.05797  -0.00005   0.00000  -0.00013  -0.00013   2.05784
    R6        2.05558  -0.00002   0.00000  -0.00002  -0.00002   2.05555
    A1        2.24200   0.00006   0.00000   0.00063   0.00063   2.24263
    A2        1.95095  -0.00008   0.00000  -0.00062  -0.00062   1.95032
    A3        2.09024   0.00002   0.00000  -0.00001  -0.00001   2.09023
    A4        1.90988   0.00001   0.00000   0.00009   0.00009   1.90996
    A5        1.90996   0.00000   0.00000   0.00000   0.00000   1.90996
    A6        1.90626   0.00005   0.00000   0.00048   0.00048   1.90674
    A7        1.87432   0.00000   0.00000   0.00006   0.00006   1.87438
    A8        1.93153  -0.00003   0.00000  -0.00029  -0.00029   1.93123
    A9        1.93157  -0.00003   0.00000  -0.00034  -0.00034   1.93123
    D1        2.11657  -0.00001   0.00000   0.00031   0.00031   2.11688
    D2       -2.11726   0.00000   0.00000   0.00044   0.00044  -2.11682
    D3       -0.00029   0.00000   0.00000   0.00032   0.00032   0.00003
    D4       -1.02507   0.00000   0.00000   0.00035   0.00035  -1.02471
    D5        1.02429   0.00001   0.00000   0.00048   0.00048   1.02477
    D6        3.14126   0.00000   0.00000   0.00036   0.00036  -3.14157
         Item               Value     Threshold  Converged?
 Maximum Force            0.000138     0.000450     YES
 RMS     Force            0.000052     0.000300     YES
 Maximum Displacement     0.001142     0.001800     YES
 RMS     Displacement     0.000511     0.001200     YES
 Predicted change in Energy=-1.494018D-07
 Optimization completed.
    -- Stationary point found.
                           ----------------------------
                           !   Optimized Parameters   !
                           ! (Angstroms and Degrees)  !
 --------------------------                            --------------------------
 ! Name  Definition              Value          Derivative Info.                !
 --------------------------------------------------------------------------------
 ! R1    R(1,2)                  1.4964         -DE/DX =   -0.0001              !
 ! R2    R(1,6)                  1.1767         -DE/DX =   -0.0001              !
 ! R3    R(1,7)                  2.0287         -DE/DX =    0.0                 !
 ! R4    R(2,3)                  1.089          -DE/DX =    0.0                 !
 ! R5    R(2,4)                  1.089          -DE/DX =    0.0                 !
 ! R6    R(2,5)                  1.0878         -DE/DX =    0.0                 !
 ! A1    A(2,1,6)              128.457          -DE/DX =    0.0001              !
 ! A2    A(2,1,7)              111.781          -DE/DX =   -0.0001              !
 ! A3    A(6,1,7)              119.762          -DE/DX =    0.0                 !
 ! A4    A(1,2,3)              109.4278         -DE/DX =    0.0                 !
 ! A5    A(1,2,4)              109.4324         -DE/DX =    0.0                 !
 ! A6    A(1,2,5)              109.2206         -DE/DX =    0.0001              !
 ! A7    A(3,2,4)              107.3905         -DE/DX =    0.0                 !
 ! A8    A(3,2,5)              110.6682         -DE/DX =    0.0                 !
 ! A9    A(4,2,5)              110.671          -DE/DX =    0.0                 !
 ! D1    D(6,1,2,3)            121.2705         -DE/DX =    0.0                 !
 ! D2    D(6,1,2,4)           -121.3099         -DE/DX =    0.0                 !
 ! D3    D(6,1,2,5)             -0.0166         -DE/DX =    0.0                 !
 ! D4    D(7,1,2,3)            -58.732          -DE/DX =    0.0                 !
 ! D5    D(7,1,2,4)             58.6877         -DE/DX =    0.0                 !
 ! D6    D(7,1,2,5)           -180.019          -DE/DX =    0.0                 !
 --------------------------------------------------------------------------------
 GradGradGradGradGradGradGradGradGradGradGradGradGradGradGradGradGradGrad

 1|1|UNPC-LAWALM-PC|Freq|RB3LYP|GenECP|C2H3Br1O1|LAWALM|25-Mar-2015|0||
 #N Geom=AllCheck Guess=TCheck SCRF=Check GenChk RB3LYP/GenECP Freq||ge
 n calculation BrAc-C H O=aug-cc-pvtz/Br=Lanl2dz||0,1|C,1.0210330863,0.
 2232210788,-0.0000059146|C,1.7470658,-1.0852058249,-0.0001038589|H,1.4
 568435643,-1.6605781262,0.8778057966|H,1.4560197699,-1.6609957309,-0.8
 77457268|H,2.8189408044,-0.8999679938,-0.0006226663|O,1.4716853062,1.3
 102498285,-0.0001358906|Br,-0.9914833311,-0.0326062316,0.0003258018||V
 ersion=IA32W-G09RevA.02|State=1-A|HF=-166.4842936|RMSD=1.066e-009|RMSF
 =7.135e-005|ZeroPoint=0.0465816|Thermal=0.0514197|Dipole=0.5993015,-0.
 9773518,-0.0000444|DipoleDeriv=2.2306211,0.1805941,-0.0003447,0.796401
 1,1.2109991,-0.0001921,-0.0004017,-0.0000886,0.1200597,-0.1474117,0.12
 58473,-0.000005,0.0304977,-0.2445776,0.0000268,-0.0000161,0.0000738,0.
 0539845,0.0389522,0.0097308,0.0539343,0.0057807,0.0829385,0.0127434,0.
 0296288,0.0425188,0.029664,0.0388743,0.0096584,-0.0539552,0.0057455,0.
 0829258,-0.0127642,-0.0296254,-0.0425832,0.0297669,-0.0968145,0.018175
 8,0.0000723,0.0280426,0.0394066,0.0000138,0.0000851,-0.0000132,0.10351
 11,-0.9902733,-0.2569938,0.0001402,-0.7922491,-1.0089615,0.0001627,0.0
 001814,0.0000797,-0.2099721,-1.0739481,-0.0870126,0.000158,-0.0742185,
 -0.1627309,0.0000097,0.0001479,0.0000128,-0.127014|Polar=66.9150155,1.
 4593647,46.7402635,-0.0051949,-0.0010651,35.2466817|PG=C01 [X(C2H3Br1O
 1)]|NImag=0||0.33770697,0.16417481,0.97457860,-0.00003856,-0.00006247,
 0.16793710,-0.10977294,0.06255344,-0.00000038,0.56172221,0.05397986,-0
 .14831461,-0.00001211,0.06131616,0.48550583,0.00000667,-0.00002127,-0.
 08106191,-0.00001085,0.00001559,0.53185099,0.00561467,0.00674402,-0.01
 646518,-0.06692543,-0.03650388,0.05993751,0.06685207,-0.01111768,-0.02
 104068,0.02537425,-0.03632915,-0.11480994,0.11848373,0.03931420,0.1292
 1928,0.00038757,-0.00040024,0.00131350,0.05863853,0.11766778,-0.217966
 38,-0.06466912,-0.12673155,0.23636830,0.00562878,0.00675162,0.01646060
 ,-0.06704479,-0.03665018,-0.06007072,0.00152434,0.00451863,0.00672670,
 0.06698032,-0.01114289,-0.02104906,-0.02535442,-0.03646902,-0.11492545
 ,-0.11850197,0.00452902,0.01047045,0.01436005,0.03946675,0.12934359,-0
 .00038902,0.00040770,0.00130850,-0.05876541,-0.11769251,-0.21775492,-0
 .00675017,-0.01437883,-0.02119430,0.06481486,0.12675035,0.23613675,-0.
 01908121,-0.00276247,0.00000798,-0.30856929,-0.04604924,0.00012672,-0.
 00486303,-0.00076503,-0.00034300,-0.00488455,-0.00076694,0.00035004,0.
 33500575,0.02933768,0.00281381,-0.00001507,-0.05023656,-0.05769796,0.0
 0002072,-0.01575670,-0.00255751,-0.00244716,-0.01576466,-0.00255742,0.
 00246471,0.04952255,0.05922000,0.00000069,0.00000276,-0.00109619,0.000
 12704,0.00001854,-0.04933801,0.02500419,0.00257170,0.00203224,-0.02498
 911,-0.00256803,0.00205618,-0.00014043,-0.00002439,0.04544880,-0.17837
 702,-0.27839879,0.00003359,0.01495807,0.00857928,0.00000500,-0.0000652
 2,0.00375666,-0.00040901,-0.00006635,0.00376086,0.00040656,0.00383072,
 -0.00147098,-0.00000164,0.20224397,-0.23343864,-0.76317469,0.00007171,
 -0.01522856,-0.05243547,0.00000784,0.00153261,-0.00224014,-0.00185593,
 0.00153588,-0.00224187,0.00185470,-0.00118601,0.00242655,-0.00000105,0
 .29684850,0.82503444,0.00003144,0.00007994,-0.05987576,0.00000678,0.00
 000351,0.02702219,0.00242622,-0.00379878,-0.00120866,-0.00242851,0.003
 79381,-0.00120735,-0.00000201,0.00000116,-0.00079270,-0.00004490,-0.00
 008624,0.02423982,-0.04171925,0.04093738,0.00000194,-0.02436782,-0.004
 67200,0.00000567,-0.00213741,0.00062237,-0.00033167,-0.00213775,0.0006
 2222,0.00033314,-0.00143839,0.00436869,-0.00000074,-0.04252417,-0.0500
 6377,0.00001099,0.11432479,0.00820687,-0.02381336,-0.00000189,0.014393
 69,0.00267761,-0.00000464,0.00014073,0.00095855,-0.00059295,0.00014197
 ,0.00095977,0.00059388,0.00200715,-0.00164748,0.00000046,-0.03307552,-
 0.00736882,0.00000661,0.00818511,0.02823372,0.00000121,-0.00000642,-0.
 02852523,0.00000429,-0.00000078,0.00724803,0.00051655,-0.00152054,0.00
 065531,-0.00051383,0.00152022,0.00065515,0.00000070,0.00000003,0.00168
 968,0.00001041,0.00000896,0.01182246,-0.00001933,-0.00000148,0.0064546
 0||-0.00019523,-0.00005741,0.00000839,0.00013184,-0.00009016,-0.000004
 47,-0.00004944,-0.00002828,0.00003115,-0.00004905,-0.00003034,-0.00003
 005,0.00000931,0.00002230,-0.00000025,0.00009896,0.00011720,-0.0000026
 6,0.00005361,0.00006669,-0.00000212|||@


 IF NO USE IS MADE OF THE LABOR OF PAST AGES,
 THE WORLD MUST REMAIN ALWAYS IN THE INFANCY OF KNOWLEDGE.

                          -- CICERO
 Job cpu time:  0 days  0 hours 27 minutes 27.0 seconds.
 File lengths (MBytes):  RWF=     35 Int=      0 D2E=      0 Chk=      4 Scr=      1
 Normal termination of Gaussian 09 at Wed Mar 25 05:36:26 2015.
