 Entering Link 1 = C:\G09W\l1.exe PID=      8020.
  
 Copyright (c) 1988,1990,1992,1993,1995,1998,2003,2009, Gaussian, Inc.
                  All Rights Reserved.
  
 This is part of the Gaussian(R) 09 program.  It is based on
 the Gaussian(R) 03 system (copyright 2003, Gaussian, Inc.),
 the Gaussian(R) 98 system (copyright 1998, Gaussian, Inc.),
 the Gaussian(R) 94 system (copyright 1995, Gaussian, Inc.),
 the Gaussian 92(TM) system (copyright 1992, Gaussian, Inc.),
 the Gaussian 90(TM) system (copyright 1990, Gaussian, Inc.),
 the Gaussian 88(TM) system (copyright 1988, Gaussian, Inc.),
 the Gaussian 86(TM) system (copyright 1986, Carnegie Mellon
 University), and the Gaussian 82(TM) system (copyright 1983,
 Carnegie Mellon University). Gaussian is a federally registered
 trademark of Gaussian, Inc.
  
 This software contains proprietary and confidential information,
 including trade secrets, belonging to Gaussian, Inc.
  
 This software is provided under written license and may be
 used, copied, transmitted, or stored only in accord with that
 written license.
  
 The following legend is applicable only to US Government
 contracts under FAR:
  
                    RESTRICTED RIGHTS LEGEND
  
 Use, reproduction and disclosure by the US Government is
 subject to restrictions as set forth in subparagraphs (a)
 and (c) of the Commercial Computer Software - Restricted
 Rights clause in FAR 52.227-19.
  
 Gaussian, Inc.
 340 Quinnipiac St., Bldg. 40, Wallingford CT 06492
  
  
 ---------------------------------------------------------------
 Warning -- This program may not be used in any manner that
 competes with the business of Gaussian, Inc. or will provide
 assistance to any competitor of Gaussian, Inc.  The licensee
 of this program is prohibited from giving any competitor of
 Gaussian, Inc. access to this program.  By using this program,
 the user acknowledges that Gaussian, Inc. is engaged in the
 business of creating and licensing software in the field of
 computational chemistry and represents and warrants to the
 licensee that it is not a competitor of Gaussian, Inc. and that
 it will not use this program in any manner prohibited above.
 ---------------------------------------------------------------
  

 Cite this work as:
 Gaussian 09, Revision A.02,
 M. J. Frisch, G. W. Trucks, H. B. Schlegel, G. E. Scuseria, 
 M. A. Robb, J. R. Cheeseman, G. Scalmani, V. Barone, B. Mennucci, 
 G. A. Petersson, H. Nakatsuji, M. Caricato, X. Li, H. P. Hratchian, 
 A. F. Izmaylov, J. Bloino, G. Zheng, J. L. Sonnenberg, M. Hada, 
 M. Ehara, K. Toyota, R. Fukuda, J. Hasegawa, M. Ishida, T. Nakajima, 
 Y. Honda, O. Kitao, H. Nakai, T. Vreven, J. A. Montgomery, Jr., 
 J. E. Peralta, F. Ogliaro, M. Bearpark, J. J. Heyd, E. Brothers, 
 K. N. Kudin, V. N. Staroverov, R. Kobayashi, J. Normand, 
 K. Raghavachari, A. Rendell, J. C. Burant, S. S. Iyengar, J. Tomasi, 
 M. Cossi, N. Rega, J. M. Millam, M. Klene, J. E. Knox, J. B. Cross, 
 V. Bakken, C. Adamo, J. Jaramillo, R. Gomperts, R. E. Stratmann, 
 O. Yazyev, A. J. Austin, R. Cammi, C. Pomelli, J. W. Ochterski, 
 R. L. Martin, K. Morokuma, V. G. Zakrzewski, G. A. Voth, 
 P. Salvador, J. J. Dannenberg, S. Dapprich, A. D. Daniels, 
 O. Farkas, J. B. Foresman, J. V. Ortiz, J. Cioslowski, 
 and D. J. Fox, Gaussian, Inc., Wallingford CT, 2009.
 
 ******************************************
 Gaussian 09:  IA32W-G09RevA.02 11-Jun-2009
                24-Mar-2015 
 ******************************************
 ----------------------------------------------------------
 # opt freq b3lyp/gen geom=connectivity gfinput pseudo=read
 ----------------------------------------------------------
 1/14=-1,18=20,19=15,26=3,38=1,57=2/1,3;
 2/9=110,12=2,17=6,18=5,40=1/2;
 3/5=7,11=2,16=1,17=8,24=10,25=1,30=1,71=1,74=-5/1,2,3;
 4//1;
 5/5=2,38=5/2;
 6/7=2,8=2,9=2,10=2,28=1/1;
 7//1,2,3,16;
 1/14=-1,18=20,19=15/3(2);
 2/9=110/2;
 99//99;
 2/9=110/2;
 3/5=7,6=1,11=2,16=1,17=8,25=1,30=1,71=1,74=-5,82=7/1,2,3;
 4/5=5,16=3/1;
 5/5=2,38=5/2;
 7//1,2,3,16;
 1/14=-1,18=20,19=15/3(-5);
 2/9=110/2;
 6/7=2,8=2,9=2,10=2,19=2,28=1/1;
 99/9=1/99;
 -----------------------------------------------
 gen calculation BrAc-C H O=aug-cc-pvtz/Br=midix
 -----------------------------------------------
 Symbolic Z-matrix:
 Charge =  0 Multiplicity = 1
 C                     1.01121   0.23761   0.00018 
 C                     1.72256  -1.06187  -0.00003 
 H                     1.46581  -1.67485   0.8825 
 H                     1.46445  -1.67517  -0.88197 
 H                     2.81725  -0.92328  -0.00081 
 O                     1.46701   1.33296  -0.00006 
 Br                   -0.96818  -0.04128  -0.00001 
 

 GradGradGradGradGradGradGradGradGradGradGradGradGradGradGradGradGradGrad
 Berny optimization.
 Initialization pass.
                           ----------------------------
                           !    Initial Parameters    !
                           ! (Angstroms and Degrees)  !
 --------------------------                            --------------------------
 ! Name  Definition              Value          Derivative Info.                !
 --------------------------------------------------------------------------------
 ! R1    R(1,2)                  1.4814         estimate D2E/DX2                !
 ! R2    R(1,6)                  1.1864         estimate D2E/DX2                !
 ! R3    R(1,7)                  1.9989         estimate D2E/DX2                !
 ! R4    R(2,3)                  1.1048         estimate D2E/DX2                !
 ! R5    R(2,4)                  1.1048         estimate D2E/DX2                !
 ! R6    R(2,5)                  1.1034         estimate D2E/DX2                !
 ! A1    A(2,1,6)              128.7098         estimate D2E/DX2                !
 ! A2    A(2,1,7)              110.6765         estimate D2E/DX2                !
 ! A3    A(6,1,7)              120.6137         estimate D2E/DX2                !
 ! A4    A(1,2,3)              112.0239         estimate D2E/DX2                !
 ! A5    A(1,2,4)              112.0164         estimate D2E/DX2                !
 ! A6    A(1,2,5)              111.4811         estimate D2E/DX2                !
 ! A7    A(3,2,4)              105.9857         estimate D2E/DX2                !
 ! A8    A(3,2,5)              107.5067         estimate D2E/DX2                !
 ! A9    A(4,2,5)              107.5132         estimate D2E/DX2                !
 ! D1    D(6,1,2,3)            120.5048         estimate D2E/DX2                !
 ! D2    D(6,1,2,4)           -120.5474         estimate D2E/DX2                !
 ! D3    D(6,1,2,5)             -0.0197         estimate D2E/DX2                !
 ! D4    D(7,1,2,3)            -59.5249         estimate D2E/DX2                !
 ! D5    D(7,1,2,4)             59.4229         estimate D2E/DX2                !
 ! D6    D(7,1,2,5)            179.9506         estimate D2E/DX2                !
 --------------------------------------------------------------------------------
 Trust Radius=3.00D-01 FncErr=1.00D-07 GrdErr=1.00D-06
 Number of steps in this run=  31 maximum allowed number of steps= 100.
 GradGradGradGradGradGradGradGradGradGradGradGradGradGradGradGradGradGrad

                          Input orientation:                          
 ---------------------------------------------------------------------
 Center     Atomic      Atomic             Coordinates (Angstroms)
 Number     Number       Type             X           Y           Z
 ---------------------------------------------------------------------
      1          6           0        1.011206    0.237614    0.000180
      2          6           0        1.722556   -1.061873   -0.000028
      3          1           0        1.465808   -1.674851    0.882500
      4          1           0        1.464453   -1.675170   -0.881972
      5          1           0        2.817250   -0.923279   -0.000814
      6          8           0        1.467008    1.332956   -0.000055
      7         35           0       -0.968176   -0.041280   -0.000005
 ---------------------------------------------------------------------
                    Distance matrix (angstroms):
                    1          2          3          4          5
     1  C    0.000000
     2  C    1.481447   0.000000
     3  H    2.154687   1.104770   0.000000
     4  H    2.154615   1.104797   1.764473   0.000000
     5  H    2.146967   1.103433   1.780870   1.780966   0.000000
     6  O    1.186394   2.408425   3.134614   3.134742   2.629401
     7  Br   1.998933   2.877785   3.061315   3.060253   3.886820
                    6          7
     6  O    0.000000
     7  Br   2.796184   0.000000
 Stoichiometry    C2H3BrO
 Framework group  C1[X(C2H3BrO)]
 Deg. of freedom    15
 Full point group                 C1      NOp   1
 Largest Abelian subgroup         C1      NOp   1
 Largest concise Abelian subgroup C1      NOp   1
                         Standard orientation:                         
 ---------------------------------------------------------------------
 Center     Atomic      Atomic             Coordinates (Angstroms)
 Number     Number       Type             X           Y           Z
 ---------------------------------------------------------------------
      1          6           0        1.011206    0.237614    0.000180
      2          6           0        1.722556   -1.061873   -0.000028
      3          1           0        1.465808   -1.674851    0.882500
      4          1           0        1.464453   -1.675170   -0.881972
      5          1           0        2.817250   -0.923279   -0.000814
      6          8           0        1.467008    1.332956   -0.000055
      7         35           0       -0.968176   -0.041280   -0.000005
 ---------------------------------------------------------------------
 Rotational constants (GHZ):     10.0778499      2.9893900      2.3389884
 General basis read from cards:  (5D, 7F)
 AO basis set in the form of general basis input (Overlap normalization):
      1 0
 S   7 1.00       0.000000000000
      0.8236000000D+04  0.5419783203D-03
      0.1235000000D+04  0.4192873817D-02
      0.2808000000D+03  0.2152216205D-01
      0.7927000000D+02  0.8353432195D-01
      0.2559000000D+02  0.2395828457D+00
      0.8997000000D+01  0.4428528419D+00
      0.3319000000D+01  0.3517995618D+00
 S   6 1.00       0.000000000000
      0.2808000000D+03 -0.5949224937D-04
      0.7927000000D+02 -0.1148158310D-02
      0.2559000000D+02 -0.1001913745D-01
      0.8997000000D+01 -0.6121949230D-01
      0.3319000000D+01 -0.1732698541D+00
      0.3643000000D+00  0.1072915192D+01
 S   1 1.00       0.000000000000
      0.9059000000D+00  0.1000000000D+01
 S   1 1.00       0.000000000000
      0.1285000000D+00  0.1000000000D+01
 S   1 1.00       0.000000000000
      0.4402000000D-01  0.1000000000D+01
 P   3 1.00       0.000000000000
      0.1871000000D+02  0.3942638716D-01
      0.4133000000D+01  0.2440889849D+00
      0.1200000000D+01  0.8154920089D+00
 P   1 1.00       0.000000000000
      0.3827000000D+00  0.1000000000D+01
 P   1 1.00       0.000000000000
      0.1209000000D+00  0.1000000000D+01
 P   1 1.00       0.000000000000
      0.3569000000D-01  0.1000000000D+01
 D   1 1.00       0.000000000000
      0.1097000000D+01  0.1000000000D+01
 D   1 1.00       0.000000000000
      0.3180000000D+00  0.1000000000D+01
 D   1 1.00       0.000000000000
      0.1000000000D+00  0.1000000000D+01
 F   1 1.00       0.000000000000
      0.7610000000D+00  0.1000000000D+01
 F   1 1.00       0.000000000000
      0.2680000000D+00  0.1000000000D+01
 ****
      2 0
 S   7 1.00       0.000000000000
      0.8236000000D+04  0.5419783203D-03
      0.1235000000D+04  0.4192873817D-02
      0.2808000000D+03  0.2152216205D-01
      0.7927000000D+02  0.8353432195D-01
      0.2559000000D+02  0.2395828457D+00
      0.8997000000D+01  0.4428528419D+00
      0.3319000000D+01  0.3517995618D+00
 S   6 1.00       0.000000000000
      0.2808000000D+03 -0.5949224937D-04
      0.7927000000D+02 -0.1148158310D-02
      0.2559000000D+02 -0.1001913745D-01
      0.8997000000D+01 -0.6121949230D-01
      0.3319000000D+01 -0.1732698541D+00
      0.3643000000D+00  0.1072915192D+01
 S   1 1.00       0.000000000000
      0.9059000000D+00  0.1000000000D+01
 S   1 1.00       0.000000000000
      0.1285000000D+00  0.1000000000D+01
 S   1 1.00       0.000000000000
      0.4402000000D-01  0.1000000000D+01
 P   3 1.00       0.000000000000
      0.1871000000D+02  0.3942638716D-01
      0.4133000000D+01  0.2440889849D+00
      0.1200000000D+01  0.8154920089D+00
 P   1 1.00       0.000000000000
      0.3827000000D+00  0.1000000000D+01
 P   1 1.00       0.000000000000
      0.1209000000D+00  0.1000000000D+01
 P   1 1.00       0.000000000000
      0.3569000000D-01  0.1000000000D+01
 D   1 1.00       0.000000000000
      0.1097000000D+01  0.1000000000D+01
 D   1 1.00       0.000000000000
      0.3180000000D+00  0.1000000000D+01
 D   1 1.00       0.000000000000
      0.1000000000D+00  0.1000000000D+01
 F   1 1.00       0.000000000000
      0.7610000000D+00  0.1000000000D+01
 F   1 1.00       0.000000000000
      0.2680000000D+00  0.1000000000D+01
 ****
      3 0
 S   3 1.00       0.000000000000
      0.3387000000D+02  0.2549486323D-01
      0.5095000000D+01  0.1903627659D+00
      0.1159000000D+01  0.8521620222D+00
 S   1 1.00       0.000000000000
      0.3258000000D+00  0.1000000000D+01
 S   1 1.00       0.000000000000
      0.1027000000D+00  0.1000000000D+01
 S   1 1.00       0.000000000000
      0.2526000000D-01  0.1000000000D+01
 P   1 1.00       0.000000000000
      0.1407000000D+01  0.1000000000D+01
 P   1 1.00       0.000000000000
      0.3880000000D+00  0.1000000000D+01
 P   1 1.00       0.000000000000
      0.1020000000D+00  0.1000000000D+01
 D   1 1.00       0.000000000000
      0.1057000000D+01  0.1000000000D+01
 D   1 1.00       0.000000000000
      0.2470000000D+00  0.1000000000D+01
 ****
      4 0
 S   3 1.00       0.000000000000
      0.3387000000D+02  0.2549486323D-01
      0.5095000000D+01  0.1903627659D+00
      0.1159000000D+01  0.8521620222D+00
 S   1 1.00       0.000000000000
      0.3258000000D+00  0.1000000000D+01
 S   1 1.00       0.000000000000
      0.1027000000D+00  0.1000000000D+01
 S   1 1.00       0.000000000000
      0.2526000000D-01  0.1000000000D+01
 P   1 1.00       0.000000000000
      0.1407000000D+01  0.1000000000D+01
 P   1 1.00       0.000000000000
      0.3880000000D+00  0.1000000000D+01
 P   1 1.00       0.000000000000
      0.1020000000D+00  0.1000000000D+01
 D   1 1.00       0.000000000000
      0.1057000000D+01  0.1000000000D+01
 D   1 1.00       0.000000000000
      0.2470000000D+00  0.1000000000D+01
 ****
      5 0
 S   3 1.00       0.000000000000
      0.3387000000D+02  0.2549486323D-01
      0.5095000000D+01  0.1903627659D+00
      0.1159000000D+01  0.8521620222D+00
 S   1 1.00       0.000000000000
      0.3258000000D+00  0.1000000000D+01
 S   1 1.00       0.000000000000
      0.1027000000D+00  0.1000000000D+01
 S   1 1.00       0.000000000000
      0.2526000000D-01  0.1000000000D+01
 P   1 1.00       0.000000000000
      0.1407000000D+01  0.1000000000D+01
 P   1 1.00       0.000000000000
      0.3880000000D+00  0.1000000000D+01
 P   1 1.00       0.000000000000
      0.1020000000D+00  0.1000000000D+01
 D   1 1.00       0.000000000000
      0.1057000000D+01  0.1000000000D+01
 D   1 1.00       0.000000000000
      0.2470000000D+00  0.1000000000D+01
 ****
      6 0
 S   7 1.00       0.000000000000
      0.1533000000D+05  0.5198089434D-03
      0.2299000000D+04  0.4020256215D-02
      0.5224000000D+03  0.2071282673D-01
      0.1473000000D+03  0.8101055358D-01
      0.4755000000D+02  0.2359629851D+00
      0.1676000000D+02  0.4426534455D+00
      0.6207000000D+01  0.3570644227D+00
 S   6 1.00       0.000000000000
      0.5224000000D+03 -0.4421150084D-04
      0.1473000000D+03 -0.1225910413D-02
      0.4755000000D+02 -0.1055177248D-01
      0.1676000000D+02 -0.6744526326D-01
      0.6207000000D+01 -0.1711986073D+00
      0.6882000000D+00  0.1073298561D+01
 S   1 1.00       0.000000000000
      0.1752000000D+01  0.1000000000D+01
 S   1 1.00       0.000000000000
      0.2384000000D+00  0.1000000000D+01
 S   1 1.00       0.000000000000
      0.7376000000D-01  0.1000000000D+01
 P   3 1.00       0.000000000000
      0.3446000000D+02  0.4116348957D-01
      0.7749000000D+01  0.2577628359D+00
      0.2280000000D+01  0.8024192744D+00
 P   1 1.00       0.000000000000
      0.7156000000D+00  0.1000000000D+01
 P   1 1.00       0.000000000000
      0.2140000000D+00  0.1000000000D+01
 P   1 1.00       0.000000000000
      0.5974000000D-01  0.1000000000D+01
 D   1 1.00       0.000000000000
      0.2314000000D+01  0.1000000000D+01
 D   1 1.00       0.000000000000
      0.6450000000D+00  0.1000000000D+01
 D   1 1.00       0.000000000000
      0.2140000000D+00  0.1000000000D+01
 F   1 1.00       0.000000000000
      0.1428000000D+01  0.1000000000D+01
 F   1 1.00       0.000000000000
      0.5000000000D+00  0.1000000000D+01
 ****
      7 0
 S   3 1.00       0.000000000000
      0.6103289900D+04  0.6241800148D-01
      0.9236974300D+03  0.3720410088D+00
      0.2025203100D+03  0.6858730163D+00
 S   3 1.00       0.000000000000
      0.2706015000D+03 -0.1121490080D+00
      0.5825357000D+02  0.9314500668D-01
      0.1846933000D+02  0.9616790689D+00
 S   3 1.00       0.000000000000
      0.1976142000D+02 -0.2938699522D+00
      0.6821752000D+01  0.2802659544D+00
      0.2291629000D+01  0.9020358532D+00
 S   2 1.00       0.000000000000
      0.2131206000D+01 -0.6518031587D+00
      0.4993540000D+00  0.1336012325D+01
 S   1 1.00       0.000000000000
      0.1647640000D+00  0.1000000000D+01
 P   3 1.00       0.000000000000
      0.2706015000D+03  0.1477510304D+00
      0.5825357000D+02  0.6010561236D+00
      0.1846933000D+02  0.4128700849D+00
 P   3 1.00       0.000000000000
      0.1976142000D+02  0.2500700459D-01
      0.6821752000D+01  0.4866100893D+00
      0.2291629000D+01  0.5824231068D+00
 P   2 1.00       0.000000000000
      0.2131206000D+01  0.2870799207D-01
      0.4993540000D+00  0.9840697282D+00
 P   1 1.00       0.000000000000
      0.1647640000D+00  0.1000000000D+01
 D   3 1.00       0.000000000000
      0.3396509700D+02  0.1496668821D+00
      0.8900831000D+01  0.5117475970D+00
      0.2428436000D+01  0.5759145465D+00
 D   1 1.00       0.000000000000
      0.4000000000D+00  0.1000000000D+01
 ****

 ======================================================================================================
                                       Pseudopotential Parameters
 ======================================================================================================
  Center     Atomic      Valence      Angular      Power
  Number     Number     Electrons     Momentum     of R      Exponent        Coefficient   SO-Coeffient
 ======================================================================================================
    1          6
                                   No pseudopotential on this center.
    2          6
                                   No pseudopotential on this center.
    3          1
                                   No pseudopotential on this center.
    4          1
                                   No pseudopotential on this center.
    5          1
                                   No pseudopotential on this center.
    6          8
                                   No pseudopotential on this center.
    7         35
                                   No pseudopotential on this center.
 ======================================================================================================
 There are   234 symmetry adapted basis functions of A   symmetry.
 Integral buffers will be    262144 words long.
 Raffenetti 2 integral format.
 Two-electron integral symmetry is turned on.
   234 basis functions,   360 primitive gaussians,   269 cartesian basis functions
    29 alpha electrons       29 beta electrons
       nuclear repulsion energy       227.1383430167 Hartrees.
 NAtoms=    7 NActive=    7 NUniq=    7 SFac= 7.50D-01 NAtFMM=   80 NAOKFM=F Big=F
 One-electron integrals computed using PRISM.
   1 Symmetry operations used in ECPInt.
 ECPInt:  NShTT=    3240 NPrTT=    9876 LenC2=    3229 LenP2D=    8519.
 LDataN:  DoStor=T MaxTD1= 6 Len=  172
 NBasis=   234 RedAO= T  NBF=   234
 NBsUse=   234 1.00D-06 NBFU=   234
 Harris functional with IExCor=  402 diagonalized for initial guess.
 ExpMin= 2.53D-02 ExpMax= 1.53D+04 ExpMxC= 6.10D+03 IAcc=3 IRadAn=         0 AccDes= 0.00D+00
 HarFok:  IExCor=  402 AccDes= 0.00D+00 IRadAn=         0 IDoV= 1
 ScaDFX=  1.000000  1.000000  1.000000  1.000000
 FoFCou: FMM=F IPFlag=           0 FMFlag=      100000 FMFlg1=           0
         NFxFlg=           0 DoJE=T BraDBF=F KetDBF=T FulRan=T
         Omega=  0.000000  0.000000  1.000000  0.000000  0.000000 ICntrl=     500 IOpCl=  0
         NMat0=    1 NMatS0=    1 NMatT0=    0 NMatD0=    1 NMtDS0=    0 NMtDT0=    0
         I1Cent=           4 NGrid=           0.
 Petite list used in FoFCou.
 Initial guess orbital symmetries:
       Occupied  (A) (A) (A) (A) (A) (A) (A) (A) (A) (A) (A) (A)
                 (A) (A) (A) (A) (A) (A) (A) (A) (A) (A) (A) (A)
                 (A) (A) (A) (A) (A)
       Virtual   (A) (A) (A) (A) (A) (A) (A) (A) (A) (A) (A) (A)
                 (A) (A) (A) (A) (A) (A) (A) (A) (A) (A) (A) (A)
                 (A) (A) (A) (A) (A) (A) (A) (A) (A) (A) (A) (A)
                 (A) (A) (A) (A) (A) (A) (A) (A) (A) (A) (A) (A)
                 (A) (A) (A) (A) (A) (A) (A) (A) (A) (A) (A) (A)
                 (A) (A) (A) (A) (A) (A) (A) (A) (A) (A) (A) (A)
                 (A) (A) (A) (A) (A) (A) (A) (A) (A) (A) (A) (A)
                 (A) (A) (A) (A) (A) (A) (A) (A) (A) (A) (A) (A)
                 (A) (A) (A) (A) (A) (A) (A) (A) (A) (A) (A) (A)
                 (A) (A) (A) (A) (A) (A) (A) (A) (A) (A) (A) (A)
                 (A) (A) (A) (A) (A) (A) (A) (A) (A) (A) (A) (A)
                 (A) (A) (A) (A) (A) (A) (A) (A) (A) (A) (A) (A)
                 (A) (A) (A) (A) (A) (A) (A) (A) (A) (A) (A) (A)
                 (A) (A) (A) (A) (A) (A) (A) (A) (A) (A) (A) (A)
                 (A) (A) (A) (A) (A) (A) (A) (A) (A) (A) (A) (A)
                 (A) (A) (A) (A) (A) (A) (A) (A) (A) (A) (A) (A)
                 (A) (A) (A) (A) (A) (A) (A) (A) (A) (A) (A) (A)
                 (A)
 The electronic state of the initial guess is 1-A.
 Requested convergence on RMS density matrix=1.00D-08 within 128 cycles.
 Requested convergence on MAX density matrix=1.00D-06.
 Requested convergence on             energy=1.00D-06.
 No special actions if energy rises.
 SCF Done:  E(RB3LYP) =  -2715.35059993     A.U. after   12 cycles
             Convg  =    0.6142D-08             -V/T =  2.0006

 **********************************************************************

            Population analysis using the SCF density.

 **********************************************************************

 Orbital symmetries:
       Occupied  (A) (A) (A) (A) (A) (A) (A) (A) (A) (A) (A) (A)
                 (A) (A) (A) (A) (A) (A) (A) (A) (A) (A) (A) (A)
                 (A) (A) (A) (A) (A)
       Virtual   (A) (A) (A) (A) (A) (A) (A) (A) (A) (A) (A) (A)
                 (A) (A) (A) (A) (A) (A) (A) (A) (A) (A) (A) (A)
                 (A) (A) (A) (A) (A) (A) (A) (A) (A) (A) (A) (A)
                 (A) (A) (A) (A) (A) (A) (A) (A) (A) (A) (A) (A)
                 (A) (A) (A) (A) (A) (A) (A) (A) (A) (A) (A) (A)
                 (A) (A) (A) (A) (A) (A) (A) (A) (A) (A) (A) (A)
                 (A) (A) (A) (A) (A) (A) (A) (A) (A) (A) (A) (A)
                 (A) (A) (A) (A) (A) (A) (A) (A) (A) (A) (A) (A)
                 (A) (A) (A) (A) (A) (A) (A) (A) (A) (A) (A) (A)
                 (A) (A) (A) (A) (A) (A) (A) (A) (A) (A) (A) (A)
                 (A) (A) (A) (A) (A) (A) (A) (A) (A) (A) (A) (A)
                 (A) (A) (A) (A) (A) (A) (A) (A) (A) (A) (A) (A)
                 (A) (A) (A) (A) (A) (A) (A) (A) (A) (A) (A) (A)
                 (A) (A) (A) (A) (A) (A) (A) (A) (A) (A) (A) (A)
                 (A) (A) (A) (A) (A) (A) (A) (A) (A) (A) (A) (A)
                 (A) (A) (A) (A) (A) (A) (A) (A) (A) (A) (A) (A)
                 (A) (A) (A) (A) (A) (A) (A) (A) (A) (A) (A) (A)
                 (A)
 The electronic state is 1-A.
 Alpha  occ. eigenvalues -- -479.90523 -62.42799 -56.04273 -56.03739 -56.03727
 Alpha  occ. eigenvalues --  -19.17611 -10.33435 -10.21803  -8.78292  -6.57256
 Alpha  occ. eigenvalues --   -6.56234  -6.56098  -2.68697  -2.68369  -2.68303
 Alpha  occ. eigenvalues --   -2.67384  -2.67377  -1.10623  -0.81456  -0.76163
 Alpha  occ. eigenvalues --   -0.57083  -0.49465  -0.48731  -0.48239  -0.41676
 Alpha  occ. eigenvalues --   -0.40789  -0.30582  -0.30083  -0.29080
 Alpha virt. eigenvalues --   -0.05621  -0.02555  -0.01128   0.01627   0.01667
 Alpha virt. eigenvalues --    0.02267   0.05698   0.06424   0.06662   0.07249
 Alpha virt. eigenvalues --    0.07823   0.08402   0.10090   0.10648   0.12971
 Alpha virt. eigenvalues --    0.15820   0.16243   0.16357   0.17338   0.19046
 Alpha virt. eigenvalues --    0.19100   0.23688   0.24291   0.24488   0.25876
 Alpha virt. eigenvalues --    0.26742   0.27552   0.27759   0.30050   0.30391
 Alpha virt. eigenvalues --    0.30929   0.31817   0.33846   0.34339   0.37065
 Alpha virt. eigenvalues --    0.37568   0.39247   0.40389   0.42411   0.42582
 Alpha virt. eigenvalues --    0.48432   0.48888   0.49595   0.50916   0.51409
 Alpha virt. eigenvalues --    0.54471   0.59565   0.60356   0.60550   0.63005
 Alpha virt. eigenvalues --    0.63699   0.65927   0.66265   0.66298   0.68815
 Alpha virt. eigenvalues --    0.69479   0.71622   0.71634   0.74072   0.75301
 Alpha virt. eigenvalues --    0.78171   0.79484   0.79566   0.81894   0.83355
 Alpha virt. eigenvalues --    0.85364   0.85767   0.86969   0.88029   0.88752
 Alpha virt. eigenvalues --    0.91478   0.92906   0.93913   0.95760   0.95987
 Alpha virt. eigenvalues --    0.98172   1.02657   1.03836   1.05298   1.08266
 Alpha virt. eigenvalues --    1.08715   1.08854   1.12316   1.14309   1.19957
 Alpha virt. eigenvalues --    1.20287   1.23448   1.26355   1.29556   1.33038
 Alpha virt. eigenvalues --    1.33973   1.35706   1.35715   1.37558   1.41499
 Alpha virt. eigenvalues --    1.43196   1.46050   1.46100   1.50381   1.52027
 Alpha virt. eigenvalues --    1.54707   1.56178   1.58096   1.60777   1.61459
 Alpha virt. eigenvalues --    1.68076   1.69816   1.73441   1.76802   1.82650
 Alpha virt. eigenvalues --    1.88449   1.88871   1.95701   1.96004   2.02805
 Alpha virt. eigenvalues --    2.03970   2.07729   2.12112   2.17108   2.19747
 Alpha virt. eigenvalues --    2.23280   2.27491   2.36049   2.40709   2.46375
 Alpha virt. eigenvalues --    2.48114   2.52102   2.59096   2.62225   2.71188
 Alpha virt. eigenvalues --    2.77548   2.77605   2.87998   2.96593   2.99110
 Alpha virt. eigenvalues --    3.06105   3.15323   3.15378   3.16966   3.20360
 Alpha virt. eigenvalues --    3.21459   3.26713   3.31756   3.32421   3.39517
 Alpha virt. eigenvalues --    3.40628   3.42216   3.43851   3.48231   3.50705
 Alpha virt. eigenvalues --    3.56765   3.57023   3.67924   3.69606   3.70963
 Alpha virt. eigenvalues --    3.74768   3.77671   3.79950   3.87010   3.88831
 Alpha virt. eigenvalues --    3.93067   4.01430   4.10786   4.19520   4.19848
 Alpha virt. eigenvalues --    4.28859   4.32478   4.37192   4.37843   4.40443
 Alpha virt. eigenvalues --    4.49037   4.55211   4.62505   4.69599   4.73938
 Alpha virt. eigenvalues --    4.82823   4.87444   4.94717   5.02455   5.09807
 Alpha virt. eigenvalues --    5.12285   5.20862   5.28979   5.35686   5.49865
 Alpha virt. eigenvalues --    5.69872   5.72716   5.79853   6.12096   6.16315
 Alpha virt. eigenvalues --    6.23961   6.26981   6.44147   6.47313   6.70660
 Alpha virt. eigenvalues --    6.71175   6.73311   6.84046   6.99555   7.06250
 Alpha virt. eigenvalues --    7.18211   7.20396  14.04286  14.92472  16.65941
          Condensed to atoms (all electrons):
              1          2          3          4          5          6
     1  C    5.558948  -0.317943  -0.035598  -0.035907   0.071464   0.475425
     2  C   -0.317943   6.103086   0.327775   0.328178   0.254089  -0.190663
     3  H   -0.035598   0.327775   0.455765   0.042458  -0.046185   0.003247
     4  H   -0.035907   0.328178   0.042458   0.455883  -0.046310   0.003148
     5  H    0.071464   0.254089  -0.046185  -0.046310   0.515462  -0.027045
     6  O    0.475425  -0.190663   0.003247   0.003148  -0.027045   8.229946
     7  Br  -0.149554   0.042277  -0.000849  -0.000909   0.011482  -0.059103
              7
     1  C   -0.149554
     2  C    0.042277
     3  H   -0.000849
     4  H   -0.000909
     5  H    0.011482
     6  O   -0.059103
     7  Br  35.381956
 Mulliken atomic charges:
              1
     1  C    0.433165
     2  C   -0.546798
     3  H    0.253386
     4  H    0.253459
     5  H    0.267043
     6  O   -0.434955
     7  Br  -0.225300
 Sum of Mulliken atomic charges =   0.00000
 Mulliken charges with hydrogens summed into heavy atoms:
              1
     1  C    0.433165
     2  C    0.227091
     6  O   -0.434955
     7  Br  -0.225300
 Sum of Mulliken charges with hydrogens summed into heavy atoms =   0.00000
 Electronic spatial extent (au):  <R**2>=            492.9502
 Charge=              0.0000 electrons
 Dipole moment (field-independent basis, Debye):
    X=              1.0655    Y=             -2.5922    Z=              0.0002  Tot=              2.8026
 Quadrupole moment (field-independent basis, Debye-Ang):
   XX=            -34.1149   YY=            -37.9732   ZZ=            -35.7363
   XY=             -4.3454   XZ=              0.0010   YZ=              0.0002
 Traceless Quadrupole moment (field-independent basis, Debye-Ang):
   XX=              1.8266   YY=             -2.0317   ZZ=              0.2051
   XY=             -4.3454   XZ=              0.0010   YZ=              0.0002
 Octapole moment (field-independent basis, Debye-Ang**2):
  XXX=            -26.5441  YYY=             -3.7792  ZZZ=              0.0006  XYY=             -9.4868
  XXY=             -7.2103  XXZ=             -0.0011  XZZ=             -7.0993  YZZ=             -0.2566
  YYZ=             -0.0002  XYZ=             -0.0010
 Hexadecapole moment (field-independent basis, Debye-Ang**3):
 XXXX=           -363.6719 YYYY=           -168.4144 ZZZZ=            -48.5232 XXXY=             -5.4779
 XXXZ=             -0.0037 YYYX=             -1.8188 YYYZ=              0.0002 ZZZX=              0.0040
 ZZZY=             -0.0029 XXYY=            -95.5923 XXZZ=            -71.8791 YYZZ=            -32.9263
 XXYZ=             -0.0017 YYXZ=              0.0030 ZZXY=              1.2310
 N-N= 2.271383430167D+02 E-N=-6.938340043859D+03  KE= 2.713623062347D+03
   1 Symmetry operations used in ECPInt.
 ECPInt:  NShTT=    3240 NPrTT=    9876 LenC2=    3229 LenP2D=    8519.
 LDataN:  DoStor=T MaxTD1= 7 Len=  274
 Calling FoFJK, ICntrl=      2127 FMM=F ISym2X=0 I1Cent= 0 IOpClX= 0 NMat=1 NMatS=1 NMatT=0.
 ***** Axes restored to original set *****
 -------------------------------------------------------------------
 Center     Atomic                   Forces (Hartrees/Bohr)
 Number     Number              X              Y              Z
 -------------------------------------------------------------------
      1        6          -0.011247992    0.009533354   -0.000052498
      2        6           0.018007097   -0.018442355   -0.000013047
      3        1          -0.002339661    0.008073789   -0.007086278
      4        1          -0.002314585    0.008084443    0.007105114
      5        1          -0.009376969    0.003524952    0.000006092
      6        8          -0.004818182   -0.013897499    0.000025213
      7       35           0.012090294    0.003123316    0.000015405
 -------------------------------------------------------------------
 Cartesian Forces:  Max     0.018442355 RMS     0.008719147

 GradGradGradGradGradGradGradGradGradGradGradGradGradGradGradGradGradGrad
 Berny optimization.
 Internal  Forces:  Max     0.014670124 RMS     0.006236489
 Search for a local minimum.
 Step number   1 out of a maximum of   31
 All quantities printed in internal units (Hartrees-Bohrs-Radians)
 Mixed Optimization -- RFO/linear search
 Second derivative matrix not updated -- first step.
     Eigenvalues ---    0.01011   0.01011   0.07204   0.07224   0.14160
     Eigenvalues ---    0.16000   0.16000   0.16000   0.25000   0.25000
     Eigenvalues ---    0.33157   0.33160   0.33305   0.34404   1.11968
     Eigenvalues --- 1000.000001000.000001000.000001000.000001000.00000
     Eigenvalues --- 1000.00000
 RFO step:  Lambda=-3.17528995D-03 EMin= 1.01136755D-02
 Linear search not attempted -- first point.
 Iteration  1 RMS(Cart)=  0.02649531 RMS(Int)=  0.00051111
 Iteration  2 RMS(Cart)=  0.00040145 RMS(Int)=  0.00035193
 Iteration  3 RMS(Cart)=  0.00000006 RMS(Int)=  0.00035193
 Variable       Old X    -DE/DX   Delta X   Delta X   Delta X     New X
                                 (Linear)    (Quad)   (Total)
    R1        2.79953   0.00083   0.00000   0.00240   0.00240   2.80193
    R2        2.24196  -0.01467   0.00000  -0.01306  -0.01306   2.22889
    R3        3.77744  -0.01243   0.00000  -0.08582  -0.08582   3.69161
    R4        2.08771  -0.00959   0.00000  -0.02864  -0.02864   2.05907
    R5        2.08776  -0.00961   0.00000  -0.02871  -0.02871   2.05905
    R6        2.08519  -0.00887   0.00000  -0.02639  -0.02639   2.05880
    A1        2.24641  -0.00322   0.00000  -0.01271  -0.01271   2.23370
    A2        1.93167   0.00435   0.00000   0.01719   0.01719   1.94886
    A3        2.10511  -0.00113   0.00000  -0.00448  -0.00448   2.10063
    A4        1.95519  -0.00529   0.00000  -0.03529  -0.03590   1.91929
    A5        1.95506  -0.00528   0.00000  -0.03519  -0.03580   1.91926
    A6        1.94571  -0.00345   0.00000  -0.01542  -0.01558   1.93013
    A7        1.84980   0.00376   0.00000   0.01243   0.01135   1.86114
    A8        1.87635   0.00570   0.00000   0.04017   0.04002   1.91637
    A9        1.87646   0.00570   0.00000   0.04015   0.04000   1.91646
    D1        2.10321   0.00121   0.00000   0.01521   0.01482   2.11803
    D2       -2.10395  -0.00124   0.00000  -0.01723  -0.01685  -2.12080
    D3       -0.00034  -0.00001   0.00000  -0.00099  -0.00099  -0.00134
    D4       -1.03890   0.00124   0.00000   0.01746   0.01707  -1.02183
    D5        1.03713  -0.00121   0.00000  -0.01498  -0.01459   1.02253
    D6        3.14073   0.00002   0.00000   0.00126   0.00126  -3.14120
         Item               Value     Threshold  Converged?
 Maximum Force            0.014670     0.000450     NO 
 RMS     Force            0.006236     0.000300     NO 
 Maximum Displacement     0.072265     0.001800     NO 
 RMS     Displacement     0.026627     0.001200     NO 
 Predicted change in Energy=-1.611681D-03
 GradGradGradGradGradGradGradGradGradGradGradGradGradGradGradGradGradGrad

                          Input orientation:                          
 ---------------------------------------------------------------------
 Center     Atomic      Atomic             Coordinates (Angstroms)
 Number     Number       Type             X           Y           Z
 ---------------------------------------------------------------------
      1          6           0        1.005876    0.220263   -0.000572
      2          6           0        1.733333   -1.071732   -0.000189
      3          1           0        1.450712   -1.657612    0.873955
      4          1           0        1.450276   -1.658335   -0.873694
      5          1           0        2.809997   -0.905184   -0.000471
      6          8           0        1.459847    1.308878    0.000138
      7         35           0       -0.929935   -0.042161    0.000639
 ---------------------------------------------------------------------
                    Distance matrix (angstroms):
                    1          2          3          4          5
     1  C    0.000000
     2  C    1.482715   0.000000
     3  H    2.118747   1.089613   0.000000
     4  H    2.118717   1.089603   1.747649   0.000000
     5  H    2.126378   1.089469   1.782813   1.782862   0.000000
     6  O    1.179480   2.396268   3.092523   3.093222   2.593256
     7  Br   1.953518   2.855349   3.006633   3.006972   3.838216
                    6          7
     6  O    0.000000
     7  Br   2.745244   0.000000
 Stoichiometry    C2H3BrO
 Framework group  C1[X(C2H3BrO)]
 Deg. of freedom    15
 Full point group                 C1      NOp   1
 Largest Abelian subgroup         C1      NOp   1
 Largest concise Abelian subgroup C1      NOp   1
                         Standard orientation:                         
 ---------------------------------------------------------------------
 Center     Atomic      Atomic             Coordinates (Angstroms)
 Number     Number       Type             X           Y           Z
 ---------------------------------------------------------------------
      1          6           0        0.981787    0.234845   -0.000601
      2          6           0        1.720802   -1.050573    0.000086
      3          1           0        1.443174   -1.638914    0.874176
      4          1           0        1.443290   -1.639741   -0.873472
      5          1           0        2.795929   -0.874376    0.000130
      6          8           0        1.425976    1.327488    0.000185
      7         35           0       -0.951593   -0.044929    0.000022
 ---------------------------------------------------------------------
 Rotational constants (GHZ):     10.2482187      3.0887799      2.4082486
 Basis read from rwf:  (5D, 7F)
 Pseudo-potential data read from rwf file.
 There are   234 symmetry adapted basis functions of A   symmetry.
 Integral buffers will be    262144 words long.
 Raffenetti 2 integral format.
 Two-electron integral symmetry is turned on.
   234 basis functions,   360 primitive gaussians,   269 cartesian basis functions
    29 alpha electrons       29 beta electrons
       nuclear repulsion energy       230.4055275739 Hartrees.
 NAtoms=    7 NActive=    7 NUniq=    7 SFac= 7.50D-01 NAtFMM=   80 NAOKFM=F Big=F
 One-electron integrals computed using PRISM.
   1 Symmetry operations used in ECPInt.
 ECPInt:  NShTT=    3240 NPrTT=    9876 LenC2=    3231 LenP2D=    8536.
 LDataN:  DoStor=T MaxTD1= 6 Len=  172
 NBasis=   234 RedAO= T  NBF=   234
 NBsUse=   234 1.00D-06 NBFU=   234
 Initial guess read from the read-write file.
 B after Tr=     0.000000    0.000000    0.000000
         Rot=    1.000000    0.000000    0.000000    0.000000 Ang=   0.00 deg.
 Initial guess orbital symmetries:
       Occupied  (A) (A) (A) (A) (A) (A) (A) (A) (A) (A) (A) (A)
                 (A) (A) (A) (A) (A) (A) (A) (A) (A) (A) (A) (A)
                 (A) (A) (A) (A) (A)
       Virtual   (A) (A) (A) (A) (A) (A) (A) (A) (A) (A) (A) (A)
                 (A) (A) (A) (A) (A) (A) (A) (A) (A) (A) (A) (A)
                 (A) (A) (A) (A) (A) (A) (A) (A) (A) (A) (A) (A)
                 (A) (A) (A) (A) (A) (A) (A) (A) (A) (A) (A) (A)
                 (A) (A) (A) (A) (A) (A) (A) (A) (A) (A) (A) (A)
                 (A) (A) (A) (A) (A) (A) (A) (A) (A) (A) (A) (A)
                 (A) (A) (A) (A) (A) (A) (A) (A) (A) (A) (A) (A)
                 (A) (A) (A) (A) (A) (A) (A) (A) (A) (A) (A) (A)
                 (A) (A) (A) (A) (A) (A) (A) (A) (A) (A) (A) (A)
                 (A) (A) (A) (A) (A) (A) (A) (A) (A) (A) (A) (A)
                 (A) (A) (A) (A) (A) (A) (A) (A) (A) (A) (A) (A)
                 (A) (A) (A) (A) (A) (A) (A) (A) (A) (A) (A) (A)
                 (A) (A) (A) (A) (A) (A) (A) (A) (A) (A) (A) (A)
                 (A) (A) (A) (A) (A) (A) (A) (A) (A) (A) (A) (A)
                 (A) (A) (A) (A) (A) (A) (A) (A) (A) (A) (A) (A)
                 (A) (A) (A) (A) (A) (A) (A) (A) (A) (A) (A) (A)
                 (A) (A) (A) (A) (A) (A) (A) (A) (A) (A) (A) (A)
                 (A)
 Harris functional with IExCor=  402 diagonalized for initial guess.
 ExpMin= 2.53D-02 ExpMax= 1.53D+04 ExpMxC= 6.10D+03 IAcc=3 IRadAn=         0 AccDes= 0.00D+00
 HarFok:  IExCor=  402 AccDes= 0.00D+00 IRadAn=         0 IDoV= 1
 ScaDFX=  1.000000  1.000000  1.000000  1.000000
 FoFCou: FMM=F IPFlag=           0 FMFlag=      100000 FMFlg1=           0
         NFxFlg=           0 DoJE=T BraDBF=F KetDBF=T FulRan=T
         Omega=  0.000000  0.000000  1.000000  0.000000  0.000000 ICntrl=     500 IOpCl=  0
         NMat0=    1 NMatS0=    1 NMatT0=    0 NMatD0=    1 NMtDS0=    0 NMtDT0=    0
         I1Cent=           4 NGrid=           0.
 Petite list used in FoFCou.
 Requested convergence on RMS density matrix=1.00D-08 within 128 cycles.
 Requested convergence on MAX density matrix=1.00D-06.
 Requested convergence on             energy=1.00D-06.
 No special actions if energy rises.
 SCF Done:  E(RB3LYP) =  -2715.35240280     A.U. after   12 cycles
             Convg  =    0.3714D-08             -V/T =  2.0006
   1 Symmetry operations used in ECPInt.
 ECPInt:  NShTT=    3240 NPrTT=    9876 LenC2=    3231 LenP2D=    8536.
 LDataN:  DoStor=T MaxTD1= 7 Len=  274
 Calling FoFJK, ICntrl=      2127 FMM=F ISym2X=0 I1Cent= 0 IOpClX= 0 NMat=1 NMatS=1 NMatT=0.
 ***** Axes restored to original set *****
 -------------------------------------------------------------------
 Center     Atomic                   Forces (Hartrees/Bohr)
 Number     Number              X              Y              Z
 -------------------------------------------------------------------
      1        6          -0.007968821   -0.000741419    0.000199488
      2        6           0.007656545   -0.005447267   -0.000068462
      3        1          -0.000939950    0.000640056   -0.000121498
      4        1          -0.000921920    0.000613303    0.000119566
      5        1          -0.001488540    0.001137122   -0.000006267
      6        8           0.003143467    0.003166157   -0.000078065
      7       35           0.000519220    0.000632047   -0.000044762
 -------------------------------------------------------------------
 Cartesian Forces:  Max     0.007968821 RMS     0.002919817

 GradGradGradGradGradGradGradGradGradGradGradGradGradGradGradGradGradGrad
 Berny optimization.
 Using GEDIIS/GDIIS optimizer.
 Internal  Forces:  Max     0.004785948 RMS     0.001813860
 Search for a local minimum.
 Step number   2 out of a maximum of   31
 All quantities printed in internal units (Hartrees-Bohrs-Radians)
 Mixed Optimization -- RFO/linear search
 Update second derivatives using D2CorX and points    1    2
 DE= -1.80D-03 DEPred=-1.61D-03 R= 1.12D+00
 SS=  1.41D+00  RLast= 1.32D-01 DXNew= 5.0454D-01 3.9702D-01
 Trust test= 1.12D+00 RLast= 1.32D-01 DXMaxT set to 3.97D-01
 Use linear search instead of GDIIS.
     Eigenvalues ---    0.01011   0.01012   0.07418   0.07497   0.12917
     Eigenvalues ---    0.15147   0.16000   0.16030   0.24174   0.25085
     Eigenvalues ---    0.31950   0.33159   0.33299   0.36897   1.18037
     Eigenvalues --- 1000.000001000.000001000.000001000.000001000.00000
     Eigenvalues --- 1000.00000
 RFO step:  Lambda=-2.20333205D-04 EMin= 1.01136714D-02
 Quartic linear search produced a step of  0.12104.
 Iteration  1 RMS(Cart)=  0.00853866 RMS(Int)=  0.00011679
 Iteration  2 RMS(Cart)=  0.00008628 RMS(Int)=  0.00007218
 Iteration  3 RMS(Cart)=  0.00000001 RMS(Int)=  0.00007218
 Variable       Old X    -DE/DX   Delta X   Delta X   Delta X     New X
                                 (Linear)    (Quad)   (Total)
    R1        2.80193   0.00479   0.00029   0.01545   0.01574   2.81766
    R2        2.22889   0.00414  -0.00158   0.00483   0.00325   2.23215
    R3        3.69161  -0.00062  -0.01039   0.00066  -0.00973   3.68188
    R4        2.05907  -0.00019  -0.00347   0.00098  -0.00249   2.05658
    R5        2.05905  -0.00018  -0.00348   0.00102  -0.00245   2.05660
    R6        2.05880  -0.00131  -0.00319  -0.00291  -0.00610   2.05270
    A1        2.23370  -0.00329  -0.00154  -0.01399  -0.01554   2.21815
    A2        1.94886   0.00275   0.00208   0.01132   0.01338   1.96225
    A3        2.10063   0.00054  -0.00054   0.00268   0.00212   2.10275
    A4        1.91929  -0.00105  -0.00434  -0.00561  -0.01009   1.90920
    A5        1.91926  -0.00100  -0.00433  -0.00523  -0.00970   1.90956
    A6        1.93013  -0.00128  -0.00189  -0.00692  -0.00886   1.92127
    A7        1.86114   0.00065   0.00137   0.00193   0.00308   1.86423
    A8        1.91637   0.00139   0.00484   0.00817   0.01296   1.92932
    A9        1.91646   0.00137   0.00484   0.00807   0.01286   1.92932
    D1        2.11803   0.00026   0.00179   0.00745   0.00917   2.12720
    D2       -2.12080  -0.00017  -0.00204   0.00335   0.00138  -2.11942
    D3       -0.00134   0.00005  -0.00012   0.00547   0.00534   0.00401
    D4       -1.02183   0.00016   0.00207  -0.00368  -0.00169  -1.02352
    D5        1.02253  -0.00026  -0.00177  -0.00778  -0.00948   1.01305
    D6       -3.14120  -0.00005   0.00015  -0.00567  -0.00551   3.13647
         Item               Value     Threshold  Converged?
 Maximum Force            0.004786     0.000450     NO 
 RMS     Force            0.001814     0.000300     NO 
 Maximum Displacement     0.019524     0.001800     NO 
 RMS     Displacement     0.008527     0.001200     NO 
 Predicted change in Energy=-1.364158D-04
 GradGradGradGradGradGradGradGradGradGradGradGradGradGradGradGradGradGrad

                          Input orientation:                          
 ---------------------------------------------------------------------
 Center     Atomic      Atomic             Coordinates (Angstroms)
 Number     Number       Type             X           Y           Z
 ---------------------------------------------------------------------
      1          6           0        0.998767    0.216173    0.003032
      2          6           0        1.739396   -1.077918    0.000350
      3          1           0        1.453296   -1.659750    0.874427
      4          1           0        1.449444   -1.658763   -0.873123
      5          1           0        2.810096   -0.894852   -0.001906
      6          8           0        1.462673    1.302456   -0.000926
      7         35           0       -0.933567   -0.033229   -0.002049
 ---------------------------------------------------------------------
                    Distance matrix (angstroms):
                    1          2          3          4          5
     1  C    0.000000
     2  C    1.491043   0.000000
     3  H    2.117784   1.088297   0.000000
     4  H    2.118052   1.088305   1.747554   0.000000
     5  H    2.124927   1.086240   1.787158   1.787163   0.000000
     6  O    1.181201   2.396405   3.088850   3.087025   2.577541
     7  Br   1.948368   2.869862   3.018426   3.013283   3.841537
                    6          7
     6  O    0.000000
     7  Br   2.743359   0.000000
 Stoichiometry    C2H3BrO
 Framework group  C1[X(C2H3BrO)]
 Deg. of freedom    15
 Full point group                 C1      NOp   1
 Largest Abelian subgroup         C1      NOp   1
 Largest concise Abelian subgroup C1      NOp   1
                         Standard orientation:                         
 ---------------------------------------------------------------------
 Center     Atomic      Atomic             Coordinates (Angstroms)
 Number     Number       Type             X           Y           Z
 ---------------------------------------------------------------------
      1          6           0       -0.974804    0.234839   -0.003172
      2          6           0       -1.737151   -1.046575    0.000528
      3          1           0       -1.461745   -1.633344   -0.873683
      4          1           0       -1.456198   -1.632033    0.873862
      5          1           0       -2.804609   -0.845476    0.003766
      6          8           0       -1.420319    1.328794    0.000970
      7         35           0        0.953052   -0.047117    0.000119
 ---------------------------------------------------------------------
 Rotational constants (GHZ):     10.2716039      3.0775358      2.4026889
 Basis read from rwf:  (5D, 7F)
 Pseudo-potential data read from rwf file.
 There are   234 symmetry adapted basis functions of A   symmetry.
 Integral buffers will be    262144 words long.
 Raffenetti 2 integral format.
 Two-electron integral symmetry is turned on.
   234 basis functions,   360 primitive gaussians,   269 cartesian basis functions
    29 alpha electrons       29 beta electrons
       nuclear repulsion energy       230.2819748374 Hartrees.
 NAtoms=    7 NActive=    7 NUniq=    7 SFac= 7.50D-01 NAtFMM=   80 NAOKFM=F Big=F
 One-electron integrals computed using PRISM.
   1 Symmetry operations used in ECPInt.
 ECPInt:  NShTT=    3240 NPrTT=    9876 LenC2=    3231 LenP2D=    8537.
 LDataN:  DoStor=T MaxTD1= 6 Len=  172
 NBasis=   234 RedAO= T  NBF=   234
 NBsUse=   234 1.00D-06 NBFU=   234
 Initial guess read from the read-write file.
 B after Tr=     0.000000    0.000000    0.000000
         Rot=    1.000000    0.000000    0.000000    0.000000 Ang=   0.00 deg.
 Initial guess orbital symmetries:
       Occupied  (A) (A) (A) (A) (A) (A) (A) (A) (A) (A) (A) (A)
                 (A) (A) (A) (A) (A) (A) (A) (A) (A) (A) (A) (A)
                 (A) (A) (A) (A) (A)
       Virtual   (A) (A) (A) (A) (A) (A) (A) (A) (A) (A) (A) (A)
                 (A) (A) (A) (A) (A) (A) (A) (A) (A) (A) (A) (A)
                 (A) (A) (A) (A) (A) (A) (A) (A) (A) (A) (A) (A)
                 (A) (A) (A) (A) (A) (A) (A) (A) (A) (A) (A) (A)
                 (A) (A) (A) (A) (A) (A) (A) (A) (A) (A) (A) (A)
                 (A) (A) (A) (A) (A) (A) (A) (A) (A) (A) (A) (A)
                 (A) (A) (A) (A) (A) (A) (A) (A) (A) (A) (A) (A)
                 (A) (A) (A) (A) (A) (A) (A) (A) (A) (A) (A) (A)
                 (A) (A) (A) (A) (A) (A) (A) (A) (A) (A) (A) (A)
                 (A) (A) (A) (A) (A) (A) (A) (A) (A) (A) (A) (A)
                 (A) (A) (A) (A) (A) (A) (A) (A) (A) (A) (A) (A)
                 (A) (A) (A) (A) (A) (A) (A) (A) (A) (A) (A) (A)
                 (A) (A) (A) (A) (A) (A) (A) (A) (A) (A) (A) (A)
                 (A) (A) (A) (A) (A) (A) (A) (A) (A) (A) (A) (A)
                 (A) (A) (A) (A) (A) (A) (A) (A) (A) (A) (A) (A)
                 (A) (A) (A) (A) (A) (A) (A) (A) (A) (A) (A) (A)
                 (A) (A) (A) (A) (A) (A) (A) (A) (A) (A) (A) (A)
                 (A)
 Requested convergence on RMS density matrix=1.00D-08 within 128 cycles.
 Requested convergence on MAX density matrix=1.00D-06.
 Requested convergence on             energy=1.00D-06.
 No special actions if energy rises.
 SCF Done:  E(RB3LYP) =  -2715.35256188     A.U. after   13 cycles
             Convg  =    0.3760D-08             -V/T =  2.0006
   1 Symmetry operations used in ECPInt.
 ECPInt:  NShTT=    3240 NPrTT=    9876 LenC2=    3231 LenP2D=    8537.
 LDataN:  DoStor=T MaxTD1= 7 Len=  274
 Calling FoFJK, ICntrl=      2127 FMM=F ISym2X=0 I1Cent= 0 IOpClX= 0 NMat=1 NMatS=1 NMatT=0.
 ***** Axes restored to original set *****
 -------------------------------------------------------------------
 Center     Atomic                   Forces (Hartrees/Bohr)
 Number     Number              X              Y              Z
 -------------------------------------------------------------------
      1        6          -0.002659656   -0.000972986   -0.001064126
      2        6           0.000944072   -0.000578369    0.000354940
      3        1          -0.000118492   -0.000459181    0.000493799
      4        1          -0.000190676   -0.000324027   -0.000479628
      5        1           0.000227120    0.000396971    0.000031151
      6        8           0.001284596    0.001859018    0.000419359
      7       35           0.000513036    0.000078574    0.000244504
 -------------------------------------------------------------------
 Cartesian Forces:  Max     0.002659656 RMS     0.000904118

 GradGradGradGradGradGradGradGradGradGradGradGradGradGradGradGradGradGrad
 Berny optimization.
 Using GEDIIS/GDIIS optimizer.
 Internal  Forces:  Max     0.002223098 RMS     0.000673177
 Search for a local minimum.
 Step number   3 out of a maximum of   31
 All quantities printed in internal units (Hartrees-Bohrs-Radians)
 Mixed Optimization -- En-DIIS/RFO-DIIS
 Update second derivatives using D2CorX and points    1    2    3
 DE= -1.59D-04 DEPred=-1.36D-04 R= 1.17D+00
 SS=  1.41D+00  RLast= 4.10D-02 DXNew= 6.6771D-01 1.2305D-01
 Trust test= 1.17D+00 RLast= 4.10D-02 DXMaxT set to 3.97D-01
 Use linear search instead of GDIIS.
     Eigenvalues ---    0.01011   0.01069   0.07507   0.07765   0.11019
     Eigenvalues ---    0.15453   0.16005   0.16406   0.23146   0.25057
     Eigenvalues ---    0.32272   0.33163   0.33325   0.36272   1.15414
     Eigenvalues --- 1000.000001000.000001000.000001000.000001000.00000
     Eigenvalues --- 1000.00000
 RFO step:  Lambda=-7.81284782D-05 EMin= 1.01136326D-02
 Quartic linear search produced a step of  0.16977.
 Iteration  1 RMS(Cart)=  0.01383541 RMS(Int)=  0.00032242
 Iteration  2 RMS(Cart)=  0.00028185 RMS(Int)=  0.00019604
 Iteration  3 RMS(Cart)=  0.00000003 RMS(Int)=  0.00019604
 Variable       Old X    -DE/DX   Delta X   Delta X   Delta X     New X
                                 (Linear)    (Quad)   (Total)
    R1        2.81766   0.00127   0.00267   0.00563   0.00831   2.82597
    R2        2.23215   0.00222   0.00055   0.00216   0.00271   2.23486
    R3        3.68188  -0.00053  -0.00165  -0.00761  -0.00926   3.67262
    R4        2.05658   0.00068  -0.00042   0.00127   0.00084   2.05743
    R5        2.05660   0.00062  -0.00042   0.00104   0.00063   2.05723
    R6        2.05270   0.00028  -0.00104  -0.00036  -0.00139   2.05130
    A1        2.21815  -0.00078  -0.00264  -0.00506  -0.00822   2.20993
    A2        1.96225   0.00049   0.00227   0.00400   0.00575   1.96800
    A3        2.10275   0.00030   0.00036   0.00155   0.00139   2.10414
    A4        1.90920   0.00026  -0.00171   0.00022  -0.00151   1.90769
    A5        1.90956   0.00002  -0.00165  -0.00158  -0.00325   1.90631
    A6        1.92127  -0.00051  -0.00150  -0.00511  -0.00663   1.91464
    A7        1.86423  -0.00006   0.00052   0.00073   0.00123   1.86546
    A8        1.92932   0.00011   0.00220   0.00275   0.00494   1.93426
    A9        1.92932   0.00020   0.00218   0.00315   0.00532   1.93464
    D1        2.12720  -0.00029   0.00156  -0.02972  -0.02816   2.09904
    D2       -2.11942  -0.00020   0.00023  -0.02963  -0.02939  -2.14881
    D3        0.00401  -0.00027   0.00091  -0.03001  -0.02910  -0.02509
    D4       -1.02352   0.00024  -0.00029   0.03214   0.03185  -0.99167
    D5        1.01305   0.00033  -0.00161   0.03224   0.03062   1.04367
    D6        3.13647   0.00026  -0.00094   0.03185   0.03091  -3.11580
         Item               Value     Threshold  Converged?
 Maximum Force            0.002223     0.000450     NO 
 RMS     Force            0.000673     0.000300     NO 
 Maximum Displacement     0.037798     0.001800     NO 
 RMS     Displacement     0.013779     0.001200     NO 
 Predicted change in Energy=-4.164286D-05
 GradGradGradGradGradGradGradGradGradGradGradGradGradGradGradGradGradGrad

                          Input orientation:                          
 ---------------------------------------------------------------------
 Center     Atomic      Atomic             Coordinates (Angstroms)
 Number     Number       Type             X           Y           Z
 ---------------------------------------------------------------------
      1          6           0        0.994464    0.214714   -0.016969
      2          6           0        1.740955   -1.081003   -0.002659
      3          1           0        1.444714   -1.657376    0.872213
      4          1           0        1.460146   -1.666129   -0.876676
      5          1           0        2.809103   -0.887866    0.006013
      6          8           0        1.464275    1.299809    0.004892
      7         35           0       -0.933552   -0.028033    0.012992
 ---------------------------------------------------------------------
                    Distance matrix (angstroms):
                    1          2          3          4          5
     1  C    0.000000
     2  C    1.495438   0.000000
     3  H    2.120870   1.088744   0.000000
     4  H    2.119793   1.088637   1.748978   0.000000
     5  H    2.123470   1.085503   1.789973   1.790116   0.000000
     6  O    1.182638   2.396847   3.081813   3.094182   2.567973
     7  Br   1.943468   2.874365   3.008183   3.033918   3.840159
                    6          7
     6  O    0.000000
     7  Br   2.740949   0.000000
 Stoichiometry    C2H3BrO
 Framework group  C1[X(C2H3BrO)]
 Deg. of freedom    15
 Full point group                 C1      NOp   1
 Largest Abelian subgroup         C1      NOp   1
 Largest concise Abelian subgroup C1      NOp   1
                         Standard orientation:                         
 ---------------------------------------------------------------------
 Center     Atomic      Atomic             Coordinates (Angstroms)
 Number     Number       Type             X           Y           Z
 ---------------------------------------------------------------------
      1          6           0        0.969766    0.234936   -0.017801
      2          6           0        1.743163   -1.044817    0.002905
      3          1           0        1.453686   -1.626164    0.876749
      4          1           0        1.480080   -1.636815   -0.871998
      5          1           0        2.806952   -0.829302    0.017861
      6          8           0        1.416575    1.329675    0.005422
      7         35           0       -0.952883   -0.048167    0.000668
 ---------------------------------------------------------------------
 Rotational constants (GHZ):     10.2763804      3.0775522      2.4031130
 Basis read from rwf:  (5D, 7F)
 Pseudo-potential data read from rwf file.
 There are   234 symmetry adapted basis functions of A   symmetry.
 Integral buffers will be    262144 words long.
 Raffenetti 2 integral format.
 Two-electron integral symmetry is turned on.
   234 basis functions,   360 primitive gaussians,   269 cartesian basis functions
    29 alpha electrons       29 beta electrons
       nuclear repulsion energy       230.3302112851 Hartrees.
 NAtoms=    7 NActive=    7 NUniq=    7 SFac= 7.50D-01 NAtFMM=   80 NAOKFM=F Big=F
 One-electron integrals computed using PRISM.
   1 Symmetry operations used in ECPInt.
 ECPInt:  NShTT=    3240 NPrTT=    9876 LenC2=    3231 LenP2D=    8538.
 LDataN:  DoStor=T MaxTD1= 6 Len=  172
 NBasis=   234 RedAO= T  NBF=   234
 NBsUse=   234 1.00D-06 NBFU=   234
 Initial guess read from the read-write file.
 B after Tr=     0.000000    0.000000    0.000000
         Rot=    1.000000    0.000000    0.000000    0.000000 Ang=   0.00 deg.
 Initial guess orbital symmetries:
       Occupied  (A) (A) (A) (A) (A) (A) (A) (A) (A) (A) (A) (A)
                 (A) (A) (A) (A) (A) (A) (A) (A) (A) (A) (A) (A)
                 (A) (A) (A) (A) (A)
       Virtual   (A) (A) (A) (A) (A) (A) (A) (A) (A) (A) (A) (A)
                 (A) (A) (A) (A) (A) (A) (A) (A) (A) (A) (A) (A)
                 (A) (A) (A) (A) (A) (A) (A) (A) (A) (A) (A) (A)
                 (A) (A) (A) (A) (A) (A) (A) (A) (A) (A) (A) (A)
                 (A) (A) (A) (A) (A) (A) (A) (A) (A) (A) (A) (A)
                 (A) (A) (A) (A) (A) (A) (A) (A) (A) (A) (A) (A)
                 (A) (A) (A) (A) (A) (A) (A) (A) (A) (A) (A) (A)
                 (A) (A) (A) (A) (A) (A) (A) (A) (A) (A) (A) (A)
                 (A) (A) (A) (A) (A) (A) (A) (A) (A) (A) (A) (A)
                 (A) (A) (A) (A) (A) (A) (A) (A) (A) (A) (A) (A)
                 (A) (A) (A) (A) (A) (A) (A) (A) (A) (A) (A) (A)
                 (A) (A) (A) (A) (A) (A) (A) (A) (A) (A) (A) (A)
                 (A) (A) (A) (A) (A) (A) (A) (A) (A) (A) (A) (A)
                 (A) (A) (A) (A) (A) (A) (A) (A) (A) (A) (A) (A)
                 (A) (A) (A) (A) (A) (A) (A) (A) (A) (A) (A) (A)
                 (A) (A) (A) (A) (A) (A) (A) (A) (A) (A) (A) (A)
                 (A) (A) (A) (A) (A) (A) (A) (A) (A) (A) (A) (A)
                 (A)
 Harris functional with IExCor=  402 diagonalized for initial guess.
 ExpMin= 2.53D-02 ExpMax= 1.53D+04 ExpMxC= 6.10D+03 IAcc=3 IRadAn=         0 AccDes= 0.00D+00
 HarFok:  IExCor=  402 AccDes= 0.00D+00 IRadAn=         0 IDoV= 1
 ScaDFX=  1.000000  1.000000  1.000000  1.000000
 FoFCou: FMM=F IPFlag=           0 FMFlag=      100000 FMFlg1=           0
         NFxFlg=           0 DoJE=T BraDBF=F KetDBF=T FulRan=T
         Omega=  0.000000  0.000000  1.000000  0.000000  0.000000 ICntrl=     500 IOpCl=  0
         NMat0=    1 NMatS0=    1 NMatT0=    0 NMatD0=    1 NMtDS0=    0 NMtDT0=    0
         I1Cent=           4 NGrid=           0.
 Petite list used in FoFCou.
 Requested convergence on RMS density matrix=1.00D-08 within 128 cycles.
 Requested convergence on MAX density matrix=1.00D-06.
 Requested convergence on             energy=1.00D-06.
 No special actions if energy rises.
 SCF Done:  E(RB3LYP) =  -2715.35246528     A.U. after   13 cycles
             Convg  =    0.5221D-08             -V/T =  2.0006
   1 Symmetry operations used in ECPInt.
 ECPInt:  NShTT=    3240 NPrTT=    9876 LenC2=    3231 LenP2D=    8538.
 LDataN:  DoStor=T MaxTD1= 7 Len=  274
 Calling FoFJK, ICntrl=      2127 FMM=F ISym2X=0 I1Cent= 0 IOpClX= 0 NMat=1 NMatS=1 NMatT=0.
 ***** Axes restored to original set *****
 -------------------------------------------------------------------
 Center     Atomic                   Forces (Hartrees/Bohr)
 Number     Number              X              Y              Z
 -------------------------------------------------------------------
      1        6           0.000421044   -0.000775763    0.005937191
      2        6          -0.001584706    0.001256755   -0.001999006
      3        1           0.000057110   -0.000004322    0.000233839
      4        1           0.000456670   -0.000749131   -0.000307330
      5        1           0.000622334   -0.000150010   -0.000161206
      6        8           0.000171660    0.000577091   -0.002358824
      7       35          -0.000144112   -0.000154619   -0.001344663
 -------------------------------------------------------------------
 Cartesian Forces:  Max     0.005937191 RMS     0.001592443

 GradGradGradGradGradGradGradGradGradGradGradGradGradGradGradGradGradGrad
 Berny optimization.
 Using GEDIIS/GDIIS optimizer.
 Internal  Forces:  Max     0.001652774 RMS     0.000876144
 Search for a local minimum.
 Step number   4 out of a maximum of   31
 All quantities printed in internal units (Hartrees-Bohrs-Radians)
 Mixed Optimization -- En-DIIS/RFO-DIIS
 Swaping is turned off.
 Update second derivatives using D2CorX and points    1    2    3    4
 DE=  9.66D-05 DEPred=-4.16D-05 R=-2.32D+00
 Trust test=-2.32D+00 RLast= 7.61D-02 DXMaxT set to 1.99D-01
     Eigenvalues ---    0.01011   0.03266   0.06536   0.07614   0.08140
     Eigenvalues ---    0.15601   0.16156   0.16536   0.22456   0.25010
     Eigenvalues ---    0.31633   0.33186   0.33276   0.34191   1.11786
     Eigenvalues --- 1000.000001000.000001000.000001000.000001000.00000
     Eigenvalues --- 1000.00000
 En-DIIS/RFO-DIIS IScMMF=        0 using points:     4    3
 RFO step:  Lambda=-6.03738479D-05.
 DIIS coeffs:      0.22958      0.77042
 Iteration  1 RMS(Cart)=  0.01210524 RMS(Int)=  0.00017431
 Iteration  2 RMS(Cart)=  0.00020958 RMS(Int)=  0.00001968
 Iteration  3 RMS(Cart)=  0.00000001 RMS(Int)=  0.00001968
 Variable       Old X    -DE/DX   Delta X   Delta X   Delta X     New X
                                  (DIIS)     (GDIIS)  (Total)
    R1        2.82597  -0.00054  -0.00640   0.00774   0.00134   2.82731
    R2        2.23486   0.00056  -0.00209   0.00262   0.00053   2.23539
    R3        3.67262   0.00013   0.00713  -0.01167  -0.00454   3.66808
    R4        2.05743   0.00018  -0.00065   0.00064  -0.00001   2.05742
    R5        2.05723   0.00054  -0.00048   0.00067   0.00019   2.05741
    R6        2.05130   0.00057   0.00107  -0.00123  -0.00016   2.05114
    A1        2.20993   0.00029   0.00633  -0.00756  -0.00128   2.20866
    A2        1.96800  -0.00022  -0.00443   0.00612   0.00163   1.96963
    A3        2.10414   0.00006  -0.00107   0.00187   0.00075   2.10489
    A4        1.90769  -0.00025   0.00116  -0.00226  -0.00109   1.90659
    A5        1.90631   0.00107   0.00250  -0.00190   0.00061   1.90692
    A6        1.91464   0.00019   0.00511  -0.00703  -0.00192   1.91272
    A7        1.86546  -0.00023  -0.00095   0.00118   0.00024   1.86569
    A8        1.93426  -0.00014  -0.00380   0.00508   0.00128   1.93554
    A9        1.93464  -0.00063  -0.00410   0.00501   0.00092   1.93556
    D1        2.09904   0.00128   0.02170   0.00530   0.02700   2.12604
    D2       -2.14881   0.00147   0.02264   0.00437   0.02701  -2.12180
    D3       -0.02509   0.00150   0.02242   0.00491   0.02733   0.00224
    D4       -0.99167  -0.00165  -0.02453  -0.00453  -0.02907  -1.02074
    D5        1.04367  -0.00147  -0.02359  -0.00547  -0.02906   1.01461
    D6       -3.11580  -0.00144  -0.02382  -0.00492  -0.02874   3.13865
         Item               Value     Threshold  Converged?
 Maximum Force            0.001653     0.000450     NO 
 RMS     Force            0.000876     0.000300     NO 
 Maximum Displacement     0.035331     0.001800     NO 
 RMS     Displacement     0.012090     0.001200     NO 
 Predicted change in Energy=-1.226669D-04
 GradGradGradGradGradGradGradGradGradGradGradGradGradGradGradGradGradGrad

                          Input orientation:                          
 ---------------------------------------------------------------------
 Center     Atomic      Atomic             Coordinates (Angstroms)
 Number     Number       Type             X           Y           Z
 ---------------------------------------------------------------------
      1          6           0        0.993344    0.214209    0.001727
      2          6           0        1.741022   -1.081721    0.000127
      3          1           0        1.453860   -1.662669    0.874990
      4          1           0        1.451476   -1.662273   -0.874213
      5          1           0        2.808637   -0.885940   -0.001273
      6          8           0        1.464473    1.299254   -0.000583
      7         35           0       -0.932707   -0.026743   -0.000970
 ---------------------------------------------------------------------
                    Distance matrix (angstroms):
                    1          2          3          4          5
     1  C    0.000000
     2  C    1.496148   0.000000
     3  H    2.120692   1.088737   0.000000
     4  H    2.120929   1.088737   1.749205   0.000000
     5  H    2.122646   1.085419   1.790688   1.790699   0.000000
     6  O    1.182916   2.396982   3.088646   3.087725   2.565512
     7  Br   1.941066   2.874335   3.023122   3.020238   3.838733
                    6          7
     6  O    0.000000
     7  Br   2.739478   0.000000
 Stoichiometry    C2H3BrO
 Framework group  C1[X(C2H3BrO)]
 Deg. of freedom    15
 Full point group                 C1      NOp   1
 Largest Abelian subgroup         C1      NOp   1
 Largest concise Abelian subgroup C1      NOp   1
                         Standard orientation:                         
 ---------------------------------------------------------------------
 Center     Atomic      Atomic             Coordinates (Angstroms)
 Number     Number       Type             X           Y           Z
 ---------------------------------------------------------------------
      1          6           0       -0.967874    0.234835   -0.001809
      2          6           0       -1.743883   -1.044331    0.000310
      3          1           0       -1.469963   -1.631574   -0.874597
      4          1           0       -1.466789   -1.630996    0.874605
      5          1           0       -2.806931   -0.825108    0.002155
      6          8           0       -1.415015    1.329983    0.000554
      7         35           0        0.952410   -0.048435    0.000069
 ---------------------------------------------------------------------
 Rotational constants (GHZ):     10.2783080      3.0803847      2.4048567
 Basis read from rwf:  (5D, 7F)
 Pseudo-potential data read from rwf file.
 There are   234 symmetry adapted basis functions of A   symmetry.
 Integral buffers will be    262144 words long.
 Raffenetti 2 integral format.
 Two-electron integral symmetry is turned on.
   234 basis functions,   360 primitive gaussians,   269 cartesian basis functions
    29 alpha electrons       29 beta electrons
       nuclear repulsion energy       230.4187421329 Hartrees.
 NAtoms=    7 NActive=    7 NUniq=    7 SFac= 7.50D-01 NAtFMM=   80 NAOKFM=F Big=F
 One-electron integrals computed using PRISM.
   1 Symmetry operations used in ECPInt.
 ECPInt:  NShTT=    3240 NPrTT=    9876 LenC2=    3231 LenP2D=    8538.
 LDataN:  DoStor=T MaxTD1= 6 Len=  172
 NBasis=   234 RedAO= T  NBF=   234
 NBsUse=   234 1.00D-06 NBFU=   234
 Initial guess read from the read-write file.
 B after Tr=     0.000000    0.000000    0.000000
         Rot=    1.000000    0.000000    0.000000    0.000000 Ang=   0.00 deg.
 Initial guess orbital symmetries:
       Occupied  (A) (A) (A) (A) (A) (A) (A) (A) (A) (A) (A) (A)
                 (A) (A) (A) (A) (A) (A) (A) (A) (A) (A) (A) (A)
                 (A) (A) (A) (A) (A)
       Virtual   (A) (A) (A) (A) (A) (A) (A) (A) (A) (A) (A) (A)
                 (A) (A) (A) (A) (A) (A) (A) (A) (A) (A) (A) (A)
                 (A) (A) (A) (A) (A) (A) (A) (A) (A) (A) (A) (A)
                 (A) (A) (A) (A) (A) (A) (A) (A) (A) (A) (A) (A)
                 (A) (A) (A) (A) (A) (A) (A) (A) (A) (A) (A) (A)
                 (A) (A) (A) (A) (A) (A) (A) (A) (A) (A) (A) (A)
                 (A) (A) (A) (A) (A) (A) (A) (A) (A) (A) (A) (A)
                 (A) (A) (A) (A) (A) (A) (A) (A) (A) (A) (A) (A)
                 (A) (A) (A) (A) (A) (A) (A) (A) (A) (A) (A) (A)
                 (A) (A) (A) (A) (A) (A) (A) (A) (A) (A) (A) (A)
                 (A) (A) (A) (A) (A) (A) (A) (A) (A) (A) (A) (A)
                 (A) (A) (A) (A) (A) (A) (A) (A) (A) (A) (A) (A)
                 (A) (A) (A) (A) (A) (A) (A) (A) (A) (A) (A) (A)
                 (A) (A) (A) (A) (A) (A) (A) (A) (A) (A) (A) (A)
                 (A) (A) (A) (A) (A) (A) (A) (A) (A) (A) (A) (A)
                 (A) (A) (A) (A) (A) (A) (A) (A) (A) (A) (A) (A)
                 (A) (A) (A) (A) (A) (A) (A) (A) (A) (A) (A) (A)
                 (A)
 Harris functional with IExCor=  402 diagonalized for initial guess.
 ExpMin= 2.53D-02 ExpMax= 1.53D+04 ExpMxC= 6.10D+03 IAcc=3 IRadAn=         0 AccDes= 0.00D+00
 HarFok:  IExCor=  402 AccDes= 0.00D+00 IRadAn=         0 IDoV= 1
 ScaDFX=  1.000000  1.000000  1.000000  1.000000
 FoFCou: FMM=F IPFlag=           0 FMFlag=      100000 FMFlg1=           0
         NFxFlg=           0 DoJE=T BraDBF=F KetDBF=T FulRan=T
         Omega=  0.000000  0.000000  1.000000  0.000000  0.000000 ICntrl=     500 IOpCl=  0
         NMat0=    1 NMatS0=    1 NMatT0=    0 NMatD0=    1 NMtDS0=    0 NMtDT0=    0
         I1Cent=           4 NGrid=           0.
 Petite list used in FoFCou.
 Requested convergence on RMS density matrix=1.00D-08 within 128 cycles.
 Requested convergence on MAX density matrix=1.00D-06.
 Requested convergence on             energy=1.00D-06.
 No special actions if energy rises.
 SCF Done:  E(RB3LYP) =  -2715.35257217     A.U. after   13 cycles
             Convg  =    0.1907D-08             -V/T =  2.0006
   1 Symmetry operations used in ECPInt.
 ECPInt:  NShTT=    3240 NPrTT=    9876 LenC2=    3231 LenP2D=    8538.
 LDataN:  DoStor=T MaxTD1= 7 Len=  274
 Calling FoFJK, ICntrl=      2127 FMM=F ISym2X=0 I1Cent= 0 IOpClX= 0 NMat=1 NMatS=1 NMatT=0.
 ***** Axes restored to original set *****
 -------------------------------------------------------------------
 Center     Atomic                   Forces (Hartrees/Bohr)
 Number     Number              X              Y              Z
 -------------------------------------------------------------------
      1        6           0.001165891   -0.000764120   -0.000615607
      2        6          -0.001944530    0.001687990    0.000214414
      3        1           0.000355443   -0.000417929    0.000256730
      4        1           0.000310120   -0.000336409   -0.000252360
      5        1           0.000676261   -0.000328732    0.000015891
      6        8           0.000043210    0.000404130    0.000242827
      7       35          -0.000606395   -0.000244930    0.000138105
 -------------------------------------------------------------------
 Cartesian Forces:  Max     0.001944530 RMS     0.000719628

 GradGradGradGradGradGradGradGradGradGradGradGradGradGradGradGradGradGrad
 Berny optimization.
 Using GEDIIS/GDIIS optimizer.
 Internal  Forces:  Max     0.000817381 RMS     0.000401156
 Search for a local minimum.
 Step number   5 out of a maximum of   31
 All quantities printed in internal units (Hartrees-Bohrs-Radians)
 Mixed Optimization -- En-DIIS/RFO-DIIS
 Swaping is turned off.
 Update second derivatives using D2CorX and points    1    2    3    4    5
 DE= -1.07D-04 DEPred=-1.23D-04 R= 8.71D-01
 SS=  1.41D+00  RLast= 6.90D-02 DXNew= 3.3385D-01 2.0689D-01
 Trust test= 8.71D-01 RLast= 6.90D-02 DXMaxT set to 2.07D-01
     Eigenvalues ---    0.01011   0.05555   0.07616   0.07736   0.11122
     Eigenvalues ---    0.15570   0.16089   0.16533   0.21782   0.24979
     Eigenvalues ---    0.31293   0.33186   0.33292   0.33381   1.04717
     Eigenvalues --- 1000.000001000.000001000.000001000.000001000.00000
     Eigenvalues --- 1000.00000
 En-DIIS/RFO-DIIS IScMMF=        0 using points:     5    4    3
 RFO step:  Lambda=-8.60706882D-06.
 DIIS coeffs:      0.46883      0.12229      0.40887
 Iteration  1 RMS(Cart)=  0.00262473 RMS(Int)=  0.00002177
 Iteration  2 RMS(Cart)=  0.00001000 RMS(Int)=  0.00001988
 Iteration  3 RMS(Cart)=  0.00000000 RMS(Int)=  0.00001988
 Variable       Old X    -DE/DX   Delta X   Delta X   Delta X     New X
                                  (DIIS)     (GDIIS)  (Total)
    R1        2.82731  -0.00082  -0.00411   0.00046  -0.00365   2.82366
    R2        2.23539   0.00040  -0.00139   0.00122  -0.00017   2.23522
    R3        3.66808   0.00062   0.00620   0.00073   0.00692   3.67501
    R4        2.05742   0.00034  -0.00034   0.00165   0.00131   2.05873
    R5        2.05741   0.00031  -0.00036   0.00166   0.00130   2.05871
    R6        2.05114   0.00060   0.00065   0.00155   0.00221   2.05335
    A1        2.20866   0.00029   0.00404  -0.00071   0.00338   2.21204
    A2        1.96963  -0.00038  -0.00322  -0.00003  -0.00319   1.96644
    A3        2.10489   0.00009  -0.00096   0.00073  -0.00018   2.10471
    A4        1.90659   0.00051   0.00120   0.00235   0.00354   1.91014
    A5        1.90692   0.00036   0.00100   0.00232   0.00332   1.91024
    A6        1.91272   0.00043   0.00373  -0.00042   0.00332   1.91604
    A7        1.86569  -0.00026  -0.00063  -0.00042  -0.00106   1.86464
    A8        1.93554  -0.00055  -0.00270  -0.00185  -0.00455   1.93099
    A9        1.93556  -0.00049  -0.00266  -0.00185  -0.00452   1.93105
    D1        2.12604  -0.00023  -0.00283  -0.00097  -0.00380   2.12224
    D2       -2.12180  -0.00005  -0.00233   0.00117  -0.00116  -2.12296
    D3        0.00224  -0.00016  -0.00262   0.00009  -0.00253  -0.00029
    D4       -1.02074   0.00007   0.00242  -0.00108   0.00133  -1.01940
    D5        1.01461   0.00025   0.00291   0.00106   0.00397   1.01859
    D6        3.13865   0.00015   0.00263  -0.00002   0.00260   3.14125
         Item               Value     Threshold  Converged?
 Maximum Force            0.000817     0.000450     NO 
 RMS     Force            0.000401     0.000300     NO 
 Maximum Displacement     0.006346     0.001800     NO 
 RMS     Displacement     0.002628     0.001200     NO 
 Predicted change in Energy=-1.191176D-05
 GradGradGradGradGradGradGradGradGradGradGradGradGradGradGradGradGradGrad

                          Input orientation:                          
 ---------------------------------------------------------------------
 Center     Atomic      Atomic             Coordinates (Angstroms)
 Number     Number       Type             X           Y           Z
 ---------------------------------------------------------------------
      1          6           0        0.995005    0.215686    0.000016
      2          6           0        1.739454   -1.079874   -0.000115
      3          1           0        1.453623   -1.662447    0.874970
      4          1           0        1.452827   -1.662850   -0.874659
      5          1           0        2.809198   -0.889298   -0.000615
      6          8           0        1.464328    1.301417   -0.000079
      7         35           0       -0.934331   -0.028516    0.000288
 ---------------------------------------------------------------------
                    Distance matrix (angstroms):
                    1          2          3          4          5
     1  C    0.000000
     2  C    1.494215   0.000000
     3  H    2.122088   1.089433   0.000000
     4  H    2.122158   1.089424   1.749630   0.000000
     5  H    2.124214   1.086588   1.789411   1.789436   0.000000
     6  O    1.182825   2.397132   3.090358   3.090615   2.570585
     7  Br   1.944729   2.873061   3.022768   3.022434   3.841218
                    6          7
     6  O    0.000000
     7  Br   2.742678   0.000000
 Stoichiometry    C2H3BrO
 Framework group  C1[X(C2H3BrO)]
 Deg. of freedom    15
 Full point group                 C1      NOp   1
 Largest Abelian subgroup         C1      NOp   1
 Largest concise Abelian subgroup C1      NOp   1
                         Standard orientation:                         
 ---------------------------------------------------------------------
 Center     Atomic      Atomic             Coordinates (Angstroms)
 Number     Number       Type             X           Y           Z
 ---------------------------------------------------------------------
      1          6           0        0.970923    0.234923   -0.000132
[...]
     2   6     0.00   0.00  -0.01     0.34   0.01   0.00     0.11   0.15   0.00
     3   1     0.40   0.30   0.32     0.55  -0.08   0.01    -0.02   0.22   0.00
     4   1    -0.40  -0.30   0.32     0.55  -0.08  -0.01    -0.02   0.22   0.00
     5   1     0.00   0.00  -0.53     0.27   0.38   0.00     0.15  -0.04   0.00
     6   8     0.00   0.00   0.05    -0.05  -0.13   0.00     0.75   0.10   0.00
     7  35     0.00   0.00  -0.01    -0.06   0.04   0.00    -0.22  -0.09   0.00
                     4                      5                      6
                     A                      A                      A
 Frequencies --   521.5763               598.4327               960.4704
 Red. masses --     2.9121                 3.9976                 2.5695
 Frc consts  --     0.4668                 0.8435                 1.3966
 IR Inten    --     0.3609                89.2625                57.1001
  Atom  AN      X      Y      Z        X      Y      Z        X      Y      Z
     1   6     0.00   0.00   0.38     0.31   0.02   0.00     0.18  -0.14   0.00
     2   6     0.00   0.00  -0.01     0.13  -0.25   0.00     0.00   0.25   0.00
     3   1     0.35  -0.42  -0.19    -0.19  -0.12  -0.01    -0.48   0.37  -0.07
     4   1    -0.35   0.42  -0.19    -0.19  -0.12   0.01    -0.48   0.37   0.07
     5   1     0.00   0.00  -0.40     0.23  -0.78   0.00     0.11  -0.32   0.00
     6   8     0.00   0.00  -0.14    -0.16   0.20   0.00    -0.06  -0.13   0.00
     7  35     0.00   0.00  -0.02    -0.03   0.01   0.00     0.00   0.00   0.00
                     7                      8                      9
                     A                      A                      A
 Frequencies --  1035.4055              1118.9772              1388.2311
 Red. masses --     1.6253                 2.1051                 1.2335
 Frc consts  --     1.0266                 1.5530                 1.4006
 IR Inten    --     1.1472               144.2444                28.7136
  Atom  AN      X      Y      Z        X      Y      Z        X      Y      Z
     1   6     0.00   0.00  -0.17     0.24  -0.08   0.00     0.03  -0.01   0.00
     2   6     0.00   0.00   0.16    -0.18  -0.01   0.00    -0.06   0.12   0.00
     3   1     0.27  -0.55  -0.15     0.30  -0.01   0.13     0.25  -0.51  -0.31
     4   1    -0.27   0.55  -0.15     0.30  -0.01  -0.13     0.25  -0.51   0.31
     5   1     0.00   0.00  -0.38    -0.33   0.76   0.00     0.04  -0.38   0.00
     6   8     0.00   0.00   0.03    -0.04   0.02   0.00     0.00   0.01   0.00
     7  35     0.00   0.00   0.00     0.00   0.00   0.00     0.00   0.00   0.00
                    10                     11                     12
                     A                      A                      A
 Frequencies --  1455.6030              1468.5220              1861.7387
 Red. masses --     1.0612                 1.0450                11.9671
 Frc consts  --     1.3247                 1.3278                24.4386
 IR Inten    --     8.6232                13.9502               359.0490
  Atom  AN      X      Y      Z        X      Y      Z        X      Y      Z
     1   6     0.00  -0.01   0.00     0.00   0.00   0.02     0.21   0.74   0.00
     2   6     0.06  -0.01   0.00     0.00   0.00   0.05     0.01  -0.06   0.00
     3   1    -0.41  -0.28  -0.32    -0.48   0.08  -0.06     0.04  -0.18  -0.10
     4   1    -0.41  -0.28   0.32     0.48  -0.08  -0.06     0.04  -0.18   0.10
     5   1    -0.06   0.54   0.00     0.00   0.00  -0.72     0.00   0.16   0.00
     6   8     0.00   0.02   0.00     0.00   0.00   0.00    -0.20  -0.50   0.00
     7  35     0.00   0.00   0.00     0.00   0.00   0.00     0.01   0.00   0.00
                    13                     14                     15
                     A                      A                      A
 Frequencies --  3052.8234              3113.7544              3146.3839
 Red. masses --     1.0335                 1.0991                 1.1065
 Frc consts  --     5.6752                 6.2787                 6.4541
 IR Inten    --     0.5097                 0.2987                 7.3328
  Atom  AN      X      Y      Z        X      Y      Z        X      Y      Z
     1   6     0.00   0.00   0.00     0.00   0.00   0.00     0.00   0.00   0.00
     2   6    -0.02   0.05   0.00     0.00   0.00   0.09    -0.08  -0.05   0.00
     3   1    -0.15  -0.32   0.49     0.18   0.39  -0.56     0.08   0.19  -0.30
     4   1    -0.15  -0.32  -0.49    -0.18  -0.39  -0.56     0.08   0.19   0.30
     5   1     0.51   0.11   0.00     0.00   0.00   0.01     0.84   0.17   0.00
     6   8     0.00   0.00   0.00     0.00   0.00   0.00     0.00   0.00   0.00
     7  35     0.00   0.00   0.00     0.00   0.00   0.00     0.00   0.00   0.00

 -------------------
 - Thermochemistry -
 -------------------
 Temperature   298.150 Kelvin.  Pressure   1.00000 Atm.
 Atom     1 has atomic number  6 and mass  12.00000
 Atom     2 has atomic number  6 and mass  12.00000
 Atom     3 has atomic number  1 and mass   1.00783
 Atom     4 has atomic number  1 and mass   1.00783
 Atom     5 has atomic number  1 and mass   1.00783
 Atom     6 has atomic number  8 and mass  15.99491
 Atom     7 has atomic number 35 and mass  78.91834
 Molecular mass:   121.93673 amu.
 Principal axes and moments of inertia in atomic units:
                           1         2         3
     Eigenvalues --   175.75325 586.64136 751.37731
           X            0.99763  -0.06880   0.00015
           Y            0.06880   0.99763   0.00001
           Z           -0.00015   0.00000   1.00000
 This molecule is an asymmetric top.
 Rotational symmetry number  1.
 Rotational temperatures (Kelvin)      0.49281     0.14764     0.11527
 Rotational constants (GHZ):          10.26861     3.07640     2.40191
 Zero-point vibrational energy     122734.5 (Joules/Mol)
                                   29.33425 (Kcal/Mol)
 Warning -- explicit consideration of   5 degrees of freedom as
           vibrations may cause significant error
 Vibrational temperatures:    185.33   435.33   527.04   750.43   861.01
          (Kelvin)           1381.90  1489.72  1609.96  1997.35  2094.29
                             2112.87  2678.62  4392.33  4479.99  4526.94
 
 Zero-point correction=                           0.046747 (Hartree/Particle)
 Thermal correction to Energy=                    0.051509
 Thermal correction to Enthalpy=                  0.052453
 Thermal correction to Gibbs Free Energy=         0.017779
 Sum of electronic and zero-point Energies=          -2715.305836
 Sum of electronic and thermal Energies=             -2715.301074
 Sum of electronic and thermal Enthalpies=           -2715.300130
 Sum of electronic and thermal Free Energies=        -2715.334804
 
                     E (Thermal)             CV                S
                      KCal/Mol        Cal/Mol-Kelvin    Cal/Mol-Kelvin
 Total                   32.322             14.662             72.979
 Electronic               0.000              0.000              0.000
 Translational            0.889              2.981             40.309
 Rotational               0.889              2.981             25.852
 Vibrational             30.545              8.701              6.818
 Vibration     1          0.611              1.924              2.964
 Vibration     2          0.694              1.669              1.403
 Vibration     3          0.739              1.542              1.095
 Vibration     4          0.877              1.202              0.606
 Vibration     5          0.956              1.035              0.452
                       Q            Log10(Q)             Ln(Q)
 Total Bot       0.664392D-08         -8.177575        -18.829563
 Total V=0       0.211132D+14         13.324554         30.680920
 Vib (Bot)       0.125995D-20        -20.899646        -48.123213
 Vib (Bot)    1  0.158315D+01          0.199521          0.459414
 Vib (Bot)    2  0.627629D+00         -0.202297         -0.465806
 Vib (Bot)    3  0.498257D+00         -0.302546         -0.696639
 Vib (Bot)    4  0.309026D+00         -0.510006         -1.174331
 Vib (Bot)    5  0.249920D+00         -0.602199         -1.386614
 Vib (V=0)       0.400390D+01          0.602484          1.387270
 Vib (V=0)    1  0.216023D+01          0.334499          0.770213
 Vib (V=0)    2  0.130245D+01          0.114759          0.264243
 Vib (V=0)    3  0.120588D+01          0.081302          0.187206
 Vib (V=0)    4  0.108779D+01          0.036545          0.084148
 Vib (V=0)    5  0.105898D+01          0.024888          0.057307
 Electronic      0.100000D+01          0.000000          0.000000
 Translational   0.529245D+08          7.723657         17.784377
 Rotational      0.996354D+05          4.998413         11.509272
 ***** Axes restored to original set *****
 -------------------------------------------------------------------
 Center     Atomic                   Forces (Hartrees/Bohr)
 Number     Number              X              Y              Z
 -------------------------------------------------------------------
      1        6          -0.000145999   -0.000221341   -0.000011110
      2        6          -0.000163795    0.000184291    0.000006666
      3        1           0.000081046    0.000060302   -0.000080008
      4        1           0.000079784    0.000063143    0.000078333
      5        1          -0.000016431   -0.000024997    0.000000144
      6        8          -0.000006397   -0.000049975    0.000003563
      7       35           0.000171792   -0.000011423    0.000002412
 -------------------------------------------------------------------
 Cartesian Forces:  Max     0.000221341 RMS     0.000096968

 GradGradGradGradGradGradGradGradGradGradGradGradGradGradGradGradGradGrad
 Berny optimization.
 Internal  Forces:  Max     0.000246479 RMS     0.000080905
 Search for a local minimum.
 Step number   1 out of a maximum of    2
 All quantities printed in internal units (Hartrees-Bohrs-Radians)
 Second derivative matrix not updated -- analytic derivatives used.
     Eigenvalues ---    0.00108   0.05193   0.05395   0.05660   0.10606
     Eigenvalues ---    0.12342   0.13659   0.14329   0.19914   0.24196
     Eigenvalues ---    0.30464   0.33811   0.34359   0.34852   0.92849
     Eigenvalues --- 1000.000001000.000001000.000001000.000001000.00000
     Eigenvalues --- 1000.00000
 Angle between quadratic step and forces=  36.04 degrees.
 Linear search not attempted -- first point.
 Iteration  1 RMS(Cart)=  0.00045495 RMS(Int)=  0.00000016
 Iteration  2 RMS(Cart)=  0.00000019 RMS(Int)=  0.00000004
 Variable       Old X    -DE/DX   Delta X   Delta X   Delta X     New X
                                 (Linear)    (Quad)   (Total)
    R1        2.82366  -0.00025   0.00000  -0.00085  -0.00085   2.82281
    R2        2.23522  -0.00004   0.00000   0.00015   0.00015   2.23536
    R3        3.67501  -0.00018   0.00000  -0.00152  -0.00152   3.67348
    R4        2.05873  -0.00011   0.00000  -0.00030  -0.00030   2.05843
    R5        2.05871  -0.00011   0.00000  -0.00028  -0.00028   2.05843
    R6        2.05335  -0.00003   0.00000  -0.00007  -0.00007   2.05328
    A1        2.21204  -0.00008   0.00000  -0.00059  -0.00059   2.21145
    A2        1.96644   0.00005   0.00000   0.00048   0.00048   1.96692
    A3        2.10471   0.00003   0.00000   0.00011   0.00011   2.10481
    A4        1.91014   0.00002   0.00000   0.00037   0.00037   1.91051
    A5        1.91024   0.00001   0.00000   0.00027   0.00027   1.91051
    A6        1.91604   0.00005   0.00000   0.00036   0.00036   1.91640
    A7        1.86464   0.00000   0.00000   0.00001   0.00001   1.86464
    A8        1.93099  -0.00004   0.00000  -0.00048  -0.00048   1.93052
    A9        1.93105  -0.00004   0.00000  -0.00052  -0.00052   1.93052
    D1        2.12224  -0.00001   0.00000   0.00013   0.00013   2.12237
    D2       -2.12296   0.00001   0.00000   0.00051   0.00051  -2.12245
    D3       -0.00029   0.00000   0.00000   0.00026   0.00026  -0.00004
    D4       -1.01940  -0.00001   0.00000   0.00018   0.00018  -1.01922
    D5        1.01859   0.00001   0.00000   0.00056   0.00056   1.01914
    D6        3.14125   0.00000   0.00000   0.00031   0.00031   3.14156
         Item               Value     Threshold  Converged?
 Maximum Force            0.000246     0.000450     YES
 RMS     Force            0.000081     0.000300     YES
 Maximum Displacement     0.000797     0.001800     YES
 RMS     Displacement     0.000455     0.001200     YES
 Predicted change in Energy=-3.497557D-07
 Optimization completed.
    -- Stationary point found.
                           ----------------------------
                           !   Optimized Parameters   !
                           ! (Angstroms and Degrees)  !
 --------------------------                            --------------------------
 ! Name  Definition              Value          Derivative Info.                !
 --------------------------------------------------------------------------------
 ! R1    R(1,2)                  1.4942         -DE/DX =   -0.0002              !
 ! R2    R(1,6)                  1.1828         -DE/DX =    0.0                 !
 ! R3    R(1,7)                  1.9447         -DE/DX =   -0.0002              !
 ! R4    R(2,3)                  1.0894         -DE/DX =   -0.0001              !
 ! R5    R(2,4)                  1.0894         -DE/DX =   -0.0001              !
 ! R6    R(2,5)                  1.0866         -DE/DX =    0.0                 !
 ! A1    A(2,1,6)              126.7406         -DE/DX =   -0.0001              !
 ! A2    A(2,1,7)              112.6686         -DE/DX =    0.0                 !
 ! A3    A(6,1,7)              120.5908         -DE/DX =    0.0                 !
 ! A4    A(1,2,3)              109.4429         -DE/DX =    0.0                 !
 ! A5    A(1,2,4)              109.449          -DE/DX =    0.0                 !
 ! A6    A(1,2,5)              109.781          -DE/DX =    0.0001              !
 ! A7    A(3,2,4)              106.8358         -DE/DX =    0.0                 !
 ! A8    A(3,2,5)              110.6378         -DE/DX =    0.0                 !
 ! A9    A(4,2,5)              110.6407         -DE/DX =    0.0                 !
 ! D1    D(6,1,2,3)            121.5954         -DE/DX =    0.0                 !
 ! D2    D(6,1,2,4)           -121.6365         -DE/DX =    0.0                 !
 ! D3    D(6,1,2,5)             -0.0168         -DE/DX =    0.0                 !
 ! D4    D(7,1,2,3)            -58.4075         -DE/DX =    0.0                 !
 ! D5    D(7,1,2,4)             58.3607         -DE/DX =    0.0                 !
 ! D6    D(7,1,2,5)            179.9804         -DE/DX =    0.0                 !
 --------------------------------------------------------------------------------
 GradGradGradGradGradGradGradGradGradGradGradGradGradGradGradGradGradGrad

 1|1|UNPC-LAWALM-PC|Freq|RB3LYP|Gen|C2H3Br1O1|LAWALM|25-Mar-2015|0||#N 
 Geom=AllCheck Guess=TCheck SCRF=Check GenChk RB3LYP/ChkBas Freq||gen c
 alculation BrAc-C H O=aug-cc-pvtz/Br=midix||0,1|C,0.9950051029,0.21568
 56104,0.000015646|C,1.7394540723,-1.0798743342,-0.0001147432|H,1.45362
 34863,-1.6624469269,0.8749702482|H,1.4528269635,-1.6628503543,-0.87465
 93475|H,2.8091983725,-0.8892980344,-0.0006145492|O,1.4643278506,1.3014
 168345,-0.000078998|Br,-0.9343308481,-0.0285157951,0.0002877436||Versi
 on=IA32W-G09RevA.02|State=1-A|HF=-2715.3525829|RMSD=8.416e-010|RMSF=9.
 697e-005|ZeroPoint=0.0467471|Thermal=0.0515092|Dipole=0.304021,-1.0059
 721,-0.0000169|DipoleDeriv=2.0764602,0.186922,-0.0002028,0.6801783,1.1
 807606,-0.0000514,-0.0003184,-0.00005,0.0691531,-0.1213542,0.1332012,-
 0.0000073,0.0830523,-0.2597964,-0.0000349,0.0002995,-0.0000699,0.06343
 12,0.0374015,0.0025671,0.0572243,0.0026572,0.0775131,0.0174807,0.02931
 6,0.0491922,0.021664,0.0371996,0.0025369,-0.0572612,0.0025156,0.077544
 ,-0.0174915,-0.0295375,-0.0491583,0.0217592,-0.0952299,0.0185243,0.000
 055,0.0116823,0.0416966,0.0000318,0.0000165,0.0000139,0.1021925,-0.957
 458,-0.2534224,0.0000959,-0.7241854,-1.0027252,0.0000638,0.0001318,0.0
 000514,-0.2201146,-0.9770192,-0.090329,0.0000962,-0.0559002,-0.1149927
 ,0.0000016,0.0000922,0.0000206,-0.0580854|Polar=62.4539714,0.8648872,4
 8.2072691,-0.0009543,-0.0018058,36.389178|PG=C01 [X(C2H3Br1O1)]|NImag=
 0||0.38077634,0.15420857,0.93875663,-0.00003654,-0.00003537,0.18098772
 ,-0.11778998,0.06813247,0.00000402,0.57132760,0.05825922,-0.14789017,-
 0.00001374,0.05662023,0.49019734,-0.00000045,-0.00003322,-0.08239950,-
 0.00001491,0.00002648,0.52577447,0.00582415,0.00659329,-0.01658489,-0.
 06654941,-0.03551044,0.05784438,0.06614412,-0.01126570,-0.02032583,0.0
 2492529,-0.03566962,-0.11576375,0.11969910,0.03879269,0.13025813,0.000
 46167,-0.00070356,0.00089090,0.05759818,0.11881749,-0.21522078,-0.0633
 1191,-0.12771364,0.23387225,0.00584269,0.00660545,0.01657929,-0.066664
 86,-0.03565599,-0.05797117,0.00133182,0.00416791,0.00617055,0.06626572
 ,-0.01128761,-0.02032980,-0.02490560,-0.03580688,-0.11587889,-0.119718
 64,0.00417814,0.01052556,0.01415211,0.03894247,0.13037906,-0.00045710,
 0.00071685,0.00088489,-0.05772033,-0.11884640,-0.21501732,-0.00619311,
 -0.01416947,-0.02119146,0.06345210,0.12773216,0.23364987,-0.01868337,-
 0.00353759,0.00000717,-0.31093494,-0.04735215,0.00012624,-0.00464518,-
 0.00083376,-0.00012984,-0.00466692,-0.00083648,0.00013478,0.33582405,0
 .02902799,0.00305165,-0.00001527,-0.05191964,-0.05816246,0.00001865,-0
 .01590327,-0.00270726,-0.00230114,-0.01591015,-0.00270635,0.00231969,0
 .05168120,0.05994640,0.00000226,0.00000532,-0.00191342,0.00012358,0.00
 001684,-0.04926718,0.02513894,0.00271611,0.00203061,-0.02512482,-0.002
 71195,0.00205402,-0.00013689,-0.00002378,0.04563000,-0.18715501,-0.273
 27459,0.00002351,0.01679098,0.00887130,0.00000629,-0.00009362,0.003952
 46,-0.00049267,-0.00009486,0.00395637,0.00048924,0.00390736,-0.0013704
 6,-0.00000136,0.21287216,-0.22670772,-0.72755836,0.00004595,-0.0164138
 0,-0.05458546,0.00001072,0.00177017,-0.00275205,-0.00173742,0.00177144
 ,-0.00275632,0.00173281,-0.00098049,0.00228563,-0.00000248,0.29455556,
 0.79339704,0.00002326,0.00005371,-0.06441530,0.00000587,0.00000105,0.0
 2760269,0.00245400,-0.00384335,-0.00107120,-0.00245614,0.00383803,-0.0
 0106956,-0.00000197,0.00000145,-0.00047223,-0.00003468,-0.00005694,0.0
 2567944,-0.06881481,0.04127240,0.00000745,-0.02617939,-0.00523216,0.00
 000962,-0.00201188,0.00085603,-0.00029598,-0.00201361,0.00085400,0.000
 29441,-0.00080100,0.00439433,-0.00000170,-0.04622701,-0.05399515,0.000
 00967,0.14604770,0.00776525,-0.02570412,-0.00000127,0.01505725,0.00208
 339,-0.00000310,0.00007943,0.00076520,-0.00051383,0.00007888,0.0007667
 4,0.00051435,0.00185928,-0.00170761,-0.00000007,-0.03669065,-0.0080304
 7,0.00000605,0.01185056,0.03182687,0.00000691,-0.00000373,-0.03403529,
 0.00000359,-0.00000173,0.00852762,0.00065259,-0.00161406,0.00068969,-0
 .00064982,0.00161388,0.00068956,0.00000052,0.00000041,0.00193820,0.000
 00967,0.00000736,0.01374616,-0.00002346,-0.00000213,0.00844407||0.0001
 4600,0.00022134,0.00001111,0.00016379,-0.00018429,-0.00000667,-0.00008
 105,-0.00006030,0.00008001,-0.00007978,-0.00006314,-0.00007833,0.00001
 643,0.00002500,-0.00000014,0.00000640,0.00004998,-0.00000356,-0.000171
 79,0.00001142,-0.00000241|||@


 QUHEN THE CAUSS IS TAKEN AWAY THE EFFECT WANISHETH.
 -- PROVERBS AND REASONS OF THE YEAR 1585
           AS REPRINTED IN PAISLEY MAGAZINE 1828.
 Job cpu time:  0 days  0 hours 37 minutes 21.0 seconds.
 File lengths (MBytes):  RWF=     52 Int=      0 D2E=      0 Chk=      5 Scr=      1
 Normal termination of Gaussian 09 at Wed Mar 25 00:15:03 2015.
