 Entering Gaussian System, Link 0=g09
 Initial command:
 /opt/gridware/applications/gaussian/g09/l1.exe "/lustre/SCRATCH5/gau/mlawal/845859.sched01/Gau-23477.inp" -scrdir="/lustre/SCRATCH5/gau/mlawal/845859.sched01/"
 Entering Link 1 = /opt/gridware/applications/gaussian/g09/l1.exe PID=     23478.
  
 Copyright (c) 1988,1990,1992,1993,1995,1998,2003,2009,2013,
            Gaussian, Inc.  All Rights Reserved.
  
 This is part of the Gaussian(R) 09 program.  It is based on
 the Gaussian(R) 03 system (copyright 2003, Gaussian, Inc.),
 the Gaussian(R) 98 system (copyright 1998, Gaussian, Inc.),
 the Gaussian(R) 94 system (copyright 1995, Gaussian, Inc.),
 the Gaussian 92(TM) system (copyright 1992, Gaussian, Inc.),
 the Gaussian 90(TM) system (copyright 1990, Gaussian, Inc.),
 the Gaussian 88(TM) system (copyright 1988, Gaussian, Inc.),
 the Gaussian 86(TM) system (copyright 1986, Carnegie Mellon
 University), and the Gaussian 82(TM) system (copyright 1983,
 Carnegie Mellon University). Gaussian is a federally registered
 trademark of Gaussian, Inc.
  
 This software contains proprietary and confidential information,
 including trade secrets, belonging to Gaussian, Inc.
  
 This software is provided under written license and may be
 used, copied, transmitted, or stored only in accord with that
 written license.
  
 The following legend is applicable only to US Government
 contracts under FAR:
  
                    RESTRICTED RIGHTS LEGEND
  
 Use, reproduction and disclosure by the US Government is
 subject to restrictions as set forth in subparagraphs (a)
 and (c) of the Commercial Computer Software - Restricted
 Rights clause in FAR 52.227-19.
  
 Gaussian, Inc.
 340 Quinnipiac St., Bldg. 40, Wallingford CT 06492
  
  
 ---------------------------------------------------------------
 Warning -- This program may not be used in any manner that
 competes with the business of Gaussian, Inc. or will provide
 assistance to any competitor of Gaussian, Inc.  The licensee
 of this program is prohibited from giving any competitor of
 Gaussian, Inc. access to this program.  By using this program,
 the user acknowledges that Gaussian, Inc. is engaged in the
 business of creating and licensing software in the field of
 computational chemistry and represents and warrants to the
 licensee that it is not a competitor of Gaussian, Inc. and that
 it will not use this program in any manner prohibited above.
 ---------------------------------------------------------------
  

 Cite this work as:
 Gaussian 09, Revision D.01,
 M. J. Frisch, G. W. Trucks, H. B. Schlegel, G. E. Scuseria, 
 M. A. Robb, J. R. Cheeseman, G. Scalmani, V. Barone, B. Mennucci, 
 G. A. Petersson, H. Nakatsuji, M. Caricato, X. Li, H. P. Hratchian, 
 A. F. Izmaylov, J. Bloino, G. Zheng, J. L. Sonnenberg, M. Hada, 
 M. Ehara, K. Toyota, R. Fukuda, J. Hasegawa, M. Ishida, T. Nakajima, 
 Y. Honda, O. Kitao, H. Nakai, T. Vreven, J. A. Montgomery, Jr., 
 J. E. Peralta, F. Ogliaro, M. Bearpark, J. J. Heyd, E. Brothers, 
 K. N. Kudin, V. N. Staroverov, T. Keith, R. Kobayashi, J. Normand, 
 K. Raghavachari, A. Rendell, J. C. Burant, S. S. Iyengar, J. Tomasi, 
 M. Cossi, N. Rega, J. M. Millam, M. Klene, J. E. Knox, J. B. Cross, 
 V. Bakken, C. Adamo, J. Jaramillo, R. Gomperts, R. E. Stratmann, 
 O. Yazyev, A. J. Austin, R. Cammi, C. Pomelli, J. W. Ochterski, 
 R. L. Martin, K. Morokuma, V. G. Zakrzewski, G. A. Voth, 
 P. Salvador, J. J. Dannenberg, S. Dapprich, A. D. Daniels, 
 O. Farkas, J. B. Foresman, J. V. Ortiz, J. Cioslowski, 
 and D. J. Fox, Gaussian, Inc., Wallingford CT, 2013.
 
 ******************************************
 Gaussian 09:  EM64L-G09RevD.01 24-Apr-2013
                24-Mar-2015 
 ******************************************
 %nprocshared=8
 Will use up to    8 processors via shared memory.
 %nprocl=1
 Will use up to    1 processors via Linda.
 ----------------------------------------------
 # opt freq b3lyp/aug-cc-pvtz geom=connectivity
 ----------------------------------------------
 1/14=-1,18=20,19=15,26=3,38=1,57=2/1,3;
 2/9=110,12=2,17=6,18=5,40=1/2;
 3/5=16,6=1,7=10,11=2,16=1,25=1,30=1,71=1,74=-5/1,2,3;
 4//1;
 5/5=2,38=5/2;
 6/7=2,8=2,9=2,10=2,28=1/1;
 7//1,2,3,16;
 1/14=-1,18=20,19=15,26=3/3(2);
 2/9=110/2;
 99//99;
 2/9=110/2;
 3/5=16,6=1,7=10,11=2,16=1,25=1,30=1,71=1,74=-5/1,2,3;
 4/5=5,16=3,69=1/1;
 5/5=2,38=5/2;
 7//1,2,3,16;
 1/14=-1,18=20,19=15,26=3/3(-5);
 2/9=110/2;
 6/7=2,8=2,9=2,10=2,19=2,28=1/1;
 99/9=1/99;
 ------------
 BrAc-cc-pvtz
 ------------
 Symbolic Z-matrix:
 Charge =  0 Multiplicity = 1
 C                     1.01121   0.23761   0.00018 
 C                     1.72256  -1.06187  -0.00003 
 H                     1.46581  -1.67485   0.8825 
 H                     1.46445  -1.67517  -0.88197 
 H                     2.81725  -0.92328  -0.00081 
 O                     1.46701   1.33296  -0.00006 
 Br                   -0.96818  -0.04128  -0.00001 
 

 GradGradGradGradGradGradGradGradGradGradGradGradGradGradGradGradGradGrad
 Berny optimization.
 Initialization pass.
                           ----------------------------
                           !    Initial Parameters    !
                           ! (Angstroms and Degrees)  !
 --------------------------                            --------------------------
 ! Name  Definition              Value          Derivative Info.                !
 --------------------------------------------------------------------------------
 ! R1    R(1,2)                  1.4814         estimate D2E/DX2                !
 ! R2    R(1,6)                  1.1864         estimate D2E/DX2                !
 ! R3    R(1,7)                  1.9989         estimate D2E/DX2                !
 ! R4    R(2,3)                  1.1048         estimate D2E/DX2                !
 ! R5    R(2,4)                  1.1048         estimate D2E/DX2                !
 ! R6    R(2,5)                  1.1034         estimate D2E/DX2                !
 ! A1    A(2,1,6)              128.7098         estimate D2E/DX2                !
 ! A2    A(2,1,7)              110.6765         estimate D2E/DX2                !
 ! A3    A(6,1,7)              120.6137         estimate D2E/DX2                !
 ! A4    A(1,2,3)              112.0239         estimate D2E/DX2                !
 ! A5    A(1,2,4)              112.0164         estimate D2E/DX2                !
 ! A6    A(1,2,5)              111.4811         estimate D2E/DX2                !
 ! A7    A(3,2,4)              105.9857         estimate D2E/DX2                !
 ! A8    A(3,2,5)              107.5067         estimate D2E/DX2                !
 ! A9    A(4,2,5)              107.5132         estimate D2E/DX2                !
 ! D1    D(6,1,2,3)            120.5048         estimate D2E/DX2                !
 ! D2    D(6,1,2,4)           -120.5474         estimate D2E/DX2                !
 ! D3    D(6,1,2,5)             -0.0197         estimate D2E/DX2                !
 ! D4    D(7,1,2,3)            -59.5249         estimate D2E/DX2                !
 ! D5    D(7,1,2,4)             59.4229         estimate D2E/DX2                !
 ! D6    D(7,1,2,5)            179.9506         estimate D2E/DX2                !
 --------------------------------------------------------------------------------
 Trust Radius=3.00D-01 FncErr=1.00D-07 GrdErr=1.00D-06
 Number of steps in this run=     31 maximum allowed number of steps=    100.
 GradGradGradGradGradGradGradGradGradGradGradGradGradGradGradGradGradGrad

                          Input orientation:                          
 ---------------------------------------------------------------------
 Center     Atomic      Atomic             Coordinates (Angstroms)
 Number     Number       Type             X           Y           Z
 ---------------------------------------------------------------------
      1          6           0        1.011206    0.237614    0.000180
      2          6           0        1.722556   -1.061873   -0.000028
      3          1           0        1.465808   -1.674851    0.882500
      4          1           0        1.464453   -1.675170   -0.881972
      5          1           0        2.817250   -0.923279   -0.000814
      6          8           0        1.467008    1.332956   -0.000055
      7         35           0       -0.968176   -0.041280   -0.000005
 ---------------------------------------------------------------------
                    Distance matrix (angstroms):
                    1          2          3          4          5
     1  C    0.000000
     2  C    1.481447   0.000000
     3  H    2.154687   1.104770   0.000000
     4  H    2.154615   1.104797   1.764473   0.000000
     5  H    2.146967   1.103433   1.780870   1.780966   0.000000
     6  O    1.186394   2.408425   3.134614   3.134742   2.629401
     7  Br   1.998933   2.877785   3.061315   3.060253   3.886820
                    6          7
     6  O    0.000000
     7  Br   2.796184   0.000000
 Stoichiometry    C2H3BrO
 Framework group  C1[X(C2H3BrO)]
 Deg. of freedom    15
 Full point group                 C1      NOp   1
 Largest Abelian subgroup         C1      NOp   1
 Largest concise Abelian subgroup C1      NOp   1
                         Standard orientation:                         
 ---------------------------------------------------------------------
 Center     Atomic      Atomic             Coordinates (Angstroms)
 Number     Number       Type             X           Y           Z
 ---------------------------------------------------------------------
      1          6           0        1.011206    0.237614    0.000180
      2          6           0        1.722556   -1.061873   -0.000028
      3          1           0        1.465808   -1.674851    0.882500
      4          1           0        1.464453   -1.675170   -0.881972
      5          1           0        2.817250   -0.923279   -0.000814
      6          8           0        1.467008    1.332956   -0.000055
      7         35           0       -0.968176   -0.041280   -0.000005
 ---------------------------------------------------------------------
 Rotational constants (GHZ):     10.0778499      2.9893900      2.3389884
 Standard basis: Aug-CC-pVTZ (5D, 7F)
 There are   309 symmetry adapted cartesian basis functions of A   symmetry.
 There are   266 symmetry adapted basis functions of A   symmetry.
   266 basis functions,   514 primitive gaussians,   309 cartesian basis functions
    29 alpha electrons       29 beta electrons
       nuclear repulsion energy       227.1383430167 Hartrees.
 NAtoms=    7 NActive=    7 NUniq=    7 SFac= 1.00D+00 NAtFMM=   60 NAOKFM=F Big=F
 Integral buffers will be    131072 words long.
 Raffenetti 2 integral format.
 Two-electron integral symmetry is turned on.
 One-electron integrals computed using PRISM.
 PrsmSu:  requested number of processors reduced to:   1 ShMem   1 Linda.
 NBasis=   266 RedAO= T EigKep=  2.92D-05  NBF=   266
 NBsUse=   266 1.00D-06 EigRej= -1.00D+00 NBFU=   266
 ExpMin= 2.53D-02 ExpMax= 1.06D+07 ExpMxC= 1.21D+04 IAcc=3 IRadAn=         5 AccDes= 0.00D+00
 Harris functional with IExCor=  402 and IRadAn=       5 diagonalized for initial guess.
 HarFok:  IExCor=  402 AccDes= 0.00D+00 IRadAn=         5 IDoV= 1 UseB2=F ITyADJ=14
 ICtDFT=  3500011 ScaDFX=  1.000000  1.000000  1.000000  1.000000
 FoFCou: FMM=F IPFlag=           0 FMFlag=      100000 FMFlg1=           0
         NFxFlg=           0 DoJE=T BraDBF=F KetDBF=T FulRan=T
         wScrn=  0.000000 ICntrl=     500 IOpCl=  0 I1Cent=   200000004 NGrid=           0
         NMat0=    1 NMatS0=      1 NMatT0=    0 NMatD0=    1 NMtDS0=    0 NMtDT0=    0
 Petite list used in FoFCou.
 Requested convergence on RMS density matrix=1.00D-08 within 128 cycles.
 Requested convergence on MAX density matrix=1.00D-06.
 Requested convergence on             energy=1.00D-06.
 No special actions if energy rises.
 SCF Done:  E(RB3LYP) =  -2727.54162640     A.U. after   12 cycles
            NFock= 12  Conv=0.39D-08     -V/T= 2.0017

 **********************************************************************

            Population analysis using the SCF density.

 **********************************************************************

 Orbital symmetries:
       Occupied  (A) (A) (A) (A) (A) (A) (A) (A) (A) (A) (A) (A)
                 (A) (A) (A) (A) (A) (A) (A) (A) (A) (A) (A) (A)
                 (A) (A) (A) (A) (A)
       Virtual   (A) (A) (A) (A) (A) (A) (A) (A) (A) (A) (A) (A)
                 (A) (A) (A) (A) (A) (A) (A) (A) (A) (A) (A) (A)
                 (A) (A) (A) (A) (A) (A) (A) (A) (A) (A) (A) (A)
                 (A) (A) (A) (A) (A) (A) (A) (A) (A) (A) (A) (A)
                 (A) (A) (A) (A) (A) (A) (A) (A) (A) (A) (A) (A)
                 (A) (A) (A) (A) (A) (A) (A) (A) (A) (A) (A) (A)
                 (A) (A) (A) (A) (A) (A) (A) (A) (A) (A) (A) (A)
                 (A) (A) (A) (A) (A) (A) (A) (A) (A) (A) (A) (A)
                 (A) (A) (A) (A) (A) (A) (A) (A) (A) (A) (A) (A)
                 (A) (A) (A) (A) (A) (A) (A) (A) (A) (A) (A) (A)
                 (A) (A) (A) (A) (A) (A) (A) (A) (A) (A) (A) (A)
                 (A) (A) (A) (A) (A) (A) (A) (A) (A) (A) (A) (A)
                 (A) (A) (A) (A) (A) (A) (A) (A) (A) (A) (A) (A)
                 (A) (A) (A) (A) (A) (A) (A) (A) (A) (A) (A) (A)
                 (A) (A) (A) (A) (A) (A) (A) (A) (A) (A) (A) (A)
                 (A) (A) (A) (A) (A) (A) (A) (A) (A) (A) (A) (A)
                 (A) (A) (A) (A) (A) (A) (A) (A) (A) (A) (A) (A)
                 (A) (A) (A) (A) (A) (A) (A) (A) (A) (A) (A) (A)
                 (A) (A) (A) (A) (A) (A) (A) (A) (A) (A) (A) (A)
                 (A) (A) (A) (A) (A) (A) (A) (A) (A)
 The electronic state is 1-A.
 Alpha  occ. eigenvalues -- -482.86746 -62.51439 -56.33027 -56.32751 -56.32706
 Alpha  occ. eigenvalues --  -19.17963 -10.33734 -10.22040  -8.70180  -6.52941
 Alpha  occ. eigenvalues --   -6.52053  -6.51918  -2.64496  -2.64268  -2.64164
 Alpha  occ. eigenvalues --   -2.63451  -2.63447  -1.10946  -0.81532  -0.76224
 Alpha  occ. eigenvalues --   -0.57324  -0.49719  -0.49020  -0.48508  -0.41930
 Alpha  occ. eigenvalues --   -0.41060  -0.30927  -0.30610  -0.29582
 Alpha virt. eigenvalues --   -0.06043  -0.03191  -0.01537   0.01296   0.01652
 Alpha virt. eigenvalues --    0.02171   0.04449   0.05911   0.06326   0.06373
 Alpha virt. eigenvalues --    0.06785   0.07702   0.09184   0.09369   0.09822
 Alpha virt. eigenvalues --    0.09843   0.10231   0.12935   0.16008   0.16077
 Alpha virt. eigenvalues --    0.16660   0.17062   0.18087   0.19005   0.19903
 Alpha virt. eigenvalues --    0.22799   0.23899   0.24677   0.25210   0.25388
 Alpha virt. eigenvalues --    0.25637   0.26926   0.28902   0.29138   0.29494
 Alpha virt. eigenvalues --    0.30694   0.31245   0.32559   0.33483   0.34109
 Alpha virt. eigenvalues --    0.35420   0.35537   0.37881   0.39421   0.40594
 Alpha virt. eigenvalues --    0.40982   0.41187   0.44137   0.44154   0.47017
 Alpha virt. eigenvalues --    0.48575   0.52036   0.52119   0.52409   0.55517
 Alpha virt. eigenvalues --    0.56347   0.58527   0.60161   0.61232   0.63092
 Alpha virt. eigenvalues --    0.66299   0.66407   0.67044   0.67431   0.69084
 Alpha virt. eigenvalues --    0.69932   0.71295   0.71458   0.73772   0.74470
 Alpha virt. eigenvalues --    0.75446   0.77532   0.78228   0.79494   0.79566
 Alpha virt. eigenvalues --    0.82057   0.83583   0.84541   0.84810   0.85929
 Alpha virt. eigenvalues --    0.87590   0.89612   0.90541   0.91204   0.93802
 Alpha virt. eigenvalues --    0.96234   0.99275   0.99384   1.01007   1.01906
 Alpha virt. eigenvalues --    1.05417   1.06961   1.07839   1.09594   1.10051
 Alpha virt. eigenvalues --    1.12512   1.15430   1.15526   1.17932   1.20959
 Alpha virt. eigenvalues --    1.23625   1.25113   1.25531   1.31311   1.32098
 Alpha virt. eigenvalues --    1.32933   1.34153   1.35793   1.38687   1.43775
 Alpha virt. eigenvalues --    1.43811   1.44941   1.47780   1.47893   1.48953
 Alpha virt. eigenvalues --    1.52014   1.54550   1.56125   1.59137   1.62592
 Alpha virt. eigenvalues --    1.63320   1.66330   1.68125   1.75629   1.77137
 Alpha virt. eigenvalues --    1.81240   1.86815   1.88226   1.92232   1.94463
 Alpha virt. eigenvalues --    1.95186   1.96657   1.97011   2.00782   2.01452
 Alpha virt. eigenvalues --    2.04520   2.05404   2.06278   2.08931   2.09956
 Alpha virt. eigenvalues --    2.10906   2.12085   2.13900   2.15007   2.21190
 Alpha virt. eigenvalues --    2.22836   2.24404   2.30506   2.30759   2.32257
 Alpha virt. eigenvalues --    2.33555   2.34716   2.38849   2.43746   2.50730
 Alpha virt. eigenvalues --    2.55166   2.59584   2.65220   2.74504   2.79325
 Alpha virt. eigenvalues --    2.79518   2.82137   2.90693   3.00100   3.02447
 Alpha virt. eigenvalues --    3.08303   3.13683   3.18080   3.19919   3.23048
 Alpha virt. eigenvalues --    3.24706   3.28186   3.35344   3.39907   3.42262
 Alpha virt. eigenvalues --    3.43455   3.45553   3.46054   3.51383   3.51919
 Alpha virt. eigenvalues --    3.57582   3.57852   3.63015   3.69535   3.76430
 Alpha virt. eigenvalues --    3.76720   3.81213   3.81322   3.87760   3.93576
 Alpha virt. eigenvalues --    3.95110   3.95647   4.02900   4.13712   4.23565
 Alpha virt. eigenvalues --    4.26698   4.29241   4.35848   4.39603   4.39720
 Alpha virt. eigenvalues --    4.43776   4.51156   4.55863   4.64349   4.72540
 Alpha virt. eigenvalues --    4.73289   4.84683   4.90341   4.94020   4.95914
 Alpha virt. eigenvalues --    5.06148   5.10621   5.15070   5.27780   5.29071
 Alpha virt. eigenvalues --    5.39552   5.51347   5.70218   5.73560   5.83676
 Alpha virt. eigenvalues --    6.14064   6.18377   6.26295   6.29557   6.46828
 Alpha virt. eigenvalues --    6.50623   6.71877   6.73854   6.77357   6.88043
 Alpha virt. eigenvalues --    7.02755   7.07320   7.21363   7.23823  14.38162
 Alpha virt. eigenvalues --   15.23244  17.04760
          Condensed to atoms (all electrons):
               1          2          3          4          5          6
     1  C    4.876715   0.230416  -0.008469  -0.008495  -0.016769   0.335407
     2  C    0.230416   5.278724   0.388083   0.388154   0.361837  -0.084012
     3  H   -0.008469   0.388083   0.386037   0.020061  -0.027467   0.001381
     4  H   -0.008495   0.388154   0.020061   0.386023  -0.027464   0.001378
     5  H   -0.016769   0.361837  -0.027467  -0.027464   0.463348   0.012490
     6  O    0.335407  -0.084012   0.001381   0.001378   0.012490   8.277128
     7  Br   0.246010  -0.053535  -0.027734  -0.027808   0.021183  -0.062470
               7
     1  C    0.246010
     2  C   -0.053535
     3  H   -0.027734
     4  H   -0.027808
     5  H    0.021183
     6  O   -0.062470
     7  Br  35.007673
 Mulliken charges:
               1
     1  C    0.345186
     2  C   -0.509667
     3  H    0.268110
     4  H    0.268152
     5  H    0.212842
     6  O   -0.481302
     7  Br  -0.103320
 Sum of Mulliken charges =   0.00000
 Mulliken charges with hydrogens summed into heavy atoms:
               1
     1  C    0.345186
     2  C    0.239436
     6  O   -0.481302
     7  Br  -0.103320
 Electronic spatial extent (au):  <R**2>=            493.2663
 Charge=              0.0000 electrons
 Dipole moment (field-independent basis, Debye):
    X=              1.4315    Y=             -2.5249    Z=              0.0002  Tot=              2.9025
 Quadrupole moment (field-independent basis, Debye-Ang):
   XX=            -34.6905   YY=            -37.8409   ZZ=            -35.7183
   XY=             -4.4798   XZ=              0.0009   YZ=              0.0002
 Traceless Quadrupole moment (field-independent basis, Debye-Ang):
   XX=              1.3927   YY=             -1.7576   ZZ=              0.3650
   XY=             -4.4798   XZ=              0.0009   YZ=              0.0002
 Octapole moment (field-independent basis, Debye-Ang**2):
  XXX=            -23.7638  YYY=             -3.6105  ZZZ=              0.0008  XYY=             -8.8283
  XXY=             -7.0455  XXZ=             -0.0011  XZZ=             -6.3678  YZZ=             -0.0054
  YYZ=             -0.0002  XYZ=             -0.0009
 Hexadecapole moment (field-independent basis, Debye-Ang**3):
 XXXX=           -367.6937 YYYY=           -166.8800 ZZZZ=            -46.8593 XXXY=             -6.2795
 XXXZ=             -0.0042 YYYX=             -2.5585 YYYZ=              0.0004 ZZZX=              0.0037
 ZZZY=             -0.0024 XXYY=            -96.0921 XXZZ=            -72.5924 YYZZ=            -32.4579
 XXYZ=             -0.0016 YYXZ=              0.0029 ZZXY=              1.0495
 N-N= 2.271383430167D+02 E-N=-6.964648627675D+03  KE= 2.722809250781D+03
 PrsmSu:  requested number of processors reduced to:   1 ShMem   1 Linda.
 PrsmSu:  requested number of processors reduced to:   3 ShMem   1 Linda.
 Calling FoFJK, ICntrl=      2127 FMM=F ISym2X=0 I1Cent= 0 IOpClX= 0 NMat=1 NMatS=1 NMatT=0.
 CoulSu:  requested number of processors reduced to:   3 ShMem   1 Linda.
 ***** Axes restored to original set *****
 -------------------------------------------------------------------
 Center     Atomic                   Forces (Hartrees/Bohr)
 Number     Number              X              Y              Z
 -------------------------------------------------------------------
      1        6           0.003652812    0.013658745   -0.000047640
      2        6           0.017508996   -0.022409630   -0.000012288
      3        1          -0.001914757    0.007972797   -0.006627773
      4        1          -0.001889342    0.007983006    0.006645623
      5        1          -0.009034444    0.003939441    0.000005256
      6        8          -0.005884500   -0.012766806    0.000023558
      7       35          -0.002438765    0.001622448    0.000013265
 -------------------------------------------------------------------
 Cartesian Forces:  Max     0.022409630 RMS     0.008548529

 GradGradGradGradGradGradGradGradGradGradGradGradGradGradGradGradGradGrad
 Berny optimization.
 FormGI is forming the generalized inverse of G from B-inverse, IUseBI=4.
 Internal  Forces:  Max     0.014042679 RMS     0.005540876
 Search for a local minimum.
 Step number   1 out of a maximum of   31
 All quantities printed in internal units (Hartrees-Bohrs-Radians)
 Mixed Optimization -- RFO/linear search
 Second derivative matrix not updated -- first step.
 ITU=  0
     Eigenvalues ---    0.01011   0.01011   0.07204   0.07224   0.14160
     Eigenvalues ---    0.16000   0.16000   0.16000   0.25000   0.25000
     Eigenvalues ---    0.33157   0.33160   0.33305   0.34404   1.11968
 RFO step:  Lambda=-2.06285325D-03 EMin= 1.01136755D-02
 Linear search not attempted -- first point.
 Iteration  1 RMS(Cart)=  0.01797354 RMS(Int)=  0.00044482
 Iteration  2 RMS(Cart)=  0.00034899 RMS(Int)=  0.00026757
 Iteration  3 RMS(Cart)=  0.00000004 RMS(Int)=  0.00026757
 Variable       Old X    -DE/DX   Delta X   Delta X   Delta X     New X
                                 (Linear)    (Quad)   (Total)
    R1        2.79953   0.00445   0.00000   0.01287   0.01287   2.81240
    R2        2.24196  -0.01404   0.00000  -0.01252  -0.01252   2.22944
    R3        3.77744   0.00218   0.00000   0.01518   0.01518   3.79262
    R4        2.08771  -0.00927   0.00000  -0.02778  -0.02778   2.05993
    R5        2.08776  -0.00929   0.00000  -0.02785  -0.02785   2.05991
    R6        2.08519  -0.00847   0.00000  -0.02528  -0.02528   2.05990
    A1        2.24641  -0.00171   0.00000  -0.00679  -0.00679   2.23962
    A2        1.93167   0.00457   0.00000   0.01813   0.01813   1.94980
    A3        2.10511  -0.00286   0.00000  -0.01134  -0.01134   2.09376
    A4        1.95519  -0.00484   0.00000  -0.03183  -0.03234   1.92284
    A5        1.95506  -0.00483   0.00000  -0.03173  -0.03224   1.92282
    A6        1.94571  -0.00434   0.00000  -0.02290  -0.02316   1.92255
    A7        1.84980   0.00392   0.00000   0.01703   0.01625   1.86605
    A8        1.87635   0.00563   0.00000   0.03826   0.03801   1.91436
    A9        1.87646   0.00562   0.00000   0.03822   0.03798   1.91444
    D1        2.10321   0.00080   0.00000   0.00989   0.00967   2.11288
    D2       -2.10395  -0.00082   0.00000  -0.01194  -0.01172  -2.11567
    D3       -0.00034  -0.00001   0.00000  -0.00101  -0.00101  -0.00136
    D4       -1.03890   0.00083   0.00000   0.01221   0.01199  -1.02691
    D5        1.03713  -0.00080   0.00000  -0.00962  -0.00940   1.02772
    D6        3.14073   0.00002   0.00000   0.00131   0.00131  -3.14114
         Item               Value     Threshold  Converged?
 Maximum Force            0.014043     0.000450     NO 
 RMS     Force            0.005541     0.000300     NO 
 Maximum Displacement     0.037538     0.001800     NO 
 RMS     Displacement     0.018074     0.001200     NO 
 Predicted change in Energy=-1.039733D-03
 GradGradGradGradGradGradGradGradGradGradGradGradGradGradGradGradGradGrad

                          Input orientation:                          
 ---------------------------------------------------------------------
 Center     Atomic      Atomic             Coordinates (Angstroms)
 Number     Number       Type             X           Y           Z
 ---------------------------------------------------------------------
      1          6           0        1.014951    0.223764   -0.000601
      2          6           0        1.738716   -1.076648   -0.000192
      3          1           0        1.459359   -1.662026    0.875902
      4          1           0        1.458980   -1.662754   -0.875666
      5          1           0        2.815512   -0.907165   -0.000446
      6          8           0        1.467962    1.313092    0.000130
      7         35           0       -0.975375   -0.034146    0.000679
 ---------------------------------------------------------------------
                    Distance matrix (angstroms):
                    1          2          3          4          5
     1  C    0.000000
     2  C    1.488256   0.000000
     3  H    2.126490   1.090069   0.000000
     4  H    2.126464   1.090059   1.751569   0.000000
     5  H    2.126269   1.090053   1.782401   1.782444   0.000000
     6  O    1.179769   2.405028   3.101351   3.102057   2.597197
     7  Br   2.006967   2.907422   3.056786   3.057193   3.890114
                    6          7
     6  O    0.000000
     7  Br   2.790151   0.000000
 Stoichiometry    C2H3BrO
 Framework group  C1[X(C2H3BrO)]
 Deg. of freedom    15
 Full point group                 C1      NOp   1
 Largest Abelian subgroup         C1      NOp   1
 Largest concise Abelian subgroup C1      NOp   1
                         Standard orientation:                         
 ---------------------------------------------------------------------
 Center     Atomic      Atomic             Coordinates (Angstroms)
 Number     Number       Type             X           Y           Z
 ---------------------------------------------------------------------
      1          6           0        1.014680    0.236184   -0.000625
      2          6           0        1.753419   -1.055779    0.000091
      3          1           0        1.480558   -1.644300    0.876127
      4          1           0        1.480758   -1.645123   -0.875441
      5          1           0        2.828185   -0.873868    0.000179
      6          8           0        1.455076    1.330673    0.000194
      7         35           0       -0.972534   -0.044701    0.000022
 ---------------------------------------------------------------------
 Rotational constants (GHZ):     10.1820500      2.9619890      2.3271789
 Standard basis: Aug-CC-pVTZ (5D, 7F)
 There are   309 symmetry adapted cartesian basis functions of A   symmetry.
 There are   266 symmetry adapted basis functions of A   symmetry.
   266 basis functions,   514 primitive gaussians,   309 cartesian basis functions
    29 alpha electrons       29 beta electrons
       nuclear repulsion energy       226.9408067554 Hartrees.
 NAtoms=    7 NActive=    7 NUniq=    7 SFac= 1.00D+00 NAtFMM=   60 NAOKFM=F Big=F
 Integral buffers will be    131072 words long.
 Raffenetti 2 integral format.
 Two-electron integral symmetry is turned on.
 One-electron integrals computed using PRISM.
 PrsmSu:  requested number of processors reduced to:   1 ShMem   1 Linda.
 NBasis=   266 RedAO= T EigKep=  2.78D-05  NBF=   266
 NBsUse=   266 1.00D-06 EigRej= -1.00D+00 NBFU=   266
 Initial guess from the checkpoint file:  "/lustre/SCRATCH5/gau/mlawal/845859.sched01/Gau-23478.chk"
 B after Tr=     0.000000    0.000000    0.000000
         Rot=    0.999995    0.000015    0.000016   -0.003265 Ang=   0.37 deg.
 ExpMin= 2.53D-02 ExpMax= 1.06D+07 ExpMxC= 1.21D+04 IAcc=3 IRadAn=         5 AccDes= 0.00D+00
 Harris functional with IExCor=  402 and IRadAn=       5 diagonalized for initial guess.
 HarFok:  IExCor=  402 AccDes= 0.00D+00 IRadAn=         5 IDoV= 1 UseB2=F ITyADJ=14
 ICtDFT=  3500011 ScaDFX=  1.000000  1.000000  1.000000  1.000000
 FoFCou: FMM=F IPFlag=           0 FMFlag=      100000 FMFlg1=           0
         NFxFlg=           0 DoJE=T BraDBF=F KetDBF=T FulRan=T
         wScrn=  0.000000 ICntrl=     500 IOpCl=  0 I1Cent=   200000004 NGrid=           0
         NMat0=    1 NMatS0=      1 NMatT0=    0 NMatD0=    1 NMtDS0=    0 NMtDT0=    0
 Petite list used in FoFCou.
 Requested convergence on RMS density matrix=1.00D-08 within 128 cycles.
 Requested convergence on MAX density matrix=1.00D-06.
 Requested convergence on             energy=1.00D-06.
 No special actions if energy rises.
 SCF Done:  E(RB3LYP) =  -2727.54288924     A.U. after   10 cycles
            NFock= 10  Conv=0.21D-08     -V/T= 2.0017
 PrsmSu:  requested number of processors reduced to:   1 ShMem   1 Linda.
 PrsmSu:  requested number of processors reduced to:   3 ShMem   1 Linda.
 Calling FoFJK, ICntrl=      2127 FMM=F ISym2X=0 I1Cent= 0 IOpClX= 0 NMat=1 NMatS=1 NMatT=0.
 CoulSu:  requested number of processors reduced to:   3 ShMem   1 Linda.
 ***** Axes restored to original set *****
 -------------------------------------------------------------------
 Center     Atomic                   Forces (Hartrees/Bohr)
 Number     Number              X              Y              Z
 -------------------------------------------------------------------
      1        6           0.001290135    0.005808247    0.000190449
      2        6           0.004859831   -0.006919416   -0.000067367
      3        1          -0.001041774    0.001046857   -0.000094697
      4        1          -0.001024415    0.001019983    0.000093378
      5        1          -0.001403453    0.001664626   -0.000005196
      6        8          -0.001761347   -0.002663364   -0.000077994
      7       35          -0.000918977    0.000043067   -0.000038572
 -------------------------------------------------------------------
 Cartesian Forces:  Max     0.006919416 RMS     0.002459350

 GradGradGradGradGradGradGradGradGradGradGradGradGradGradGradGradGradGrad
 Berny optimization.
 Using GEDIIS/GDIIS optimizer.
 FormGI is forming the generalized inverse of G from B-inverse, IUseBI=4.
 Internal  Forces:  Max     0.003466211 RMS     0.001381519
 Search for a local minimum.
 Step number   2 out of a maximum of   31
 All quantities printed in internal units (Hartrees-Bohrs-Radians)
 Mixed Optimization -- RFO/linear search
 Update second derivatives using D2CorX and points    1    2
 DE= -1.26D-03 DEPred=-1.04D-03 R= 1.21D+00
 TightC=F SS=  1.41D+00  RLast= 9.74D-02 DXNew= 5.0454D-01 2.9212D-01
 Trust test= 1.21D+00 RLast= 9.74D-02 DXMaxT set to 3.00D-01
 ITU=  1  0
 Use linear search instead of GDIIS.
     Eigenvalues ---    0.01011   0.01012   0.07469   0.07536   0.12423
     Eigenvalues ---    0.14325   0.16000   0.16041   0.24854   0.25389
     Eigenvalues ---    0.31805   0.33159   0.33322   0.36722   1.09862
 RFO step:  Lambda=-9.11985042D-05 EMin= 1.01136655D-02
 Quartic linear search produced a step of  0.25693.
 Iteration  1 RMS(Cart)=  0.00643273 RMS(Int)=  0.00013944
 Iteration  2 RMS(Cart)=  0.00007685 RMS(Int)=  0.00011377
 Iteration  3 RMS(Cart)=  0.00000001 RMS(Int)=  0.00011377
 Variable       Old X    -DE/DX   Delta X   Delta X   Delta X     New X
                                 (Linear)    (Quad)   (Total)
    R1        2.81240   0.00347   0.00331   0.00982   0.01313   2.82552
    R2        2.22944  -0.00313  -0.00322  -0.00082  -0.00404   2.22540
    R3        3.79262   0.00090   0.00390   0.00444   0.00834   3.80096
    R4        2.05993  -0.00037  -0.00714   0.00475  -0.00239   2.05754
    R5        2.05991  -0.00036  -0.00716   0.00480  -0.00235   2.05756
    R6        2.05990  -0.00113  -0.00650   0.00132  -0.00518   2.05472
    A1        2.23962   0.00065  -0.00175   0.00478   0.00301   2.24263
    A2        1.94980   0.00002   0.00466  -0.00397   0.00067   1.95048
    A3        2.09376  -0.00066  -0.00291  -0.00079  -0.00373   2.09004
    A4        1.92284  -0.00135  -0.00831  -0.00342  -0.01195   1.91089
    A5        1.92282  -0.00130  -0.00828  -0.00300  -0.01150   1.91131
    A6        1.92255  -0.00194  -0.00595  -0.00908  -0.01519   1.90737
    A7        1.86605   0.00112   0.00418   0.00391   0.00779   1.87384
    A8        1.91436   0.00181   0.00977   0.00609   0.01570   1.93006
    A9        1.91444   0.00179   0.00976   0.00602   0.01562   1.93006
    D1        2.11288   0.00016   0.00248   0.00551   0.00793   2.12081
    D2       -2.11567  -0.00008  -0.00301   0.00640   0.00345  -2.11222
    D3       -0.00136   0.00005  -0.00026   0.00604   0.00578   0.00443
    D4       -1.02691   0.00007   0.00308  -0.00681  -0.00379  -1.03071
    D5        1.02772  -0.00017  -0.00242  -0.00592  -0.00827   1.01945
    D6       -3.14114  -0.00004   0.00034  -0.00628  -0.00594   3.13610
         Item               Value     Threshold  Converged?
 Maximum Force            0.003466     0.000450     NO 
 RMS     Force            0.001382     0.000300     NO 
 Maximum Displacement     0.014719     0.001800     NO 
 RMS     Displacement     0.006446     0.001200     NO 
 Predicted change in Energy=-1.068050D-04
 GradGradGradGradGradGradGradGradGradGradGradGradGradGradGradGradGradGrad

                          Input orientation:                          
 ---------------------------------------------------------------------
 Center     Atomic      Atomic             Coordinates (Angstroms)
 Number     Number       Type             X           Y           Z
 ---------------------------------------------------------------------
      1          6           0        1.018139    0.222497    0.003299
      2          6           0        1.744460   -1.084437    0.000379
      3          1           0        1.457479   -1.661403    0.878016
      4          1           0        1.453236   -1.660343   -0.876569
      5          1           0        2.815970   -0.899758   -0.002097
      6          8           0        1.467714    1.310926   -0.000944
      7         35           0       -0.976892   -0.033366   -0.002279
 ---------------------------------------------------------------------
                    Distance matrix (angstroms):
                    1          2          3          4          5
     1  C    0.000000
     2  C    1.495202   0.000000
     3  H    2.123024   1.088804   0.000000
     4  H    2.123338   1.088815   1.754591   0.000000
     5  H    2.119359   1.087311   1.788910   1.788920   0.000000
     6  O    1.177631   2.411297   3.099583   3.097640   2.589386
     7  Br   2.011379   2.917279   3.058036   3.052369   3.890557
                    6          7
     6  O    0.000000
     7  Br   2.789843   0.000000
 Stoichiometry    C2H3BrO
 Framework group  C1[X(C2H3BrO)]
 Deg. of freedom    15
 Full point group                 C1      NOp   1
 Largest Abelian subgroup         C1      NOp   1
 Largest concise Abelian subgroup C1      NOp   1
                         Standard orientation:                         
 ---------------------------------------------------------------------
 Center     Atomic      Atomic             Coordinates (Angstroms)
 Number     Number       Type             X           Y           Z
 ---------------------------------------------------------------------
      1          6           0        1.017494    0.237838    0.003409
      2          6           0        1.761791   -1.058940   -0.000578
      3          1           0        1.483733   -1.640003    0.877229
      4          1           0        1.477618   -1.638625   -0.877350
      5          1           0        2.830645   -0.859482   -0.004143
      6          8           0        1.451991    1.332373   -0.001058
      7         35           0       -0.973818   -0.045550   -0.000121
 ---------------------------------------------------------------------
 Rotational constants (GHZ):     10.1568801      2.9536173      2.3208135
 Standard basis: Aug-CC-pVTZ (5D, 7F)
 There are   309 symmetry adapted cartesian basis functions of A   symmetry.
 There are   266 symmetry adapted basis functions of A   symmetry.
   266 basis functions,   514 primitive gaussians,   309 cartesian basis functions
    29 alpha electrons       29 beta electrons
       nuclear repulsion energy       226.6833161806 Hartrees.
 NAtoms=    7 NActive=    7 NUniq=    7 SFac= 1.00D+00 NAtFMM=   60 NAOKFM=F Big=F
 Integral buffers will be    131072 words long.
 Raffenetti 2 integral format.
 Two-electron integral symmetry is turned on.
 One-electron integrals computed using PRISM.
 PrsmSu:  requested number of processors reduced to:   1 ShMem   1 Linda.
 NBasis=   266 RedAO= T EigKep=  2.76D-05  NBF=   266
 NBsUse=   266 1.00D-06 EigRej= -1.00D+00 NBFU=   266
 Initial guess from the checkpoint file:  "/lustre/SCRATCH5/gau/mlawal/845859.sched01/Gau-23478.chk"
 B after Tr=     0.000000    0.000000    0.000000
         Rot=    1.000000   -0.000067   -0.000063   -0.000717 Ang=  -0.08 deg.
 Requested convergence on RMS density matrix=1.00D-08 within 128 cycles.
 Requested convergence on MAX density matrix=1.00D-06.
 Requested convergence on             energy=1.00D-06.
 No special actions if energy rises.
 SCF Done:  E(RB3LYP) =  -2727.54299798     A.U. after    9 cycles
            NFock=  9  Conv=0.23D-08     -V/T= 2.0017
 PrsmSu:  requested number of processors reduced to:   1 ShMem   1 Linda.
 PrsmSu:  requested number of processors reduced to:   3 ShMem   1 Linda.
 Calling FoFJK, ICntrl=      2127 FMM=F ISym2X=0 I1Cent= 0 IOpClX= 0 NMat=1 NMatS=1 NMatT=0.
 CoulSu:  requested number of processors reduced to:   3 ShMem   1 Linda.
 ***** Axes restored to original set *****
 -------------------------------------------------------------------
 Center     Atomic                   Forces (Hartrees/Bohr)
 Number     Number              X              Y              Z
 -------------------------------------------------------------------
      1        6           0.000278414    0.001331470   -0.001046742
      2        6           0.000122112   -0.000853874    0.000367038
      3        1          -0.000071739   -0.000084016    0.000226968
      4        1          -0.000146035    0.000063418   -0.000216445
      5        1           0.000355943    0.000124791    0.000025367
      6        8          -0.000174717   -0.000357544    0.000421932
      7       35          -0.000363979   -0.000224245    0.000221882
 -------------------------------------------------------------------
 Cartesian Forces:  Max     0.001331470 RMS     0.000471671

 GradGradGradGradGradGradGradGradGradGradGradGradGradGradGradGradGradGrad
 Berny optimization.
 Using GEDIIS/GDIIS optimizer.
 FormGI is forming the generalized inverse of G from B-inverse, IUseBI=4.
 Internal  Forces:  Max     0.000785377 RMS     0.000300871
 Search for a local minimum.
 Step number   3 out of a maximum of   31
 All quantities printed in internal units (Hartrees-Bohrs-Radians)
 Mixed Optimization -- En-DIIS/RFO-DIIS
 Update second derivatives using D2CorX and points    1    2    3
 DE= -1.09D-04 DEPred=-1.07D-04 R= 1.02D+00
 TightC=F SS=  1.41D+00  RLast= 4.00D-02 DXNew= 5.0454D-01 1.2012D-01
 Trust test= 1.02D+00 RLast= 4.00D-02 DXMaxT set to 3.00D-01
 ITU=  1  1  0
 Use linear search instead of GDIIS.
     Eigenvalues ---    0.01011   0.01076   0.07610   0.07692   0.11386
     Eigenvalues ---    0.14650   0.16016   0.16145   0.24948   0.25567
     Eigenvalues ---    0.31075   0.33161   0.33384   0.37180   1.08933
 RFO step:  Lambda=-4.70679290D-05 EMin= 1.01136373D-02
 Quartic linear search produced a step of  0.05227.
 Iteration  1 RMS(Cart)=  0.01111101 RMS(Int)=  0.00019262
 Iteration  2 RMS(Cart)=  0.00017026 RMS(Int)=  0.00013233
 Iteration  3 RMS(Cart)=  0.00000001 RMS(Int)=  0.00013233
 Variable       Old X    -DE/DX   Delta X   Delta X   Delta X     New X
                                 (Linear)    (Quad)   (Total)
    R1        2.82552   0.00079   0.00069   0.00452   0.00521   2.83073
    R2        2.22540  -0.00039  -0.00021  -0.00120  -0.00141   2.22399
    R3        3.80096   0.00038   0.00044   0.00431   0.00475   3.80570
    R4        2.05754   0.00025  -0.00012  -0.00012  -0.00024   2.05730
    R5        2.05756   0.00018  -0.00012  -0.00032  -0.00045   2.05712
    R6        2.05472   0.00037  -0.00027  -0.00010  -0.00037   2.05435
    A1        2.24263   0.00022   0.00016   0.00134   0.00115   2.24378
    A2        1.95048  -0.00041   0.00004  -0.00110  -0.00141   1.94906
    A3        2.09004   0.00019  -0.00019   0.00018  -0.00037   2.08967
    A4        1.91089  -0.00002  -0.00062  -0.00242  -0.00306   1.90783
    A5        1.91131  -0.00028  -0.00060  -0.00423  -0.00484   1.90647
    A6        1.90737  -0.00002  -0.00079  -0.00275  -0.00355   1.90381
    A7        1.87384   0.00014   0.00041   0.00231   0.00270   1.87654
    A8        1.93006   0.00004   0.00082   0.00338   0.00419   1.93425
    A9        1.93006   0.00013   0.00082   0.00367   0.00447   1.93454
    D1        2.12081  -0.00023   0.00041  -0.02371  -0.02330   2.09751
    D2       -2.11222  -0.00024   0.00018  -0.02479  -0.02461  -2.13683
    D3        0.00443  -0.00026   0.00030  -0.02464  -0.02433  -0.01990
    D4       -1.03071   0.00027  -0.00020   0.02689   0.02669  -1.00402
    D5        1.01945   0.00027  -0.00043   0.02581   0.02538   1.04483
    D6        3.13610   0.00024  -0.00031   0.02597   0.02566  -3.12143
         Item               Value     Threshold  Converged?
 Maximum Force            0.000785     0.000450     NO 
 RMS     Force            0.000301     0.000300     NO 
 Maximum Displacement     0.031482     0.001800     NO 
 RMS     Displacement     0.011125     0.001200     NO 
 Predicted change in Energy=-2.382940D-05
 GradGradGradGradGradGradGradGradGradGradGradGradGradGradGradGradGradGrad

                          Input orientation:                          
 ---------------------------------------------------------------------
 Center     Atomic      Atomic             Coordinates (Angstroms)
 Number     Number       Type             X           Y           Z
 ---------------------------------------------------------------------
      1          6           0        1.019403    0.223051   -0.013361
      2          6           0        1.746247   -1.086701   -0.002045
      3          1           0        1.447412   -1.656703    0.876028
      4          1           0        1.460052   -1.663222   -0.879952
      5          1           0        2.816989   -0.898872    0.005126
      6          8           0        1.467816    1.311029    0.003430
      7         35           0       -0.977812   -0.034465    0.010580
 ---------------------------------------------------------------------
                    Distance matrix (angstroms):
                    1          2          3          4          5
     1  C    0.000000
     2  C    1.497958   0.000000
     3  H    2.123129   1.088677   0.000000
     4  H    2.122069   1.088579   1.756038   0.000000
     5  H    2.119048   1.087115   1.791234   1.791332   0.000000
     6  O    1.176882   2.413848   3.093424   3.102675   2.589195
     7  Br   2.013891   2.920249   3.043414   3.064160   3.892010
                    6          7
     6  O    0.000000
     7  Br   2.791326   0.000000
 Stoichiometry    C2H3BrO
 Framework group  C1[X(C2H3BrO)]
 Deg. of freedom    15
 Full point group                 C1      NOp   1
 Largest Abelian subgroup         C1      NOp   1
 Largest concise Abelian subgroup C1      NOp   1
                         Standard orientation:                         
 ---------------------------------------------------------------------
 Center     Atomic      Atomic             Coordinates (Angstroms)
 Number     Number       Type             X           Y           Z
 ---------------------------------------------------------------------
      1          6           0        1.019165    0.238821   -0.013775
      2          6           0        1.763500   -1.061020    0.002302
      3          1           0        1.468001   -1.634275    0.879386
      4          1           0        1.489455   -1.642057   -0.876503
      5          1           0        2.831569   -0.858790    0.014617
      6          8           0        1.452809    1.332749    0.004279
      7         35           0       -0.974500   -0.045534    0.000489
 ---------------------------------------------------------------------
 Rotational constants (GHZ):     10.1419772      2.9492777      2.3174625
 Standard basis: Aug-CC-pVTZ (5D, 7F)
 There are   309 symmetry adapted cartesian basis functions of A   symmetry.
 There are   266 symmetry adapted basis functions of A   symmetry.
   266 basis functions,   514 primitive gaussians,   309 cartesian basis functions
    29 alpha electrons       29 beta electrons
       nuclear repulsion energy       226.5326638643 Hartrees.
 NAtoms=    7 NActive=    7 NUniq=    7 SFac= 1.00D+00 NAtFMM=   60 NAOKFM=F Big=F
 Integral buffers will be    131072 words long.
 Raffenetti 2 integral format.
 Two-electron integral symmetry is turned on.
 One-electron integrals computed using PRISM.
 PrsmSu:  requested number of processors reduced to:   1 ShMem   1 Linda.
 NBasis=   266 RedAO= T EigKep=  2.76D-05  NBF=   266
 NBsUse=   266 1.00D-06 EigRej= -1.00D+00 NBFU=   266
 Initial guess from the checkpoint file:  "/lustre/SCRATCH5/gau/mlawal/845859.sched01/Gau-23478.chk"
 B after Tr=     0.000000    0.000000    0.000000
         Rot=    1.000000    0.000276    0.000273    0.000060 Ang=   0.04 deg.
 ExpMin= 2.53D-02 ExpMax= 1.06D+07 ExpMxC= 1.21D+04 IAcc=3 IRadAn=         5 AccDes= 0.00D+00
 Harris functional with IExCor=  402 and IRadAn=       5 diagonalized for initial guess.
 HarFok:  IExCor=  402 AccDes= 0.00D+00 IRadAn=         5 IDoV= 1 UseB2=F ITyADJ=14
 ICtDFT=  3500011 ScaDFX=  1.000000  1.000000  1.000000  1.000000
 FoFCou: FMM=F IPFlag=           0 FMFlag=      100000 FMFlg1=           0
         NFxFlg=           0 DoJE=T BraDBF=F KetDBF=T FulRan=T
         wScrn=  0.000000 ICntrl=     500 IOpCl=  0 I1Cent=   200000004 NGrid=           0
         NMat0=    1 NMatS0=      1 NMatT0=    0 NMatD0=    1 NMtDS0=    0 NMtDT0=    0
 Petite list used in FoFCou.
 Requested convergence on RMS density matrix=1.00D-08 within 128 cycles.
 Requested convergence on MAX density matrix=1.00D-06.
 Requested convergence on             energy=1.00D-06.
 No special actions if energy rises.
 SCF Done:  E(RB3LYP) =  -2727.54294034     A.U. after    9 cycles
            NFock=  9  Conv=0.45D-08     -V/T= 2.0017
 PrsmSu:  requested number of processors reduced to:   1 ShMem   1 Linda.
 PrsmSu:  requested number of processors reduced to:   3 ShMem   1 Linda.
 Calling FoFJK, ICntrl=      2127 FMM=F ISym2X=0 I1Cent= 0 IOpClX= 0 NMat=1 NMatS=1 NMatT=0.
 CoulSu:  requested number of processors reduced to:   3 ShMem   1 Linda.
 ***** Axes restored to original set *****
 -------------------------------------------------------------------
 Center     Atomic                   Forces (Hartrees/Bohr)
 Number     Number              X              Y              Z
 -------------------------------------------------------------------
      1        6           0.000044385   -0.000426833    0.004199566
      2        6          -0.001078090    0.001076662   -0.001477481
      3        1           0.000034042    0.000029161    0.000165100
      4        1           0.000337160   -0.000572014   -0.000212843
      5        1           0.000480566   -0.000294554   -0.000099960
      6        8           0.000203253    0.000362051   -0.001685010
      7       35          -0.000021316   -0.000174474   -0.000889373
 -------------------------------------------------------------------
 Cartesian Forces:  Max     0.004199566 RMS     0.001133927

 GradGradGradGradGradGradGradGradGradGradGradGradGradGradGradGradGradGrad
 Berny optimization.
 Using GEDIIS/GDIIS optimizer.
 FormGI is forming the generalized inverse of G from B-inverse, IUseBI=4.
 Internal  Forces:  Max     0.001123456 RMS     0.000625476
 Search for a local minimum.
 Step number   4 out of a maximum of   31
 All quantities printed in internal units (Hartrees-Bohrs-Radians)
 Mixed Optimization -- En-DIIS/RFO-DIIS
 Swapping is turned off.
 Update second derivatives using D2CorX and points    1    2    3    4
 DE=  5.76D-05 DEPred=-2.38D-05 R=-2.42D+00
 Trust test=-2.42D+00 RLast= 6.25D-02 DXMaxT set to 1.50D-01
 ITU= -1  1  1  0
     Eigenvalues ---    0.01011   0.03858   0.06192   0.07701   0.08166
     Eigenvalues ---    0.14486   0.16136   0.16548   0.24852   0.25231
     Eigenvalues ---    0.29490   0.33186   0.33401   0.34977   1.06061
 En-DIIS/RFO-DIIS IScMMF=        0 using points:     4    3
 RFO step:  Lambda=-3.14788290D-05.
 DidBck=T Rises=F RFO-DIIS coefs:    0.22650    0.77350
 Iteration  1 RMS(Cart)=  0.00893166 RMS(Int)=  0.00008972
 Iteration  2 RMS(Cart)=  0.00010850 RMS(Int)=  0.00001505
 Iteration  3 RMS(Cart)=  0.00000000 RMS(Int)=  0.00001505
 Variable       Old X    -DE/DX   Delta X   Delta X   Delta X     New X
                                 (Linear)    (Quad)   (Total)
    R1        2.83073  -0.00033  -0.00403   0.00265  -0.00138   2.82935
    R2        2.22399   0.00039   0.00109  -0.00062   0.00048   2.22446
    R3        3.80570   0.00003  -0.00367   0.00312  -0.00055   3.80515
    R4        2.05730   0.00011   0.00019   0.00023   0.00041   2.05772
    R5        2.05712   0.00039   0.00034   0.00024   0.00059   2.05770
    R6        2.05435   0.00042   0.00029   0.00068   0.00097   2.05532
    A1        2.24378   0.00016  -0.00089   0.00097   0.00012   2.24390
    A2        1.94906  -0.00031   0.00109  -0.00148  -0.00034   1.94872
    A3        2.08967   0.00022   0.00028   0.00057   0.00089   2.09057
    A4        1.90783  -0.00029   0.00236  -0.00154   0.00083   1.90866
    A5        1.90647   0.00080   0.00375  -0.00144   0.00231   1.90878
    A6        1.90381   0.00042   0.00275  -0.00055   0.00220   1.90601
    A7        1.87654  -0.00018  -0.00209   0.00118  -0.00090   1.87564
    A8        1.93425  -0.00019  -0.00324   0.00116  -0.00208   1.93217
    A9        1.93454  -0.00055  -0.00346   0.00114  -0.00232   1.93222
    D1        2.09751   0.00090   0.01802   0.00115   0.01917   2.11668
    D2       -2.13683   0.00098   0.01903   0.00086   0.01990  -2.11693
    D3       -0.01990   0.00106   0.01882   0.00103   0.01984  -0.00006
    D4       -1.00402  -0.00112  -0.02064  -0.00082  -0.02146  -1.02548
    D5        1.04483  -0.00105  -0.01963  -0.00111  -0.02074   1.02409
    D6       -3.12143  -0.00097  -0.01985  -0.00095  -0.02079   3.14096
         Item               Value     Threshold  Converged?
 Maximum Force            0.001123     0.000450     NO 
 RMS     Force            0.000625     0.000300     NO 
 Maximum Displacement     0.025578     0.001800     NO 
 RMS     Displacement     0.008932     0.001200     NO 
 Predicted change in Energy=-6.484862D-05
 GradGradGradGradGradGradGradGradGradGradGradGradGradGradGradGradGradGrad

                          Input orientation:                          
 ---------------------------------------------------------------------
 Center     Atomic      Atomic             Coordinates (Angstroms)
 Number     Number       Type             X           Y           Z
 ---------------------------------------------------------------------
      1          6           0        1.019081    0.223502    0.000175
      2          6           0        1.745501   -1.085696   -0.000082
      3          1           0        1.454692   -1.660004    0.878153
      4          1           0        1.453669   -1.660366   -0.877732
      5          1           0        2.817201   -0.900241   -0.000716
      6          8           0        1.467840    1.311739   -0.000158
      7         35           0       -0.977879   -0.034817    0.000168
 ---------------------------------------------------------------------
                    Distance matrix (angstroms):
                    1          2          3          4          5
     1  C    0.000000
     2  C    1.497226   0.000000
     3  H    2.123252   1.088896   0.000000
     4  H    2.123334   1.088890   1.755885   0.000000
     5  H    2.120385   1.087628   1.790553   1.790577   0.000000
     6  O    1.177134   2.413461   3.098849   3.098992   2.591067
     7  Br   2.013598   2.919100   3.054422   3.053775   3.892504
                    6          7
     6  O    0.000000
     7  Br   2.791909   0.000000
 Stoichiometry    C2H3BrO
 Framework group  C1[X(C2H3BrO)]
 Deg. of freedom    15
 Full point group                 C1      NOp   1
 Largest Abelian subgroup         C1      NOp   1
 Largest concise Abelian subgroup C1      NOp   1
                         Standard orientation:                         
 ---------------------------------------------------------------------
 Center     Atomic      Atomic             Coordinates (Angstroms)
 Number     Number       Type             X           Y           Z
 ---------------------------------------------------------------------
      1          6           0        1.019013    0.238729    0.000091
      2          6           0        1.762285   -1.060975   -0.000166
      3          1           0        1.478921   -1.638992    0.878069
      4          1           0        1.477902   -1.639368   -0.877816
      5          1           0        2.831500   -0.861690   -0.000800
      6          8           0        1.453676    1.332673   -0.000242
      7         35           0       -0.974443   -0.045367    0.000084
 ---------------------------------------------------------------------
 Rotational constants (GHZ):     10.1417720      2.9497464      2.3176802
 Standard basis: Aug-CC-pVTZ (5D, 7F)
 There are   309 symmetry adapted cartesian basis functions of A   symmetry.
 There are   266 symmetry adapted basis functions of A   symmetry.
   266 basis functions,   514 primitive gaussians,   309 cartesian basis functions
    29 alpha electrons       29 beta electrons
       nuclear repulsion energy       226.5394967124 Hartrees.
 NAtoms=    7 NActive=    7 NUniq=    7 SFac= 1.00D+00 NAtFMM=   60 NAOKFM=F Big=F
 Integral buffers will be    131072 words long.
 Raffenetti 2 integral format.
 Two-electron integral symmetry is turned on.
 One-electron integrals computed using PRISM.
 PrsmSu:  requested number of processors reduced to:   1 ShMem   1 Linda.
 NBasis=   266 RedAO= T EigKep=  2.77D-05  NBF=   266
 NBsUse=   266 1.00D-06 EigRej= -1.00D+00 NBFU=   266
 Initial guess from the checkpoint file:  "/lustre/SCRATCH5/gau/mlawal/845859.sched01/Gau-23478.chk"
 B after Tr=     0.000000    0.000000    0.000000
         Rot=    1.000000   -0.000209   -0.000266    0.000155 Ang=  -0.04 deg.
 ExpMin= 2.53D-02 ExpMax= 1.06D+07 ExpMxC= 1.21D+04 IAcc=3 IRadAn=         5 AccDes= 0.00D+00
 Harris functional with IExCor=  402 and IRadAn=       5 diagonalized for initial guess.
 HarFok:  IExCor=  402 AccDes= 0.00D+00 IRadAn=         5 IDoV= 1 UseB2=F ITyADJ=14
 ICtDFT=  3500011 ScaDFX=  1.000000  1.000000  1.000000  1.000000
 FoFCou: FMM=F IPFlag=           0 FMFlag=      100000 FMFlg1=           0
         NFxFlg=           0 DoJE=T BraDBF=F KetDBF=T FulRan=T
         wScrn=  0.000000 ICntrl=     500 IOpCl=  0 I1Cent=   200000004 NGrid=           0
         NMat0=    1 NMatS0=      1 NMatT0=    0 NMatD0=    1 NMtDS0=    0 NMtDT0=    0
 Petite list used in FoFCou.
 Requested convergence on RMS density matrix=1.00D-08 within 128 cycles.
 Requested convergence on MAX density matrix=1.00D-06.
 Requested convergence on             energy=1.00D-06.
 No special actions if energy rises.
 SCF Done:  E(RB3LYP) =  -2727.54300498     A.U. after    9 cycles
            NFock=  9  Conv=0.21D-08     -V/T= 2.0017
 PrsmSu:  requested number of processors reduced to:   1 ShMem   1 Linda.
 PrsmSu:  requested number of processors reduced to:   3 ShMem   1 Linda.
 Calling FoFJK, ICntrl=      2127 FMM=F ISym2X=0 I1Cent= 0 IOpClX= 0 NMat=1 NMatS=1 NMatT=0.
 CoulSu:  requested number of processors reduced to:   3 ShMem   1 Linda.
 ***** Axes restored to original set *****
 -------------------------------------------------------------------
 Center     Atomic                   Forces (Hartrees/Bohr)
 Number     Number              X              Y              Z
 -------------------------------------------------------------------
      1        6           0.000183594    0.000050435   -0.000064928
      2        6          -0.000422528    0.000349986    0.000024658
      3        1           0.000071539   -0.000098245    0.000087737
      4        1           0.000066591   -0.000087210   -0.000088049
      5        1           0.000144623   -0.000090157    0.000001558
      6        8          -0.000034004   -0.000015876    0.000025119
      7       35          -0.000009816   -0.000108933    0.000013904
 -------------------------------------------------------------------
 Cartesian Forces:  Max     0.000422528 RMS     0.000142695

 GradGradGradGradGradGradGradGradGradGradGradGradGradGradGradGradGradGrad
 Berny optimization.
 Using GEDIIS/GDIIS optimizer.
 FormGI is forming the generalized inverse of G from B-inverse, IUseBI=4.
 Internal  Forces:  Max     0.000232416 RMS     0.000098175
 Search for a local minimum.
 Step number   5 out of a maximum of   31
 All quantities printed in internal units (Hartrees-Bohrs-Radians)
 Mixed Optimization -- En-DIIS/RFO-DIIS
 Swapping is turned off.
 Update second derivatives using D2CorX and points    1    2    3    4    5
 DE= -6.46D-05 DEPred=-6.48D-05 R= 9.97D-01
 TightC=F SS=  1.41D+00  RLast= 5.01D-02 DXNew= 2.5227D-01 1.5019D-01
 Trust test= 9.97D-01 RLast= 5.01D-02 DXMaxT set to 1.50D-01
 ITU=  1 -1  1  1  0
     Eigenvalues ---    0.01011   0.04859   0.07681   0.07733   0.10896
     Eigenvalues ---    0.14638   0.16099   0.16564   0.22879   0.24988
     Eigenvalues ---    0.31304   0.32439   0.33188   0.33681   1.07713
 En-DIIS/RFO-DIIS IScMMF=        0 using points:     5    4    3
 RFO step:  Lambda=-4.50288262D-07.
 DidBck=F Rises=F RFO-DIIS coefs:    0.89261    0.02255    0.08484
 Iteration  1 RMS(Cart)=  0.00059704 RMS(Int)=  0.00000237
 Iteration  2 RMS(Cart)=  0.00000041 RMS(Int)=  0.00000234
 Variable       Old X    -DE/DX   Delta X   Delta X   Delta X     New X
                                 (Linear)    (Quad)   (Total)
    R1        2.82935  -0.00013  -0.00029  -0.00018  -0.00048   2.82887
    R2        2.22446  -0.00002   0.00007  -0.00001   0.00006   2.22452
    R3        3.80515   0.00002  -0.00034   0.00034   0.00000   3.80515
    R4        2.05772   0.00011  -0.00002   0.00041   0.00039   2.05810
    R5        2.05770   0.00010  -0.00003   0.00041   0.00038   2.05809
    R6        2.05532   0.00012  -0.00007   0.00052   0.00045   2.05577
    A1        2.24390   0.00013  -0.00011   0.00055   0.00044   2.24434
    A2        1.94872  -0.00023   0.00016  -0.00104  -0.00087   1.94784
    A3        2.09057   0.00010  -0.00006   0.00049   0.00043   2.09100
    A4        1.90866   0.00009   0.00017   0.00054   0.00071   1.90937
    A5        1.90878   0.00007   0.00016   0.00050   0.00067   1.90945
    A6        1.90601   0.00013   0.00007   0.00079   0.00085   1.90687
    A7        1.87564  -0.00005  -0.00013  -0.00009  -0.00022   1.87542
    A8        1.93217  -0.00013  -0.00013  -0.00086  -0.00100   1.93117
    A9        1.93222  -0.00012  -0.00013  -0.00087  -0.00100   1.93122
    D1        2.11668  -0.00003  -0.00008  -0.00041  -0.00049   2.11619
    D2       -2.11693   0.00001  -0.00005   0.00009   0.00004  -2.11689
    D3       -0.00006  -0.00002  -0.00007  -0.00017  -0.00024  -0.00030
    D4       -1.02548   0.00000   0.00004   0.00001   0.00005  -1.02543
    D5        1.02409   0.00004   0.00007   0.00051   0.00058   1.02467
    D6        3.14096   0.00001   0.00006   0.00025   0.00030   3.14127
         Item               Value     Threshold  Converged?
 Maximum Force            0.000232     0.000450     YES
 RMS     Force            0.000098     0.000300     YES
 Maximum Displacement     0.001464     0.001800     YES
 RMS     Displacement     0.000597     0.001200     YES
 Predicted change in Energy=-5.214020D-07
 Optimization completed.
    -- Stationary point found.
                           ----------------------------
                           !   Optimized Parameters   !
                           ! (Angstroms and Degrees)  !
 --------------------------                            --------------------------
 ! Name  Definition              Value          Derivative Info.                !
 --------------------------------------------------------------------------------
 ! R1    R(1,2)                  1.4972         -DE/DX =   -0.0001              !
 ! R2    R(1,6)                  1.1771         -DE/DX =    0.0                 !
 ! R3    R(1,7)                  2.0136         -DE/DX =    0.0                 !
 ! R4    R(2,3)                  1.0889         -DE/DX =    0.0001              !
 ! R5    R(2,4)                  1.0889         -DE/DX =    0.0001              !
 ! R6    R(2,5)                  1.0876         -DE/DX =    0.0001              !
 ! A1    A(2,1,6)              128.566          -DE/DX =    0.0001              !
 ! A2    A(2,1,7)              111.6534         -DE/DX =   -0.0002              !
 ! A3    A(6,1,7)              119.7806         -DE/DX =    0.0001              !
 ! A4    A(1,2,3)              109.3582         -DE/DX =    0.0001              !
 ! A5    A(1,2,4)              109.3651         -DE/DX =    0.0001              !
 ! A6    A(1,2,5)              109.2064         -DE/DX =    0.0001              !
 ! A7    A(3,2,4)              107.4663         -DE/DX =    0.0                 !
 ! A8    A(3,2,5)              110.7052         -DE/DX =   -0.0001              !
 ! A9    A(4,2,5)              110.7079         -DE/DX =   -0.0001              !
 ! D1    D(6,1,2,3)            121.2769         -DE/DX =    0.0                 !
 ! D2    D(6,1,2,4)           -121.2913         -DE/DX =    0.0                 !
 ! D3    D(6,1,2,5)             -0.0034         -DE/DX =    0.0                 !
 ! D4    D(7,1,2,3)            -58.7558         -DE/DX =    0.0                 !
 ! D5    D(7,1,2,4)             58.676          -DE/DX =    0.0                 !
 ! D6    D(7,1,2,5)            179.9639         -DE/DX =    0.0                 !
 --------------------------------------------------------------------------------
 GradGradGradGradGradGradGradGradGradGradGradGradGradGradGradGradGradGrad

                          Input orientation:                          
 ---------------------------------------------------------------------
 Center     Atomic      Atomic             Coordinates (Angstroms)
 Number     Number       Type             X           Y           Z
 ---------------------------------------------------------------------
      1          6           0        1.019081    0.223502    0.000175
      2          6           0        1.745501   -1.085696   -0.000082
      3          1           0        1.454692   -1.660004    0.878153
      4          1           0        1.453669   -1.660366   -0.877732
      5          1           0        2.817201   -0.900241   -0.000716
      6          8           0        1.467840    1.311739   -0.000158
      7         35           0       -0.977879   -0.034817    0.000168
 ---------------------------------------------------------------------
                    Distance matrix (angstroms):
                    1          2          3          4          5
     1  C    0.000000
     2  C    1.497226   0.000000
     3  H    2.123252   1.088896   0.000000
     4  H    2.123334   1.088890   1.755885   0.000000
     5  H    2.120385   1.087628   1.790553   1.790577   0.000000
     6  O    1.177134   2.413461   3.098849   3.098992   2.591067
     7  Br   2.013598   2.919100   3.054422   3.053775   3.892504
                    6          7
     6  O    0.000000
     7  Br   2.791909   0.000000
 Stoichiometry    C2H3BrO
 Framework group  C1[X(C2H3BrO)]
 Deg. of freedom    15
 Full point group                 C1      NOp   1
 Largest Abelian subgroup         C1      NOp   1
 Largest concise Abelian subgroup C1      NOp   1
                         Standard orientation:                         
 ---------------------------------------------------------------------
 Center     Atomic      Atomic             Coordinates (Angstroms)
 Number     Number       Type             X           Y           Z
 ---------------------------------------------------------------------
      1          6           0        1.019013    0.238729    0.000091
      2          6           0        1.762285   -1.060975   -0.000166
      3          1           0        1.478921   -1.638992    0.878069
      4          1           0        1.477902   -1.639368   -0.877816
      5          1           0        2.831500   -0.861690   -0.000800
      6          8           0        1.453676    1.332673   -0.000242
      7         35           0       -0.974443   -0.045367    0.000084
 ---------------------------------------------------------------------
 Rotational constants (GHZ):     10.1417720      2.9497464      2.3176802

 **********************************************************************

            Population analysis using the SCF density.

 **********************************************************************

 Orbital symmetries:
       Occupied  (A) (A) (A) (A) (A) (A) (A) (A) (A) (A) (A) (A)
                 (A) (A) (A) (A) (A) (A) (A) (A) (A) (A) (A) (A)
                 (A) (A) (A) (A) (A)
       Virtual   (A) (A) (A) (A) (A) (A) (A) (A) (A) (A) (A) (A)
                 (A) (A) (A) (A) (A) (A) (A) (A) (A) (A) (A) (A)
                 (A) (A) (A) (A) (A) (A) (A) (A) (A) (A) (A) (A)
                 (A) (A) (A) (A) (A) (A) (A) (A) (A) (A) (A) (A)
                 (A) (A) (A) (A) (A) (A) (A) (A) (A) (A) (A) (A)
                 (A) (A) (A) (A) (A) (A) (A) (A) (A) (A) (A) (A)
                 (A) (A) (A) (A) (A) (A) (A) (A) (A) (A) (A) (A)
                 (A) (A) (A) (A) (A) (A) (A) (A) (A) (A) (A) (A)
                 (A) (A) (A) (A) (A) (A) (A) (A) (A) (A) (A) (A)
                 (A) (A) (A) (A) (A) (A) (A) (A) (A) (A) (A) (A)
                 (A) (A) (A) (A) (A) (A) (A) (A) (A) (A) (A) (A)
                 (A) (A) (A) (A) (A) (A) (A) (A) (A) (A) (A) (A)
                 (A) (A) (A) (A) (A) (A) (A) (A) (A) (A) (A) (A)
                 (A) (A) (A) (A) (A) (A) (A) (A) (A) (A) (A) (A)
                 (A) (A) (A) (A) (A) (A) (A) (A) (A) (A) (A) (A)
                 (A) (A) (A) (A) (A) (A) (A) (A) (A) (A) (A) (A)
                 (A) (A) (A) (A) (A) (A) (A) (A) (A) (A) (A) (A)
                 (A) (A) (A) (A) (A) (A) (A) (A) (A) (A) (A) (A)
                 (A) (A) (A) (A) (A) (A) (A) (A) (A) (A) (A) (A)
                 (A) (A) (A) (A) (A) (A) (A) (A) (A)
 The electronic state is 1-A.
 Alpha  occ. eigenvalues -- -482.86524 -62.51216 -56.32803 -56.32528 -56.32485
 Alpha  occ. eigenvalues --  -19.18082 -10.33649 -10.21844  -8.69952  -6.52708
 Alpha  occ. eigenvalues --   -6.51823  -6.51695  -2.64261  -2.64035  -2.63936
 Alpha  occ. eigenvalues --   -2.63226  -2.63223  -1.11577  -0.81243  -0.76312
 Alpha  occ. eigenvalues --   -0.57005  -0.50049  -0.48926  -0.48921  -0.42627
 Alpha  occ. eigenvalues --   -0.41603  -0.30819  -0.30429  -0.29439
 Alpha virt. eigenvalues --   -0.05659  -0.03322  -0.01488   0.01321   0.01645
 Alpha virt. eigenvalues --    0.02177   0.04480   0.05885   0.06315   0.06395
 Alpha virt. eigenvalues --    0.06747   0.07770   0.09145   0.09474   0.09816
 Alpha virt. eigenvalues --    0.09861   0.10185   0.12967   0.16062   0.16356
 Alpha virt. eigenvalues --    0.16650   0.16924   0.18124   0.19167   0.19763
 Alpha virt. eigenvalues --    0.22746   0.23936   0.24781   0.25105   0.25275
 Alpha virt. eigenvalues --    0.25655   0.27155   0.29030   0.29238   0.29493
 Alpha virt. eigenvalues --    0.30753   0.31326   0.32391   0.33567   0.34371
 Alpha virt. eigenvalues --    0.35303   0.35508   0.37858   0.39260   0.40749
 Alpha virt. eigenvalues --    0.41325   0.42143   0.43446   0.43513   0.46926
 Alpha virt. eigenvalues --    0.48710   0.51486   0.52186   0.53006   0.55788
 Alpha virt. eigenvalues --    0.56493   0.58823   0.60421   0.61422   0.63190
 Alpha virt. eigenvalues --    0.65766   0.66240   0.66846   0.67419   0.69055
 Alpha virt. eigenvalues --    0.70095   0.71460   0.71634   0.73382   0.74683
 Alpha virt. eigenvalues --    0.75435   0.77132   0.78559   0.79420   0.79701
 Alpha virt. eigenvalues --    0.81824   0.83334   0.84317   0.84636   0.85860
 Alpha virt. eigenvalues --    0.87733   0.89642   0.90472   0.91134   0.94545
 Alpha virt. eigenvalues --    0.95812   0.98782   0.99558   1.01655   1.01852
 Alpha virt. eigenvalues --    1.05847   1.07084   1.08017   1.09531   1.10841
 Alpha virt. eigenvalues --    1.11924   1.15035   1.15202   1.17837   1.21598
 Alpha virt. eigenvalues --    1.23671   1.25041   1.25408   1.31626   1.31937
 Alpha virt. eigenvalues --    1.32643   1.34447   1.36794   1.38695   1.43684
 Alpha virt. eigenvalues --    1.44313   1.44403   1.47772   1.47809   1.49425
 Alpha virt. eigenvalues --    1.52113   1.53939   1.56103   1.57178   1.62321
 Alpha virt. eigenvalues --    1.64358   1.65792   1.69149   1.75666   1.77595
 Alpha virt. eigenvalues --    1.81985   1.88021   1.88925   1.92472   1.94292
 Alpha virt. eigenvalues --    1.96289   1.96749   1.97325   2.00639   2.01557
 Alpha virt. eigenvalues --    2.04443   2.05766   2.06446   2.08664   2.09683
 Alpha virt. eigenvalues --    2.11338   2.11491   2.11944   2.15378   2.20342
 Alpha virt. eigenvalues --    2.23067   2.24007   2.30934   2.31413   2.32599
 Alpha virt. eigenvalues --    2.33507   2.33862   2.38061   2.43648   2.48828
 Alpha virt. eigenvalues --    2.54083   2.60023   2.64198   2.74196   2.78024
 Alpha virt. eigenvalues --    2.78867   2.81846   2.89650   3.01938   3.03127
 Alpha virt. eigenvalues --    3.08905   3.14210   3.15770   3.19445   3.23123
 Alpha virt. eigenvalues --    3.25758   3.28789   3.34910   3.40006   3.42370
 Alpha virt. eigenvalues --    3.43587   3.46618   3.47676   3.51558   3.53657
 Alpha virt. eigenvalues --    3.58148   3.58591   3.62552   3.70519   3.75666
 Alpha virt. eigenvalues --    3.78890   3.80438   3.80590   3.87346   3.94236
 Alpha virt. eigenvalues --    3.96063   3.96122   4.04688   4.16144   4.22276
 Alpha virt. eigenvalues --    4.27484   4.32564   4.37843   4.41622   4.41896
 Alpha virt. eigenvalues --    4.43926   4.53268   4.58470   4.65274   4.75216
 Alpha virt. eigenvalues --    4.76755   4.85614   4.87075   4.95872   4.96418
 Alpha virt. eigenvalues --    5.06598   5.18672   5.24565   5.28139   5.30289
 Alpha virt. eigenvalues --    5.38521   5.62990   5.70470   5.74981   5.82324
 Alpha virt. eigenvalues --    6.14063   6.18649   6.26077   6.27402   6.47097
 Alpha virt. eigenvalues --    6.50974   6.73856   6.73937   6.77056   6.88523
 Alpha virt. eigenvalues --    7.03578   7.06796   7.22215   7.23407  14.41600
 Alpha virt. eigenvalues --   15.36581  17.25169
          Condensed to atoms (all electrons):
               1          2          3          4          5          6
     1  C    4.902669   0.172519   0.002263   0.002236  -0.002072   0.343262
     2  C    0.172519   5.344302   0.378728   0.378794   0.357890  -0.078226
     3  H    0.002263   0.378728   0.376394   0.020740  -0.022826   0.001350
     4  H    0.002236   0.378794   0.020740   0.376365  -0.022822   0.001350
     5  H   -0.002072   0.357890  -0.022826  -0.022822   0.444539   0.005654
     6  O    0.343262  -0.078226   0.001350   0.001350   0.005654   8.262219
     7  Br   0.234790  -0.036813  -0.027424  -0.027470   0.017677  -0.063689
               7
     1  C    0.234790
     2  C   -0.036813
     3  H   -0.027424
     4  H   -0.027470
     5  H    0.017677
     6  O   -0.063689
     7  Br  35.021690
 Mulliken charges:
               1
     1  C    0.344334
     2  C   -0.517194
     3  H    0.270775
     4  H    0.270806
     5  H    0.221961
     6  O   -0.471921
     7  Br  -0.118762
 Sum of Mulliken charges =   0.00000
 Mulliken charges with hydrogens summed into heavy atoms:
               1
     1  C    0.344334
     2  C    0.246348
     6  O   -0.471921
     7  Br  -0.118762
 Electronic spatial extent (au):  <R**2>=            496.1452
 Charge=              0.0000 electrons
 Dipole moment (field-independent basis, Debye):
    X=              1.5972    Y=             -2.4232    Z=              0.0001  Tot=              2.9022
 Quadrupole moment (field-independent basis, Debye-Ang):
   XX=            -34.4486   YY=            -37.9729   ZZ=            -35.6913
   XY=             -4.2786   XZ=              0.0008   YZ=              0.0009
 Traceless Quadrupole moment (field-independent basis, Debye-Ang):
   XX=              1.5890   YY=             -1.9353   ZZ=              0.3463
   XY=             -4.2786   XZ=              0.0008   YZ=              0.0009
 Octapole moment (field-independent basis, Debye-Ang**2):
  XXX=            -22.8027  YYY=             -3.2071  ZZZ=              0.0020  XYY=             -9.1312
  XXY=             -6.4969  XXZ=             -0.0004  XZZ=             -6.2537  YZZ=             -0.0086
  YYZ=              0.0003  XYZ=              0.0005
 Hexadecapole moment (field-independent basis, Debye-Ang**3):
 XXXX=           -370.2099 YYYY=           -165.8059 ZZZZ=            -46.7049 XXXY=             -4.9390
 XXXZ=              0.0102 YYYX=             -1.5685 YYYZ=              0.0040 ZZZX=              0.0184
 ZZZY=             -0.0001 XXYY=            -97.4628 XXZZ=            -73.3033 YYZZ=            -32.2637
 XXYZ=              0.0015 YYXZ=              0.0072 ZZXY=              1.1091
 N-N= 2.265394967124D+02 E-N=-6.963550500635D+03  KE= 2.722879642417D+03
 1\1\GINC-CNODE-4-87\FOpt\RB3LYP\Aug-CC-pVTZ\C2H3Br1O1\MLAWAL\24-Mar-20
 15\0\\# opt freq b3lyp/aug-cc-pvtz geom=connectivity\\BrAc-cc-pvtz\\0,
 1\C,1.0190809459,0.2235023481,0.0001745765\C,1.745500548,-1.0856964475
 ,-0.0000820399\H,1.4546922153,-1.6600042462,0.8781525256\H,1.453669163
 6,-1.6603662898,-0.8777321981\H,2.8172005479,-0.9002405531,-0.00071643
 15\O,1.4678403438,1.3117394926,-0.0001579752\Br,-0.9778787645,-0.03481
 73041,0.0001675427\\Version=EM64L-G09RevD.01\State=1-A\HF=-2727.543005
 \RMSD=2.053e-09\RMSF=1.427e-04\Dipole=0.6159982,-0.9614043,0.0000531\Q
 uadrupole=1.0987429,-1.3562032,0.2574603,-3.2138271,0.0005971,0.000633
 5\PG=C01 [X(C2H3Br1O1)]\\@


 THE HURRIEDER I GO, THE BEHINDER I GET.
 Job cpu time:       0 days  1 hours  8 minutes 25.3 seconds.
 File lengths (MBytes):  RWF=     44 Int=      0 D2E=      0 Chk=      6 Scr=      1
 Normal termination of Gaussian 09 at Tue Mar 24 09:44:22 2015.
 Link1:  Proceeding to internal job step number  2.
 ----------------------------------------------------------------------
 #N Geom=AllCheck Guess=TCheck SCRF=Check GenChk RB3LYP/Aug-CC-pVTZ Fre
 q
 ----------------------------------------------------------------------
 1/10=4,29=7,30=1,38=1,40=1/1,3;
 2/12=2,40=1/2;
 3/5=16,6=1,7=10,11=2,14=-4,16=1,25=1,30=1,70=2,71=2,74=-5,116=1,140=1/1,2,3;
 4/5=101/1;
 5/5=2,98=1/2;
 8/6=4,10=90,11=11/1;
 11/6=1,8=1,9=11,15=111,16=1/1,2,10;
 10/6=1/2;
 6/7=2,8=2,9=2,10=2,18=1,28=1/1;
 7/8=1,10=1,25=1/1,2,3,16;
 1/10=4,30=1/3;
 99//99;
 Structure from the checkpoint file:  "/lustre/SCRATCH5/gau/mlawal/845859.sched01/Gau-23478.chk"
 ------------
 BrAc-cc-pvtz
 ------------
 Charge =  0 Multiplicity = 1
 Redundant internal coordinates found in file.
 C,0,1.0190809459,0.2235023481,0.0001745765
 C,0,1.745500548,-1.0856964475,-0.0000820399
 H,0,1.4546922153,-1.6600042462,0.8781525256
 H,0,1.4536691636,-1.6603662898,-0.8777321981
 H,0,2.8172005479,-0.9002405531,-0.0007164315
 O,0,1.4678403438,1.3117394926,-0.0001579752
 Br,0,-0.9778787645,-0.0348173041,0.0001675427
 Recover connectivity data from disk.

 GradGradGradGradGradGradGradGradGradGradGradGradGradGradGradGradGradGrad
 Berny optimization.
 Initialization pass.
                           ----------------------------
                           !    Initial Parameters    !
                           ! (Angstroms and Degrees)  !
 --------------------------                            --------------------------
 ! Name  Definition              Value          Derivative Info.                !
 --------------------------------------------------------------------------------
 ! R1    R(1,2)                  1.4972         calculate D2E/DX2 analytically  !
 ! R2    R(1,6)                  1.1771         calculate D2E/DX2 analytically  !
 ! R3    R(1,7)                  2.0136         calculate D2E/DX2 analytically  !
 ! R4    R(2,3)                  1.0889         calculate D2E/DX2 analytically  !
 ! R5    R(2,4)                  1.0889         calculate D2E/DX2 analytically  !
 ! R6    R(2,5)                  1.0876         calculate D2E/DX2 analytically  !
 ! A1    A(2,1,6)              128.566          calculate D2E/DX2 analytically  !
 ! A2    A(2,1,7)              111.6534         calculate D2E/DX2 analytically  !
 ! A3    A(6,1,7)              119.7806         calculate D2E/DX2 analytically  !
 ! A4    A(1,2,3)              109.3582         calculate D2E/DX2 analytically  !
 ! A5    A(1,2,4)              109.3651         calculate D2E/DX2 analytically  !
 ! A6    A(1,2,5)              109.2064         calculate D2E/DX2 analytically  !
 ! A7    A(3,2,4)              107.4663         calculate D2E/DX2 analytically  !
 ! A8    A(3,2,5)              110.7052         calculate D2E/DX2 analytically  !
 ! A9    A(4,2,5)              110.7079         calculate D2E/DX2 analytically  !
 ! D1    D(6,1,2,3)            121.2769         calculate D2E/DX2 analytically  !
 ! D2    D(6,1,2,4)           -121.2913         calculate D2E/DX2 analytically  !
 ! D3    D(6,1,2,5)             -0.0034         calculate D2E/DX2 analytically  !
 ! D4    D(7,1,2,3)            -58.7558         calculate D2E/DX2 analytically  !
 ! D5    D(7,1,2,4)             58.676          calculate D2E/DX2 analytically  !
 ! D6    D(7,1,2,5)            179.9639         calculate D2E/DX2 analytically  !
 --------------------------------------------------------------------------------
 Trust Radius=3.00D-01 FncErr=1.00D-07 GrdErr=1.00D-07
 Number of steps in this run=      2 maximum allowed number of steps=      2.
 GradGradGradGradGradGradGradGradGradGradGradGradGradGradGradGradGradGrad

                          Input orientation:                          
 ---------------------------------------------------------------------
 Center     Atomic      Atomic             Coordinates (Angstroms)
 Number     Number       Type             X           Y           Z
 ---------------------------------------------------------------------
[...]
   XY=             -4.2786   XZ=              0.0008   YZ=              0.0009
 Octapole moment (field-independent basis, Debye-Ang**2):
  XXX=            -22.8027  YYY=             -3.2071  ZZZ=              0.0020  XYY=             -9.1312
  XXY=             -6.4969  XXZ=             -0.0004  XZZ=             -6.2537  YZZ=             -0.0086
  YYZ=              0.0003  XYZ=              0.0005
 Hexadecapole moment (field-independent basis, Debye-Ang**3):
 XXXX=           -370.2099 YYYY=           -165.8059 ZZZZ=            -46.7049 XXXY=             -4.9390
 XXXZ=              0.0103 YYYX=             -1.5685 YYYZ=              0.0040 ZZZX=              0.0184
 ZZZY=             -0.0001 XXYY=            -97.4628 XXZZ=            -73.3033 YYZZ=            -32.2637
 XXYZ=              0.0015 YYXZ=              0.0072 ZZXY=              1.1091
 N-N= 2.265394967124D+02 E-N=-6.963550499091D+03  KE= 2.722879641968D+03
  Exact polarizability:  70.042   1.616  51.128  -0.006  -0.003  39.926
 Approx polarizability: 110.886  13.030  79.315  -0.004  -0.005  60.080
 PrsmSu:  requested number of processors reduced to:   1 ShMem   1 Linda.
 PrsmSu:  requested number of processors reduced to:   1 ShMem   1 Linda.
 Calling FoFJK, ICntrl=    100127 FMM=F ISym2X=0 I1Cent= 0 IOpClX= 0 NMat=1 NMatS=1 NMatT=0.
 CoulSu:  requested number of processors reduced to:   1 ShMem   1 Linda.
 Full mass-weighted force constant matrix:
 Low frequencies ---   -4.3753   -0.0176   -0.0049   -0.0047    6.0762   10.7742
 Low frequencies ---  128.2345  294.0138  332.0575
 Diagonal vibrational polarizability:
       23.6192848       2.1787021       0.4055578
 Harmonic frequencies (cm**-1), IR intensities (KM/Mole), Raman scattering
 activities (A**4/AMU), depolarization ratios for plane and unpolarized
 incident light, reduced masses (AMU), force constants (mDyne/A),
 and normal coordinates:
                      1                      2                      3
                      A                      A                      A
 Frequencies --    128.2232               294.0133               332.0573
 Red. masses --      1.0432                 3.4464                14.0859
 Frc consts  --      0.0101                 0.1755                 0.9151
 IR Inten    --      0.0428                 8.6627                17.4506
  Atom  AN      X      Y      Z        X      Y      Z        X      Y      Z
     1   6     0.00   0.00  -0.01     0.06  -0.13   0.00     0.37   0.30   0.00
     2   6     0.00   0.00  -0.01     0.36   0.01   0.00    -0.01   0.11   0.00
     3   1     0.41   0.29   0.32     0.55  -0.07   0.01    -0.22   0.22  -0.01
     4   1    -0.41  -0.29   0.32     0.55  -0.07  -0.01    -0.22   0.21   0.01
     5   1     0.00   0.00  -0.54     0.29   0.36   0.00     0.06  -0.23   0.00
     6   8     0.00   0.00   0.04     0.00  -0.11   0.00     0.67   0.15   0.00
     7  35     0.00   0.00  -0.01    -0.08   0.04   0.00    -0.19  -0.09   0.00
                      4                      5                      6
                      A                      A                      A
 Frequencies --    495.2748               566.3309               943.3277
 Red. masses --      3.0579                 4.1278                 3.0970
 Frc consts  --      0.4419                 0.7800                 1.6237
 IR Inten    --      1.0138               118.7807                77.3407
  Atom  AN      X      Y      Z        X      Y      Z        X      Y      Z
     1   6     0.00   0.00   0.39     0.32   0.01   0.00     0.21  -0.17   0.00
     2   6     0.00   0.00  -0.02     0.10  -0.25   0.00    -0.03   0.28   0.00
     3   1     0.34  -0.43  -0.20    -0.21  -0.11  -0.01    -0.47   0.40  -0.06
     4   1    -0.34   0.43  -0.20    -0.21  -0.11   0.01    -0.47   0.40   0.06
     5   1     0.00   0.00  -0.39     0.20  -0.77   0.00     0.06  -0.22   0.00
     6   8     0.00   0.00  -0.15    -0.19   0.19   0.00    -0.08  -0.14   0.00
     7  35     0.00   0.00  -0.02    -0.02   0.01   0.00     0.00   0.00   0.00
                      7                      8                      9
                      A                      A                      A
 Frequencies --   1041.0863              1101.1102              1386.7469
 Red. masses --      1.5821                 1.8458                 1.2354
 Frc consts  --      1.0103                 1.3186                 1.3997
 IR Inten    --      1.7673               141.1364                21.3039
  Atom  AN      X      Y      Z        X      Y      Z        X      Y      Z
     1   6     0.00   0.00  -0.16     0.20  -0.06   0.00     0.02  -0.01   0.00
     2   6     0.00   0.00   0.16    -0.18  -0.02   0.00    -0.07   0.13   0.00
     3   1     0.26  -0.56  -0.15     0.34  -0.08   0.12     0.29  -0.47  -0.26
     4   1    -0.26   0.56  -0.15     0.34  -0.08  -0.12     0.29  -0.47   0.26
     5   1     0.00   0.00  -0.37    -0.31   0.75   0.00     0.05  -0.48   0.00
     6   8     0.00   0.00   0.03    -0.03   0.02   0.00     0.00   0.00   0.00
     7  35     0.00   0.00   0.00     0.00   0.00   0.00     0.00   0.00   0.00
                     10                     11                     12
                      A                      A                      A
 Frequencies --   1462.4846              1463.2620              1892.6460
 Red. masses --      1.0446                 1.0479                12.0907
 Frc consts  --      1.3164                 1.3220                25.5176
 IR Inten    --     14.3355                10.6891               392.7146
  Atom  AN      X      Y      Z        X      Y      Z        X      Y      Z
     1   6     0.00   0.00   0.02    -0.01   0.01   0.00     0.20   0.75   0.00
     2   6     0.00   0.00   0.05    -0.05   0.00   0.00     0.01  -0.06   0.00
     3   1    -0.48   0.09  -0.06     0.38   0.33   0.35     0.04  -0.17  -0.09
     4   1     0.48  -0.09  -0.06     0.39   0.33  -0.35     0.04  -0.17   0.09
     5   1     0.00   0.00  -0.72     0.05  -0.48   0.00     0.00   0.14   0.00
     6   8     0.00   0.00   0.00     0.00  -0.02   0.00    -0.19  -0.50   0.00
     7  35     0.00   0.00   0.00     0.00   0.00   0.00     0.01   0.00   0.00
                     13                     14                     15
                      A                      A                      A
 Frequencies --   3052.5440              3123.7093              3143.6857
 Red. masses --      1.0322                 1.1001                 1.1063
 Frc consts  --      5.6668                 6.3244                 6.4417
 IR Inten    --      1.0742                 0.0048                 6.6797
  Atom  AN      X      Y      Z        X      Y      Z        X      Y      Z
     1   6     0.00   0.00   0.00     0.00   0.00   0.00     0.00   0.00   0.00
     2   6    -0.02   0.04   0.00     0.00   0.00   0.09    -0.08  -0.05   0.00
     3   1    -0.15  -0.30   0.47     0.19   0.38  -0.56     0.09   0.21  -0.33
     4   1    -0.15  -0.30  -0.47    -0.19  -0.38  -0.56     0.09   0.21   0.33
     5   1     0.56   0.11   0.00     0.00   0.00   0.01     0.80   0.15   0.00
     6   8     0.00   0.00   0.00     0.00   0.00   0.00     0.00   0.00   0.00
     7  35     0.00   0.00   0.00     0.00   0.00   0.00     0.00   0.00   0.00

 -------------------
 - Thermochemistry -
 -------------------
 Temperature   298.150 Kelvin.  Pressure   1.00000 Atm.
 Atom     1 has atomic number  6 and mass  12.00000
 Atom     2 has atomic number  6 and mass  12.00000
 Atom     3 has atomic number  1 and mass   1.00783
 Atom     4 has atomic number  1 and mass   1.00783
 Atom     5 has atomic number  1 and mass   1.00783
 Atom     6 has atomic number  8 and mass  15.99491
 Atom     7 has atomic number 35 and mass  78.91834
 Molecular mass:   121.93673 amu.
 Principal axes and moments of inertia in atomic units:
                           1         2         3
     Eigenvalues --   177.95127 611.82927 778.68432
           X            0.99779  -0.06642   0.00009
           Y            0.06642   0.99779   0.00004
           Z           -0.00009  -0.00003   1.00000
 This molecule is an asymmetric top.
 Rotational symmetry number  1.
 Rotational temperatures (Kelvin)      0.48673     0.14157     0.11123
 Rotational constants (GHZ):          10.14177     2.94975     2.31768
 Zero-point vibrational energy     122177.6 (Joules/Mol)
                                   29.20115 (Kcal/Mol)
 Warning -- explicit consideration of   5 degrees of freedom as
           vibrations may cause significant error
 Vibrational temperatures:    184.48   423.02   477.76   712.59   814.82
          (Kelvin)           1357.24  1497.89  1584.25  1995.22  2104.19
                             2105.30  2723.09  4391.92  4494.32  4523.06
 
 Zero-point correction=                           0.046535 (Hartree/Particle)
 Thermal correction to Energy=                    0.051388
 Thermal correction to Enthalpy=                  0.052332
 Thermal correction to Gibbs Free Energy=         0.017451
 Sum of electronic and zero-point Energies=          -2727.496470
 Sum of electronic and thermal Energies=             -2727.491617
 Sum of electronic and thermal Enthalpies=           -2727.490673
 Sum of electronic and thermal Free Energies=        -2727.525554
 
                     E (Thermal)             CV                S
                      KCal/Mol        Cal/Mol-Kelvin    Cal/Mol-Kelvin
 Total                   32.247             14.904             73.413
 Electronic               0.000              0.000              0.000
 Translational            0.889              2.981             40.309
 Rotational               0.889              2.981             25.942
 Vibrational             30.469              8.942              7.162
 Vibration     1          0.611              1.925              2.973
 Vibration     2          0.689              1.685              1.451
 Vibration     3          0.714              1.611              1.250
 Vibration     4          0.851              1.261              0.670
 Vibration     5          0.922              1.104              0.511
                       Q            Log10(Q)             Ln(Q)
 Total Bot       0.939525D-08         -8.027092        -18.483062
 Total V=0       0.238493D+14         13.377475         30.802774
 Vib (Bot)       0.170317D-20        -20.768741        -47.821795
 Vib (Bot)    1  0.159063D+01          0.201569          0.464130
 Vib (Bot)    2  0.648993D+00         -0.187760         -0.432333
 Vib (Bot)    3  0.561980D+00         -0.250279         -0.576290
 Vib (Bot)    4  0.333231D+00         -0.477254         -1.098918
 Vib (Bot)    5  0.272743D+00         -0.564246         -1.299225
 Vib (V=0)       0.432340D+01          0.635825          1.464041
 Vib (V=0)    1  0.216736D+01          0.335932          0.773512
 Vib (V=0)    2  0.131926D+01          0.120331          0.277073
 Vib (V=0)    3  0.125221D+01          0.097677          0.224911
 Vib (V=0)    4  0.110087D+01          0.041736          0.096100
 Vib (V=0)    5  0.106955D+01          0.029202          0.067239
 Electronic      0.100000D+01          0.000000          0.000000
 Translational   0.529245D+08          7.723657         17.784377
 Rotational      0.104230D+06          5.017993         11.554355
 ***** Axes restored to original set *****
 -------------------------------------------------------------------
 Center     Atomic                   Forces (Hartrees/Bohr)
 Number     Number              X              Y              Z
 -------------------------------------------------------------------
      1        6           0.000183604    0.000050602   -0.000064930
      2        6          -0.000422569    0.000350036    0.000024692
      3        1           0.000071543   -0.000098263    0.000087750
      4        1           0.000066588   -0.000087251   -0.000088093
      5        1           0.000144664   -0.000090167    0.000001558
      6        8          -0.000034051   -0.000016008    0.000025124
      7       35          -0.000009779   -0.000108949    0.000013900
 -------------------------------------------------------------------
 Cartesian Forces:  Max     0.000422569 RMS     0.000142717
 FormGI is forming the generalized inverse of G from B-inverse, IUseBI=4.

 GradGradGradGradGradGradGradGradGradGradGradGradGradGradGradGradGradGrad
 Berny optimization.
 Internal  Forces:  Max     0.000232454 RMS     0.000098193
 Search for a local minimum.
 Step number   1 out of a maximum of    2
 All quantities printed in internal units (Hartrees-Bohrs-Radians)
 Second derivative matrix not updated -- analytic derivatives used.
 ITU=  0
     Eigenvalues ---    0.00120   0.04737   0.05464   0.05476   0.08266
     Eigenvalues ---    0.12339   0.13847   0.14060   0.19647   0.22454
     Eigenvalues ---    0.29505   0.33996   0.34368   0.34811   0.95120
 Angle between quadratic step and forces=  28.03 degrees.
 Linear search not attempted -- first point.
 Iteration  1 RMS(Cart)=  0.00092231 RMS(Int)=  0.00000081
 Iteration  2 RMS(Cart)=  0.00000086 RMS(Int)=  0.00000020
 Variable       Old X    -DE/DX   Delta X   Delta X   Delta X     New X
                                 (Linear)    (Quad)   (Total)
    R1        2.82935  -0.00013   0.00000  -0.00077  -0.00077   2.82858
    R2        2.22446  -0.00002   0.00000  -0.00013  -0.00013   2.22433
    R3        3.80515   0.00002   0.00000   0.00074   0.00074   3.80589
    R4        2.05772   0.00011   0.00000   0.00030   0.00030   2.05802
    R5        2.05770   0.00010   0.00000   0.00031   0.00031   2.05802
    R6        2.05532   0.00012   0.00000   0.00046   0.00046   2.05578
    A1        2.24390   0.00013   0.00000   0.00094   0.00094   2.24484
    A2        1.94872  -0.00023   0.00000  -0.00137  -0.00137   1.94735
    A3        2.09057   0.00010   0.00000   0.00043   0.00043   2.09100
    A4        1.90866   0.00009   0.00000   0.00074   0.00074   1.90940
    A5        1.90878   0.00007   0.00000   0.00062   0.00062   1.90940
    A6        1.90601   0.00013   0.00000   0.00115   0.00115   1.90716
    A7        1.87564  -0.00005   0.00000  -0.00013  -0.00013   1.87551
    A8        1.93217  -0.00013   0.00000  -0.00116  -0.00116   1.93101
    A9        1.93222  -0.00012   0.00000  -0.00121  -0.00121   1.93101
    D1        2.11668  -0.00003   0.00000  -0.00020  -0.00020   2.11648
    D2       -2.11693   0.00001   0.00000   0.00043   0.00043  -2.11651
    D3       -0.00006  -0.00002   0.00000   0.00005   0.00005  -0.00001
    D4       -1.02548   0.00000   0.00000   0.00037   0.00037  -1.02511
    D5        1.02409   0.00004   0.00000   0.00100   0.00100   1.02509
    D6        3.14096   0.00001   0.00000   0.00062   0.00062   3.14158
         Item               Value     Threshold  Converged?
 Maximum Force            0.000232     0.000450     YES
 RMS     Force            0.000098     0.000300     YES
 Maximum Displacement     0.002290     0.001800     NO 
 RMS     Displacement     0.000923     0.001200     YES
 Predicted change in Energy=-6.689059D-07
 GradGradGradGradGradGradGradGradGradGradGradGradGradGradGradGradGradGrad

 1\1\GINC-CNODE-4-87\Freq\RB3LYP\Aug-CC-pVTZ\C2H3Br1O1\MLAWAL\24-Mar-20
 15\0\\#N Geom=AllCheck Guess=TCheck SCRF=Check GenChk RB3LYP/Aug-CC-pV
 TZ Freq\\BrAc-cc-pvtz\\0,1\C,1.0190809459,0.2235023481,0.0001745765\C,
 1.745500548,-1.0856964475,-0.0000820399\H,1.4546922153,-1.6600042462,0
 .8781525256\H,1.4536691636,-1.6603662898,-0.8777321981\H,2.8172005479,
 -0.9002405531,-0.0007164315\O,1.4678403438,1.3117394926,-0.0001579752\
 Br,-0.9778787645,-0.0348173041,0.0001675427\\Version=EM64L-G09RevD.01\
 State=1-A\HF=-2727.543005\RMSD=2.767e-09\RMSF=1.427e-04\ZeroPoint=0.04
 6535\Thermal=0.0513882\Dipole=0.6159987,-0.9614036,0.0000535\DipoleDer
 iv=2.2550338,0.1899724,-0.0002033,0.787874,1.1815882,-0.0000659,-0.000
 3677,-0.0000588,0.1291906,-0.1453601,0.1233008,-0.0000906,0.0344615,-0
 .2392778,-0.0000229,0.0000251,-0.0000417,0.0477069,0.0391626,0.0108396
 ,0.0555697,0.0048808,0.082472,0.01198,0.0300798,0.0395247,0.0305351,0.
 0390585,0.0108023,-0.055568,0.0048235,0.0824578,-0.0119695,-0.030109,-
 0.0395606,0.0306892,-0.0972517,0.0178323,0.0001029,0.0275304,0.0412008
 ,0.0000143,0.0001165,-0.0000188,0.104654,-0.9915093,-0.257762,0.000079
 5,-0.7891431,-0.988252,0.000062,0.0003079,0.0001612,-0.208526,-1.09913
 38,-0.0949854,0.0001097,-0.0704271,-0.1601891,0.000002,-0.0000527,-0.0
 00006,-0.1342497\Polar=70.0803893,1.3708897,51.0894713,-0.0060762,-0.0
 029523,39.9257295\PG=C01 [X(C2H3Br1O1)]\NImag=0\\0.33344073,0.16219689
 ,0.97223724,-0.00008334,-0.00017789,0.16796117,-0.10907935,0.06223659,
 -0.00000150,0.56151170,0.05304695,-0.14806175,-0.00001247,0.06228554,0
 .48438808,0.00001576,-0.00004070,-0.08118970,-0.00000393,0.00000519,0.
 53251476,0.00554362,0.00663459,-0.01640108,-0.06679069,-0.03656792,0.0
 6005344,0.06672883,-0.01111563,-0.02093600,0.02544185,-0.03655076,-0.1
 1470379,0.11855011,0.03943468,0.12895477,0.00038585,-0.00030881,0.0014
 1583,0.05885178,0.11754306,-0.21847523,-0.06484002,-0.12674065,0.23682
 520,0.00555959,0.00664431,0.01639577,-0.06693642,-0.03674074,-0.060227
 58,0.00147677,0.00453258,0.00672779,0.06689042,-0.01114492,-0.02094387
 ,-0.02541912,-0.03671578,-0.11479976,-0.11855524,0.00454803,0.01049078
 ,0.01440138,0.03961331,0.12905415,-0.00038926,0.00031670,0.00140517,-0
 .05901739,-0.11755441,-0.21825386,-0.00675637,-0.01441758,-0.02115356,
 0.06503126,0.12674090,0.23658203,-0.01895473,-0.00272977,0.00000943,-0
 .30874990,-0.04615617,0.00015460,-0.00483911,-0.00074921,-0.00036876,-
 0.00486727,-0.00075217,0.00037754,0.33510048,0.02945715,0.00293166,-0.
 00001873,-0.05049025,-0.05785572,0.00002508,-0.01573554,-0.00254050,-0
 .00241235,-0.01573950,-0.00254005,0.00243261,0.04953911,0.05925692,0.0
 0000332,0.00000348,-0.00107572,0.00015517,0.00002234,-0.04904387,0.025
 00030,0.00254666,0.00200819,-0.02498436,-0.00254326,0.00203816,-0.0001
 7135,-0.00002879,0.04521927,-0.17639627,-0.27671926,0.00008222,0.01503
 021,0.00878945,0.00000551,-0.00009216,0.00375702,-0.00042510,-0.000094
 17,0.00376177,0.00042257,0.00376638,-0.00157932,-0.00000184,0.20110155
 ,-0.23084130,-0.76144607,0.00019008,-0.01522079,-0.05173640,0.00001981
 ,0.00155065,-0.00225697,-0.00189283,0.00155192,-0.00225474,0.00189022,
 -0.00115747,0.00241667,-0.00000110,0.29555699,0.82325256,0.00007191,0.
 00020633,-0.05963960,0.00001229,0.00000134,0.02695063,0.00242340,-0.00
 381614,-0.00122078,-0.00242592,0.00381106,-0.00121928,-0.00000258,0.00
 000131,-0.00077657,-0.00009188,-0.00021055,0.02405466,-0.04011358,0.04
 173666,-0.00000150,-0.02498556,-0.00465710,0.00000220,-0.00202725,0.00
 069131,-0.00033154,-0.00202892,0.00068976,0.00033164,-0.00145586,0.004
 54834,-0.00000126,-0.04331554,-0.05143998,0.00001278,0.11392670,0.0084
 0088,-0.02378121,-0.00000372,0.01445546,0.00276935,-0.00000425,0.00013
 551,0.00099172,-0.00058982,0.00013813,0.00099349,0.00059157,0.00200568
 ,-0.00166898,0.00000067,-0.03356665,-0.00797506,0.00000665,0.00843099,
 0.02867070,-0.00000424,0.00000089,-0.02887716,0.00000356,-0.00000507,0
 .00749727,0.00052033,-0.00156424,0.00060034,-0.00051696,0.00156428,0.0
 0060133,0.00000112,0.00000087,0.00163053,0.00000852,0.00000437,0.01185
 093,-0.00001232,-0.00000109,0.00669676\\-0.00018360,-0.00005060,0.0000
 6493,0.00042257,-0.00035004,-0.00002469,-0.00007154,0.00009826,-0.0000
 8775,-0.00006659,0.00008725,0.00008809,-0.00014466,0.00009017,-0.00000
 156,0.00003405,0.00001601,-0.00002512,0.00000978,0.00010895,-0.0000139
 0\\\@


 THE MOST BEAUTIFUL EXPERIENCE WE CAN HAVE IS THE MYSTERIOUS.
 IT IS THE FUNDAMENTAL EMOTION WHICH STANDS AT AT THE CRADLE 
 OF TRUE ART AND TRUE SCIENCE.

                                    -- ALBERT EINSTEIN
 Job cpu time:       0 days  1 hours  0 minutes 25.7 seconds.
 File lengths (MBytes):  RWF=     55 Int=      0 D2E=      0 Chk=      6 Scr=      1
 Normal termination of Gaussian 09 at Tue Mar 24 10:07:06 2015.
