 Entering Link 1 = C:\G09W\l1.exe PID=       268.
  
 Copyright (c) 1988,1990,1992,1993,1995,1998,2003,2009, Gaussian, Inc.
                  All Rights Reserved.
  
 This is part of the Gaussian(R) 09 program.  It is based on
 the Gaussian(R) 03 system (copyright 2003, Gaussian, Inc.),
 the Gaussian(R) 98 system (copyright 1998, Gaussian, Inc.),
 the Gaussian(R) 94 system (copyright 1995, Gaussian, Inc.),
 the Gaussian 92(TM) system (copyright 1992, Gaussian, Inc.),
 the Gaussian 90(TM) system (copyright 1990, Gaussian, Inc.),
 the Gaussian 88(TM) system (copyright 1988, Gaussian, Inc.),
 the Gaussian 86(TM) system (copyright 1986, Carnegie Mellon
 University), and the Gaussian 82(TM) system (copyright 1983,
 Carnegie Mellon University). Gaussian is a federally registered
 trademark of Gaussian, Inc.
  
 This software contains proprietary and confidential information,
 including trade secrets, belonging to Gaussian, Inc.
  
 This software is provided under written license and may be
 used, copied, transmitted, or stored only in accord with that
 written license.
  
 The following legend is applicable only to US Government
 contracts under FAR:
  
                    RESTRICTED RIGHTS LEGEND
  
 Use, reproduction and disclosure by the US Government is
 subject to restrictions as set forth in subparagraphs (a)
 and (c) of the Commercial Computer Software - Restricted
 Rights clause in FAR 52.227-19.
  
 Gaussian, Inc.
 340 Quinnipiac St., Bldg. 40, Wallingford CT 06492
  
  
 ---------------------------------------------------------------
 Warning -- This program may not be used in any manner that
 competes with the business of Gaussian, Inc. or will provide
 assistance to any competitor of Gaussian, Inc.  The licensee
 of this program is prohibited from giving any competitor of
 Gaussian, Inc. access to this program.  By using this program,
 the user acknowledges that Gaussian, Inc. is engaged in the
 business of creating and licensing software in the field of
 computational chemistry and represents and warrants to the
 licensee that it is not a competitor of Gaussian, Inc. and that
 it will not use this program in any manner prohibited above.
 ---------------------------------------------------------------
  

 Cite this work as:
 Gaussian 09, Revision A.02,
 M. J. Frisch, G. W. Trucks, H. B. Schlegel, G. E. Scuseria, 
 M. A. Robb, J. R. Cheeseman, G. Scalmani, V. Barone, B. Mennucci, 
 G. A. Petersson, H. Nakatsuji, M. Caricato, X. Li, H. P. Hratchian, 
 A. F. Izmaylov, J. Bloino, G. Zheng, J. L. Sonnenberg, M. Hada, 
 M. Ehara, K. Toyota, R. Fukuda, J. Hasegawa, M. Ishida, T. Nakajima, 
 Y. Honda, O. Kitao, H. Nakai, T. Vreven, J. A. Montgomery, Jr., 
 J. E. Peralta, F. Ogliaro, M. Bearpark, J. J. Heyd, E. Brothers, 
 K. N. Kudin, V. N. Staroverov, R. Kobayashi, J. Normand, 
 K. Raghavachari, A. Rendell, J. C. Burant, S. S. Iyengar, J. Tomasi, 
 M. Cossi, N. Rega, J. M. Millam, M. Klene, J. E. Knox, J. B. Cross, 
 V. Bakken, C. Adamo, J. Jaramillo, R. Gomperts, R. E. Stratmann, 
 O. Yazyev, A. J. Austin, R. Cammi, C. Pomelli, J. W. Ochterski, 
 R. L. Martin, K. Morokuma, V. G. Zakrzewski, G. A. Voth, 
 P. Salvador, J. J. Dannenberg, S. Dapprich, A. D. Daniels, 
 O. Farkas, J. B. Foresman, J. V. Ortiz, J. Cioslowski, 
 and D. J. Fox, Gaussian, Inc., Wallingford CT, 2009.
 
 ******************************************
 Gaussian 09:  IA32W-G09RevA.02 11-Jun-2009
                25-Feb-2015 
 ******************************************
 %chk=C:\Users\214584429\Dropbox\Ester(COOH)\claclan.chk
 ----------------------------------------------------------
 # opt freq b3lyp/gen geom=connectivity pseudo=read gfinput
 ----------------------------------------------------------
 1/14=-1,18=20,19=15,26=3,38=1,57=2/1,3;
 2/9=110,12=2,17=6,18=5,40=1/2;
 3/5=7,11=2,16=1,17=8,24=10,25=1,30=1,71=1,74=-5/1,2,3;
 4//1;
 5/5=2,38=5/2;
 6/7=2,8=2,9=2,10=2,28=1/1;
 7//1,2,3,16;
 1/14=-1,18=20,19=15/3(2);
 2/9=110/2;
 99//99;
 2/9=110/2;
 3/5=7,6=1,11=2,16=1,17=8,25=1,30=1,71=1,74=-5,82=7/1,2,3;
 4/5=5,16=3/1;
 5/5=2,38=5/2;
 7//1,2,3,16;
 1/14=-1,18=20,19=15/3(-5);
 2/9=110/2;
 6/7=2,8=2,9=2,10=2,19=2,28=1/1;
 99/9=1/99;
 ----------------------
 gen calculation ClAc-C H O=6-31+g(d)/Cl=LANL2DZ
 ----------------------
 Symbolic Z-matrix:
 Charge =  0 Multiplicity = 1
 C                     1.28806  -0.99417  -0.00001 
 H                     1.07567  -1.62374   0.88232 
 H                     2.36877  -0.77322  -0.00069 
 H                     1.07462  -1.6245   -0.88156 
 C                     0.47813   0.24402   0. 
 O                     0.81931   1.38314  0. 
 Cl                   -1.27475  -0.14958   0. 
 

 GradGradGradGradGradGradGradGradGradGradGradGradGradGradGradGradGradGrad
 Berny optimization.
 Initialization pass.
                           ----------------------------
                           !    Initial Parameters    !
                           ! (Angstroms and Degrees)  !
 --------------------------                            --------------------------
 ! Name  Definition              Value          Derivative Info.                !
 --------------------------------------------------------------------------------
 ! R1    R(1,2)                  1.1045         estimate D2E/DX2                !
 ! R2    R(1,3)                  1.1031         estimate D2E/DX2                !
 ! R3    R(1,4)                  1.1045         estimate D2E/DX2                !
 ! R4    R(1,5)                  1.4796         estimate D2E/DX2                !
 ! R5    R(5,6)                  1.1891         estimate D2E/DX2                !
 ! R6    R(5,7)                  1.7965         estimate D2E/DX2                !
 ! A1    A(2,1,3)              107.6416         estimate D2E/DX2                !
 ! A2    A(2,1,4)              105.9691         estimate D2E/DX2                !
 ! A3    A(2,1,5)              111.8226         estimate D2E/DX2                !
 ! A4    A(3,1,4)              107.6459         estimate D2E/DX2                !
 ! A5    A(3,1,5)              111.6354         estimate D2E/DX2                !
 ! A6    A(4,1,5)              111.8267         estimate D2E/DX2                !
 ! A7    A(1,5,6)              130.137          estimate D2E/DX2                !
 ! A8    A(1,5,7)              110.5346         estimate D2E/DX2                !
 ! A9    A(6,5,7)              119.3285         estimate D2E/DX2                !
 ! D1    D(2,1,5,6)            120.6281         estimate D2E/DX2                !
 ! D2    D(2,1,5,7)            -59.3725         estimate D2E/DX2                !
 ! D3    D(3,1,5,6)             -0.0375         estimate D2E/DX2                !
 ! D4    D(3,1,5,7)            179.9619         estimate D2E/DX2                !
 ! D5    D(4,1,5,6)           -120.7114         estimate D2E/DX2                !
 ! D6    D(4,1,5,7)             59.288          estimate D2E/DX2                !
 --------------------------------------------------------------------------------
 Trust Radius=3.00D-01 FncErr=1.00D-07 GrdErr=1.00D-06
 Number of steps in this run=  31 maximum allowed number of steps= 100.
 GradGradGradGradGradGradGradGradGradGradGradGradGradGradGradGradGradGrad

                          Input orientation:                          
 ---------------------------------------------------------------------
 Center     Atomic      Atomic             Coordinates (Angstroms)
 Number     Number       Type             X           Y           Z
 ---------------------------------------------------------------------
      1          6           0        1.288062   -0.994165   -0.000010
      2          1           0        1.075666   -1.623738    0.882319
      3          1           0        2.368774   -0.773222   -0.000692
      4          1           0        1.074625   -1.624495   -0.881557
      5          6           0        0.478133    0.244015    0.000000
      6          8           0        0.819307    1.383143   -0.000002
      7         17           0       -1.274747   -0.149576    0.000000
 ---------------------------------------------------------------------
                    Distance matrix (angstroms):
                    1          2          3          4          5
     1  C    0.000000
     2  H    1.104526   0.000000
     3  H    1.103066   1.781913   0.000000
     4  H    1.104534   1.763876   1.781968   0.000000
     5  C    1.479552   2.150357   2.146927   2.150413   0.000000
     6  O    2.423082   3.144128   2.655326   3.144553   1.189122
     7  Cl   2.698392   2.911371   3.696509   2.910683   1.796525
                    6          7
     6  O    0.000000
     7  Cl   2.595051   0.000000
 Stoichiometry    C2H3ClO
 Framework group  C1[X(C2H3ClO)]
 Deg. of freedom    15
 Full point group                 C1      NOp   1
 Largest Abelian subgroup         C1      NOp   1
 Largest concise Abelian subgroup C1      NOp   1
                         Standard orientation:                         
 ---------------------------------------------------------------------
 Center     Atomic      Atomic             Coordinates (Angstroms)
 Number     Number       Type             X           Y           Z
 ---------------------------------------------------------------------
      1          6           0        1.288062   -0.994165   -0.000010
      2          1           0        1.075666   -1.623738    0.882319
      3          1           0        2.368774   -0.773223   -0.000692
      4          1           0        1.074625   -1.624495   -0.881557
      5          6           0        0.478133    0.244015    0.000000
      6          8           0        0.819308    1.383143   -0.000002
      7         17           0       -1.274747   -0.149575    0.000000
 ---------------------------------------------------------------------
 Rotational constants (GHZ):      9.9919059      5.0526701      3.4271023
 General basis read from cards:  (5D, 7F)
 AO basis set in the form of general basis input (Overlap normalization):
      1 0
 S   6 1.00       0.000000000000
      0.3047524880D+04  0.1834737132D-02
      0.4573695180D+03  0.1403732281D-01
      0.1039486850D+03  0.6884262226D-01
      0.2921015530D+02  0.2321844432D+00
      0.9286662960D+01  0.4679413484D+00
      0.3163926960D+01  0.3623119853D+00
 SP   3 1.00       0.000000000000
      0.7868272350D+01 -0.1193324198D+00  0.6899906659D-01
      0.1881288540D+01 -0.1608541517D+00  0.3164239610D+00
      0.5442492580D+00  0.1143456438D+01  0.7443082909D+00
 SP   1 1.00       0.000000000000
      0.1687144782D+00  0.1000000000D+01  0.1000000000D+01
 SP   1 1.00       0.000000000000
      0.4380000000D-01  0.1000000000D+01  0.1000000000D+01
 D   1 1.00       0.000000000000
      0.8000000000D+00  0.1000000000D+01
 ****
      2 0
 S   3 1.00       0.000000000000
      0.1873113696D+02  0.3349460434D-01
      0.2825394365D+01  0.2347269535D+00
      0.6401216923D+00  0.8137573261D+00
 S   1 1.00       0.000000000000
      0.1612777588D+00  0.1000000000D+01
 ****
      3 0
 S   3 1.00       0.000000000000
      0.1873113696D+02  0.3349460434D-01
      0.2825394365D+01  0.2347269535D+00
      0.6401216923D+00  0.8137573261D+00
 S   1 1.00       0.000000000000
      0.1612777588D+00  0.1000000000D+01
 ****
      4 0
 S   3 1.00       0.000000000000
      0.1873113696D+02  0.3349460434D-01
      0.2825394365D+01  0.2347269535D+00
      0.6401216923D+00  0.8137573261D+00
 S   1 1.00       0.000000000000
      0.1612777588D+00  0.1000000000D+01
 ****
      5 0
 S   6 1.00       0.000000000000
      0.3047524880D+04  0.1834737132D-02
      0.4573695180D+03  0.1403732281D-01
      0.1039486850D+03  0.6884262226D-01
      0.2921015530D+02  0.2321844432D+00
      0.9286662960D+01  0.4679413484D+00
      0.3163926960D+01  0.3623119853D+00
 SP   3 1.00       0.000000000000
      0.7868272350D+01 -0.1193324198D+00  0.6899906659D-01
      0.1881288540D+01 -0.1608541517D+00  0.3164239610D+00
      0.5442492580D+00  0.1143456438D+01  0.7443082909D+00
 SP   1 1.00       0.000000000000
      0.1687144782D+00  0.1000000000D+01  0.1000000000D+01
 SP   1 1.00       0.000000000000
      0.4380000000D-01  0.1000000000D+01  0.1000000000D+01
 D   1 1.00       0.000000000000
      0.8000000000D+00  0.1000000000D+01
 ****
      6 0
 S   6 1.00       0.000000000000
      0.5484671660D+04  0.1831074430D-02
      0.8252349460D+03  0.1395017220D-01
      0.1880469580D+03  0.6844507810D-01
      0.5296450000D+02  0.2327143360D+00
      0.1689757040D+02  0.4701928980D+00
      0.5799635340D+01  0.3585208530D+00
 SP   3 1.00       0.000000000000
      0.1553961625D+02 -0.1107775495D+00  0.7087426823D-01
      0.3599933586D+01 -0.1480262627D+00  0.3397528391D+00
      0.1013761750D+01  0.1130767015D+01  0.7271585773D+00
 SP   1 1.00       0.000000000000
      0.2700058226D+00  0.1000000000D+01  0.1000000000D+01
 SP   1 1.00       0.000000000000
      0.8450000000D-01  0.1000000000D+01  0.1000000000D+01
 D   1 1.00       0.000000000000
      0.8000000000D+00  0.1000000000D+01
 ****
      7 0
 S   2 1.00       0.000000000000
      0.2231000000D+01 -0.4900589089D+00
      0.4720000000D+00  0.1254268423D+01
 S   1 1.00       0.000000000000
      0.1631000000D+00  0.1000000000D+01
 P   2 1.00       0.000000000000
      0.6296000000D+01 -0.6356409792D-01
      0.6333000000D+00  0.1014135467D+01
 P   1 1.00       0.000000000000
      0.1819000000D+00  0.1000000000D+01
 ****

 ======================================================================================================
                                       Pseudopotential Parameters
 ======================================================================================================
  Center     Atomic      Valence      Angular      Power
  Number     Number     Electrons     Momentum     of R      Exponent        Coefficient   SO-Coeffient
 ======================================================================================================
    1          6
                                   No pseudopotential on this center.
    2          1
                                   No pseudopotential on this center.
    3          1
                                   No pseudopotential on this center.
    4          1
                                   No pseudopotential on this center.
    5          6
                                   No pseudopotential on this center.
    6          8
                                   No pseudopotential on this center.
    7         17            7
                                      D and up 
                                                     1       94.8130000      -10.00000000    0.00000000
                                                     2      165.6440000       66.27291700    0.00000000
                                                     2       30.8317000      -28.96859500    0.00000000
                                                     2       10.5841000      -12.86633700    0.00000000
                                                     2        3.7704000       -1.71021700    0.00000000
                                      S - D
                                                     0      128.8391000        3.00000000    0.00000000
                                                     1      120.3786000       12.85285100    0.00000000
                                                     2       63.5622000      275.67239800    0.00000000
                                                     2       18.0695000      115.67771200    0.00000000
                                                     2        3.8142000       35.06060900    0.00000000
                                      P - D
                                                     0      216.5263000        5.00000000    0.00000000
                                                     1       46.5723000        7.47948600    0.00000000
                                                     2      147.4685000      613.03200000    0.00000000
                                                     2       48.9869000      280.80068500    0.00000000
                                                     2       13.2096000      107.87882400    0.00000000
                                                     2        3.1831000       15.34395600    0.00000000
 ======================================================================================================
 There are    68 symmetry adapted basis functions of A   symmetry.
 Integral buffers will be    262144 words long.
 Raffenetti 2 integral format.
 Two-electron integral symmetry is turned on.
    68 basis functions,   120 primitive gaussians,    71 cartesian basis functions
    15 alpha electrons       15 beta electrons
       nuclear repulsion energy        98.5340240079 Hartrees.
 NAtoms=    7 NActive=    7 NUniq=    7 SFac= 7.50D-01 NAtFMM=   80 NAOKFM=F Big=F
 One-electron integrals computed using PRISM.
   1 Symmetry operations used in ECPInt.
 ECPInt:  NShTT=     325 NPrTT=    1550 LenC2=     326 LenP2D=    1339.
 LDataN:  DoStor=T MaxTD1= 4 Len=   56
 NBasis=    68 RedAO= T  NBF=    68
 NBsUse=    68 1.00D-06 NBFU=    68
 Harris functional with IExCor=  402 diagonalized for initial guess.
 ExpMin= 4.38D-02 ExpMax= 5.48D+03 ExpMxC= 8.25D+02 IAcc=2 IRadAn=         0 AccDes= 0.00D+00
 HarFok:  IExCor=  402 AccDes= 0.00D+00 IRadAn=         0 IDoV= 1
 ScaDFX=  1.000000  1.000000  1.000000  1.000000
 FoFCou: FMM=F IPFlag=           0 FMFlag=      100000 FMFlg1=           0
         NFxFlg=           0 DoJE=T BraDBF=F KetDBF=T FulRan=T
         Omega=  0.000000  0.000000  1.000000  0.000000  0.000000 ICntrl=     500 IOpCl=  0
         NMat0=    1 NMatS0=    1 NMatT0=    0 NMatD0=    1 NMtDS0=    0 NMtDT0=    0
         I1Cent=           4 NGrid=           0.
 Petite list used in FoFCou.
 Initial guess orbital symmetries:
       Occupied  (A) (A) (A) (A) (A) (A) (A) (A) (A) (A) (A) (A)
                 (A) (A) (A)
       Virtual   (A) (A) (A) (A) (A) (A) (A) (A) (A) (A) (A) (A)
                 (A) (A) (A) (A) (A) (A) (A) (A) (A) (A) (A) (A)
                 (A) (A) (A) (A) (A) (A) (A) (A) (A) (A) (A) (A)
                 (A) (A) (A) (A) (A) (A) (A) (A) (A) (A) (A) (A)
                 (A) (A) (A) (A) (A)
 The electronic state of the initial guess is 1-A.
 Requested convergence on RMS density matrix=1.00D-08 within 128 cycles.
 Requested convergence on MAX density matrix=1.00D-06.
 Requested convergence on             energy=1.00D-06.
 No special actions if energy rises.
 Keep R1 ints in memory in canonical form, NReq=4245630.
 SCF Done:  E(RB3LYP) =  -168.199437601     A.U. after   11 cycles
             Convg  =    0.6815D-08             -V/T =  2.0654

 **********************************************************************

            Population analysis using the SCF density.

 **********************************************************************

 Orbital symmetries:
       Occupied  (A) (A) (A) (A) (A) (A) (A) (A) (A) (A) (A) (A)
                 (A) (A) (A)
       Virtual   (A) (A) (A) (A) (A) (A) (A) (A) (A) (A) (A) (A)
                 (A) (A) (A) (A) (A) (A) (A) (A) (A) (A) (A) (A)
                 (A) (A) (A) (A) (A) (A) (A) (A) (A) (A) (A) (A)
                 (A) (A) (A) (A) (A) (A) (A) (A) (A) (A) (A) (A)
                 (A) (A) (A) (A) (A)
 The electronic state is 1-A.
 Alpha  occ. eigenvalues --  -19.19913 -10.35455 -10.22790  -1.11256  -0.86802
 Alpha  occ. eigenvalues --   -0.77729  -0.57692  -0.50497  -0.49191  -0.49034
 Alpha  occ. eigenvalues --   -0.42895  -0.41264  -0.33626  -0.33341  -0.31149
 Alpha virt. eigenvalues --   -0.05395  -0.00426   0.02387   0.03718   0.04536
 Alpha virt. eigenvalues --    0.05382   0.08314   0.08867   0.08891   0.12728
 Alpha virt. eigenvalues --    0.15799   0.16289   0.22503   0.24469   0.24797
 Alpha virt. eigenvalues --    0.26888   0.28204   0.29903   0.43610   0.59962
 Alpha virt. eigenvalues --    0.61150   0.62217   0.66074   0.70173   0.73583
 Alpha virt. eigenvalues --    0.75597   0.77483   0.83490   0.88312   0.95914
 Alpha virt. eigenvalues --    1.02408   1.07090   1.19008   1.20190   1.25169
 Alpha virt. eigenvalues --    1.31401   1.36983   1.49374   1.57578   1.67128
 Alpha virt. eigenvalues --    1.73689   1.78019   1.82442   2.00707   2.02788
 Alpha virt. eigenvalues --    2.13416   2.28937   2.36229   2.52871   2.57684
 Alpha virt. eigenvalues --    2.84287   3.07719   8.80299
          Condensed to atoms (all electrons):
              1          2          3          4          5          6
     1  C    5.839793   0.375072   0.347052   0.375139   0.125363  -0.107004
     2  H    0.375072   0.460278  -0.023971  -0.023145  -0.037773   0.000793
     3  H    0.347052  -0.023971   0.468346  -0.023976  -0.007901  -0.003913
     4  H    0.375139  -0.023145  -0.023976   0.460295  -0.037846   0.000810
     5  C    0.125363  -0.037773  -0.007901  -0.037846   4.904255   0.395820
     6  O   -0.107004   0.000793  -0.003913   0.000810   0.395820   8.110698
     7  Cl  -0.110711  -0.001606   0.003612  -0.001606   0.343015  -0.129940
              7
     1  C   -0.110711
     2  H   -0.001606
     3  H    0.003612
     4  H   -0.001606
     5  C    0.343015
     6  O   -0.129940
     7  Cl   6.841768
 Mulliken atomic charges:
              1
     1  C   -0.844704
     2  H    0.250352
     3  H    0.240751
     4  H    0.250330
     5  C    0.315067
     6  O   -0.267264
     7  Cl   0.055467
 Sum of Mulliken atomic charges =   0.00000
 Mulliken charges with hydrogens summed into heavy atoms:
              1
     1  C   -0.103271
     5  C    0.315067
     6  O   -0.267264
     7  Cl   0.055467
 Sum of Mulliken charges with hydrogens summed into heavy atoms =   0.00000
 Electronic spatial extent (au):  <R**2>=            300.1321
 Charge=              0.0000 electrons
 Dipole moment (field-independent basis, Debye):
    X=              1.6919    Y=             -2.7023    Z=              0.0001  Tot=              3.1882
 Quadrupole moment (field-independent basis, Debye-Ang):
   XX=            -29.9112   YY=            -31.7570   ZZ=            -28.9854
   XY=             -3.0523   XZ=              0.0003   YZ=             -0.0002
 Traceless Quadrupole moment (field-independent basis, Debye-Ang):
   XX=              0.3066   YY=             -1.5391   ZZ=              1.2325
   XY=             -3.0523   XZ=              0.0003   YZ=             -0.0002
 Octapole moment (field-independent basis, Debye-Ang**2):
  XXX=             -2.0173  YYY=             -4.1624  ZZZ=              0.0018  XYY=             -2.2379
  XXY=             -2.9106  XXZ=             -0.0007  XZZ=             -0.5768  YZZ=             -0.0342
  YYZ=             -0.0005  XYZ=             -0.0010
 Hexadecapole moment (field-independent basis, Debye-Ang**3):
 XXXX=           -246.8508 YYYY=           -159.5837 ZZZZ=            -37.6016 XXXY=              1.1049
 XXXZ=             -0.0042 YYYX=             -1.6245 YYYZ=              0.0022 ZZZX=              0.0029
 ZZZY=             -0.0026 XXYY=            -71.6541 XXZZ=            -50.9093 YYZZ=            -29.5857
 XXYZ=             -0.0013 YYXZ=              0.0018 ZZXY=              0.5169
 N-N= 9.853402400792D+01 E-N=-5.848833332162D+02  KE= 1.578786686223D+02
   1 Symmetry operations used in ECPInt.
 ECPInt:  NShTT=     325 NPrTT=    1550 LenC2=     326 LenP2D=    1339.
 LDataN:  DoStor=T MaxTD1= 5 Len=  102
 Calling FoFJK, ICntrl=      2127 FMM=F ISym2X=0 I1Cent= 0 IOpClX= 0 NMat=1 NMatS=1 NMatT=0.
 ***** Axes restored to original set *****
 -------------------------------------------------------------------
 Center     Atomic                   Forces (Hartrees/Bohr)
 Number     Number              X              Y              Z
 -------------------------------------------------------------------
      1        6           0.022744199   -0.020208482   -0.000009583
      2        1          -0.002477711    0.005751039   -0.003701203
      3        1          -0.006414203    0.003366678    0.000003361
      4        1          -0.002467567    0.005761739    0.003708495
      5        6           0.007483317    0.008364609   -0.000006508
      6        8           0.006204173    0.001070788    0.000001891
      7       17          -0.025072208   -0.004106371    0.000003547
 -------------------------------------------------------------------
 Cartesian Forces:  Max     0.025072208 RMS     0.009499857

 GradGradGradGradGradGradGradGradGradGradGradGradGradGradGradGradGradGrad
 Berny optimization.
 Internal  Forces:  Max     0.025368562 RMS     0.007394320
 Search for a local minimum.
 Step number   1 out of a maximum of   31
 All quantities printed in internal units (Hartrees-Bohrs-Radians)
 Mixed Optimization -- RFO/linear search
 Second derivative matrix not updated -- first step.
     Eigenvalues ---    0.01036   0.01036   0.07209   0.07279   0.16000
     Eigenvalues ---    0.16000   0.16000   0.25000   0.25000   0.26392
     Eigenvalues ---    0.33186   0.33186   0.33345   0.34621   1.10484
     Eigenvalues --- 1000.000001000.000001000.000001000.000001000.00000
     Eigenvalues --- 1000.00000
 RFO step:  Lambda=-4.40872810D-03 EMin= 1.03643270D-02
 Linear search not attempted -- first point.
 Iteration  1 RMS(Cart)=  0.03217227 RMS(Int)=  0.00048607
 Iteration  2 RMS(Cart)=  0.00046499 RMS(Int)=  0.00018891
 Iteration  3 RMS(Cart)=  0.00000009 RMS(Int)=  0.00018891
 Variable       Old X    -DE/DX   Delta X   Delta X   Delta X     New X
                                 (Linear)    (Quad)   (Total)
    R1        2.08725  -0.00576   0.00000  -0.01713  -0.01713   2.07012
    R2        2.08449  -0.00561   0.00000  -0.01659  -0.01659   2.06790
    R3        2.08727  -0.00577   0.00000  -0.01717  -0.01717   2.07010
    R4        2.79595   0.01069   0.00000   0.03049   0.03049   2.82643
    R5        2.24712   0.00280   0.00000   0.00253   0.00253   2.24964
    R6        3.39494   0.02537   0.00000   0.09454   0.09454   3.48948
    A1        1.87870   0.00498   0.00000   0.03229   0.03205   1.91075
    A2        1.84951   0.00382   0.00000   0.01913   0.01864   1.86815
    A3        1.95167  -0.00431   0.00000  -0.02731  -0.02768   1.92399
    A4        1.87878   0.00498   0.00000   0.03229   0.03205   1.91082
    A5        1.94841  -0.00414   0.00000  -0.02299  -0.02324   1.92516
    A6        1.95174  -0.00431   0.00000  -0.02729  -0.02766   1.92408
    A7        2.27132  -0.01009   0.00000  -0.03966  -0.03966   2.23166
    A8        1.92919   0.00754   0.00000   0.02965   0.02965   1.95884
    A9        2.08267   0.00255   0.00000   0.01001   0.01001   2.09268
    D1        2.10536   0.00048   0.00000   0.00620   0.00609   2.11145
    D2       -1.03625   0.00049   0.00000   0.00653   0.00642  -1.02982
    D3       -0.00065   0.00000   0.00000  -0.00007  -0.00007  -0.00073
    D4        3.14093   0.00000   0.00000   0.00026   0.00026   3.14118
    D5       -2.10681  -0.00049   0.00000  -0.00635  -0.00624  -2.11305
    D6        1.03477  -0.00048   0.00000  -0.00602  -0.00591   1.02886
         Item               Value     Threshold  Converged?
 Maximum Force            0.025369     0.000450     NO 
 RMS     Force            0.007394     0.000300     NO 
 Maximum Displacement     0.111259     0.001800     NO 
 RMS     Displacement     0.032233     0.001200     NO 
 Predicted change in Energy=-2.243415D-03
 GradGradGradGradGradGradGradGradGradGradGradGradGradGradGradGradGradGrad

                          Input orientation:                          
 ---------------------------------------------------------------------
 Center     Atomic      Atomic             Coordinates (Angstroms)
 Number     Number       Type             X           Y           Z
 ---------------------------------------------------------------------
      1          6           0        1.308444   -1.008428   -0.000039
      2          1           0        1.080167   -1.617884    0.881146
      3          1           0        2.372226   -0.751856   -0.000616
      4          1           0        1.079329   -1.618664   -0.880450
      5          6           0        0.475020    0.233537   -0.000115
      6          8           0        0.848257    1.363974   -0.000014
      7         17           0       -1.333623   -0.138717    0.000145
 ---------------------------------------------------------------------
                    Distance matrix (angstroms):
                    1          2          3          4          5
     1  C    0.000000
     2  H    1.095461   0.000000
     3  H    1.094286   1.787995   0.000000
     4  H    1.095449   1.761597   1.788030   0.000000
     5  C    1.495684   2.137893   2.137847   2.137950   0.000000
     6  O    2.416622   3.117965   2.607531   3.118444   1.190459
     7  Cl   2.781531   2.964875   3.756229   2.964461   1.846554
                    6          7
     6  O    0.000000
     7  Cl   2.649279   0.000000
 Stoichiometry    C2H3ClO
 Framework group  C1[X(C2H3ClO)]
 Deg. of freedom    15
 Full point group                 C1      NOp   1
 Largest Abelian subgroup         C1      NOp   1
 Largest concise Abelian subgroup C1      NOp   1
                         Standard orientation:                         
 ---------------------------------------------------------------------
 Center     Atomic      Atomic             Coordinates (Angstroms)
 Number     Number       Type             X           Y           Z
 ---------------------------------------------------------------------
      1          6           0        1.329403   -1.000195   -0.000076
      2          1           0        1.103943   -1.610700    0.881108
      3          1           0        2.391989   -0.738714   -0.000653
      4          1           0        1.103108   -1.611484   -0.880488
      5          6           0        0.490252    0.237907   -0.000153
      6          8           0        0.858265    1.370056   -0.000052
      7         17           0       -1.316652   -0.142695    0.000107
 ---------------------------------------------------------------------
 Rotational constants (GHZ):     10.1093871      4.7483685      3.2967593
 Basis read from rwf:  (5D, 7F)
 Pseudo-potential data read from rwf file.
 There are    68 symmetry adapted basis functions of A   symmetry.
 Integral buffers will be    262144 words long.
 Raffenetti 2 integral format.
 Two-electron integral symmetry is turned on.
    68 basis functions,   120 primitive gaussians,    71 cartesian basis functions
    15 alpha electrons       15 beta electrons
       nuclear repulsion energy        97.6664816071 Hartrees.
 NAtoms=    7 NActive=    7 NUniq=    7 SFac= 7.50D-01 NAtFMM=   80 NAOKFM=F Big=F
 One-electron integrals computed using PRISM.
   1 Symmetry operations used in ECPInt.
 ECPInt:  NShTT=     325 NPrTT=    1550 LenC2=     326 LenP2D=    1337.
 LDataN:  DoStor=T MaxTD1= 4 Len=   56
 NBasis=    68 RedAO= T  NBF=    68
 NBsUse=    68 1.00D-06 NBFU=    68
 Initial guess read from the read-write file.
 B after Tr=     0.000000    0.000000    0.000000
         Rot=    1.000000    0.000000    0.000000    0.000000 Ang=   0.00 deg.
 Initial guess orbital symmetries:
       Occupied  (A) (A) (A) (A) (A) (A) (A) (A) (A) (A) (A) (A)
                 (A) (A) (A)
       Virtual   (A) (A) (A) (A) (A) (A) (A) (A) (A) (A) (A) (A)
                 (A) (A) (A) (A) (A) (A) (A) (A) (A) (A) (A) (A)
                 (A) (A) (A) (A) (A) (A) (A) (A) (A) (A) (A) (A)
                 (A) (A) (A) (A) (A) (A) (A) (A) (A) (A) (A) (A)
                 (A) (A) (A) (A) (A)
 Harris functional with IExCor=  402 diagonalized for initial guess.
 ExpMin= 4.38D-02 ExpMax= 5.48D+03 ExpMxC= 8.25D+02 IAcc=2 IRadAn=         0 AccDes= 0.00D+00
 HarFok:  IExCor=  402 AccDes= 0.00D+00 IRadAn=         0 IDoV= 1
 ScaDFX=  1.000000  1.000000  1.000000  1.000000
 FoFCou: FMM=F IPFlag=           0 FMFlag=      100000 FMFlg1=           0
         NFxFlg=           0 DoJE=T BraDBF=F KetDBF=T FulRan=T
         Omega=  0.000000  0.000000  1.000000  0.000000  0.000000 ICntrl=     500 IOpCl=  0
         NMat0=    1 NMatS0=    1 NMatT0=    0 NMatD0=    1 NMtDS0=    0 NMtDT0=    0
         I1Cent=           4 NGrid=           0.
 Petite list used in FoFCou.
 Requested convergence on RMS density matrix=1.00D-08 within 128 cycles.
 Requested convergence on MAX density matrix=1.00D-06.
 Requested convergence on             energy=1.00D-06.
 No special actions if energy rises.
 Keep R1 ints in memory in canonical form, NReq=4245630.
 SCF Done:  E(RB3LYP) =  -168.202017508     A.U. after   11 cycles
             Convg  =    0.1973D-08             -V/T =  2.0658
   1 Symmetry operations used in ECPInt.
 ECPInt:  NShTT=     325 NPrTT=    1550 LenC2=     326 LenP2D=    1337.
 LDataN:  DoStor=T MaxTD1= 5 Len=  102
 Calling FoFJK, ICntrl=      2127 FMM=F ISym2X=0 I1Cent= 0 IOpClX= 0 NMat=1 NMatS=1 NMatT=0.
 ***** Axes restored to original set *****
 -------------------------------------------------------------------
 Center     Atomic                   Forces (Hartrees/Bohr)
 Number     Number              X              Y              Z
 -------------------------------------------------------------------
      1        6           0.003356542   -0.006573543   -0.000008700
      2        1          -0.001133965    0.000701840   -0.000005972
      3        1          -0.001704795    0.002182541   -0.000000444
      4        1          -0.001130351    0.000698356    0.000004646
      5        6           0.010168065    0.009349112    0.000027768
      6        8          -0.002955762   -0.004716176   -0.000012571
      7       17          -0.006599734   -0.001642132   -0.000004726
 -------------------------------------------------------------------
 Cartesian Forces:  Max     0.010168065 RMS     0.003986405

 GradGradGradGradGradGradGradGradGradGradGradGradGradGradGradGradGradGrad
 Berny optimization.
 Using GEDIIS/GDIIS optimizer.
 Internal  Forces:  Max     0.006800823 RMS     0.002300309
 Search for a local minimum.
 Step number   2 out of a maximum of   31
 All quantities printed in internal units (Hartrees-Bohrs-Radians)
 Mixed Optimization -- RFO/linear search
 Update second derivatives using D2CorX and points    1    2
 DE= -2.58D-03 DEPred=-2.24D-03 R= 1.15D+00
 SS=  1.41D+00  RLast= 1.34D-01 DXNew= 5.0454D-01 4.0154D-01
 Trust test= 1.15D+00 RLast= 1.34D-01 DXMaxT set to 4.02D-01
 Use linear search instead of GDIIS.
     Eigenvalues ---    0.01036   0.01036   0.07468   0.07603   0.13437
     Eigenvalues ---    0.16000   0.16109   0.22223   0.25000   0.28184
     Eigenvalues ---    0.33186   0.33256   0.33696   0.34411   1.12430
     Eigenvalues --- 1000.000001000.000001000.000001000.000001000.00000
     Eigenvalues --- 1000.00000
 RFO step:  Lambda=-3.52860107D-04 EMin= 1.03643238D-02
 Quartic linear search produced a step of  0.26353.
 Iteration  1 RMS(Cart)=  0.01034334 RMS(Int)=  0.00017218
 Iteration  2 RMS(Cart)=  0.00012935 RMS(Int)=  0.00011540
 Iteration  3 RMS(Cart)=  0.00000002 RMS(Int)=  0.00011540
 Variable       Old X    -DE/DX   Delta X   Delta X   Delta X     New X
                                 (Linear)    (Quad)   (Total)
    R1        2.07012  -0.00016  -0.00451   0.00236  -0.00215   2.06797
    R2        2.06790  -0.00114  -0.00437  -0.00143  -0.00581   2.06209
    R3        2.07010  -0.00016  -0.00452   0.00238  -0.00214   2.06795
    R4        2.82643   0.00214   0.00803   0.00248   0.01052   2.83695
    R5        2.24964  -0.00541   0.00067  -0.00664  -0.00598   2.24366
    R6        3.48948   0.00680   0.02491   0.01638   0.04129   3.53077
    A1        1.91075   0.00210   0.00845   0.01162   0.01985   1.93060
    A2        1.86815   0.00096   0.00491   0.00428   0.00898   1.87712
    A3        1.92399  -0.00097  -0.00729  -0.00328  -0.01078   1.91321
    A4        1.91082   0.00210   0.00844   0.01161   0.01983   1.93066
    A5        1.92516  -0.00304  -0.00613  -0.01998  -0.02632   1.89884
    A6        1.92408  -0.00097  -0.00729  -0.00322  -0.01072   1.91336
    A7        2.23166   0.00235  -0.01045   0.01860   0.00814   2.23980
    A8        1.95884  -0.00169   0.00781  -0.01354  -0.00572   1.95312
    A9        2.09268  -0.00067   0.00264  -0.00506  -0.00242   2.09026
    D1        2.11145   0.00001   0.00161   0.00018   0.00179   2.11324
    D2       -1.02982   0.00000   0.00169  -0.00132   0.00037  -1.02945
    D3       -0.00073   0.00001  -0.00002   0.00083   0.00081   0.00008
    D4        3.14118  -0.00001   0.00007  -0.00068  -0.00061   3.14058
    D5       -2.11305   0.00000  -0.00165   0.00146  -0.00018  -2.11324
    D6        1.02886  -0.00001  -0.00156  -0.00004  -0.00160   1.02726
         Item               Value     Threshold  Converged?
 Maximum Force            0.006801     0.000450     NO 
 RMS     Force            0.002300     0.000300     NO 
 Maximum Displacement     0.023636     0.001800     NO 
 RMS     Displacement     0.010371     0.001200     NO 
 Predicted change in Energy=-2.666102D-04
 GradGradGradGradGradGradGradGradGradGradGradGradGradGradGradGradGradGrad

                          Input orientation:                          
 ---------------------------------------------------------------------
 Center     Atomic      Atomic             Coordinates (Angstroms)
 Number     Number       Type             X           Y           Z
 ---------------------------------------------------------------------
      1          6           0        1.314971   -1.017177    0.000030
      2          1           0        1.075163   -1.617247    0.883177
      3          1           0        2.370223   -0.739349   -0.000731
      4          1           0        1.073979   -1.617790   -0.882415
      5          6           0        0.485381    0.234035    0.000336
      6          8           0        0.854702    1.362429   -0.000212
      7         17           0       -1.344598   -0.142939   -0.000127
 ---------------------------------------------------------------------
                    Distance matrix (angstroms):
                    1          2          3          4          5
     1  C    0.000000
     2  H    1.094323   0.000000
     3  H    1.091213   1.796992   0.000000
     4  H    1.094314   1.765593   1.797019   0.000000
     5  C    1.501250   2.134127   2.121346   2.134234   0.000000
     6  O    2.423710   3.115678   2.591191   3.115778   1.187295
     7  Cl   2.799571   2.968006   3.762393   2.967007   1.868404
                    6          7
     6  O    0.000000
     7  Cl   2.665155   0.000000
 Stoichiometry    C2H3ClO
 Framework group  C1[X(C2H3ClO)]
 Deg. of freedom    15
 Full point group                 C1      NOp   1
 Largest Abelian subgroup         C1      NOp   1
 Largest concise Abelian subgroup C1      NOp   1
                         Standard orientation:                         
 ---------------------------------------------------------------------
 Center     Atomic      Atomic             Coordinates (Angstroms)
 Number     Number       Type             X           Y           Z
 ---------------------------------------------------------------------
      1          6           0        1.332200   -1.012409    0.000071
      2          1           0        1.092245   -1.612421    0.883218
      3          1           0        2.387520   -0.734840   -0.000690
      4          1           0        1.091060   -1.612964   -0.882374
      5          6           0        0.502916    0.239006    0.000377
      6          8           0        0.872514    1.367309   -0.000171
      7         17           0       -1.327155   -0.137519   -0.000086
 ---------------------------------------------------------------------
 Rotational constants (GHZ):     10.0758639      4.6816524      3.2612561
 Basis read from rwf:  (5D, 7F)
 Pseudo-potential data read from rwf file.
 There are    68 symmetry adapted basis functions of A   symmetry.
 Integral buffers will be    262144 words long.
 Raffenetti 2 integral format.
 Two-electron integral symmetry is turned on.
    68 basis functions,   120 primitive gaussians,    71 cartesian basis functions
    15 alpha electrons       15 beta electrons
       nuclear repulsion energy        97.4222023950 Hartrees.
 NAtoms=    7 NActive=    7 NUniq=    7 SFac= 7.50D-01 NAtFMM=   80 NAOKFM=F Big=F
 One-electron integrals computed using PRISM.
   1 Symmetry operations used in ECPInt.
 ECPInt:  NShTT=     325 NPrTT=    1550 LenC2=     326 LenP2D=    1336.
 LDataN:  DoStor=T MaxTD1= 4 Len=   56
 NBasis=    68 RedAO= T  NBF=    68
 NBsUse=    68 1.00D-06 NBFU=    68
 Initial guess read from the read-write file.
 B after Tr=     0.000000    0.000000    0.000000
         Rot=    1.000000    0.000000    0.000000    0.000000 Ang=   0.00 deg.
 Initial guess orbital symmetries:
       Occupied  (A) (A) (A) (A) (A) (A) (A) (A) (A) (A) (A) (A)
                 (A) (A) (A)
       Virtual   (A) (A) (A) (A) (A) (A) (A) (A) (A) (A) (A) (A)
                 (A) (A) (A) (A) (A) (A) (A) (A) (A) (A) (A) (A)
                 (A) (A) (A) (A) (A) (A) (A) (A) (A) (A) (A) (A)
                 (A) (A) (A) (A) (A) (A) (A) (A) (A) (A) (A) (A)
                 (A) (A) (A) (A) (A)
 Harris functional with IExCor=  402 diagonalized for initial guess.
 ExpMin= 4.38D-02 ExpMax= 5.48D+03 ExpMxC= 8.25D+02 IAcc=2 IRadAn=         0 AccDes= 0.00D+00
 HarFok:  IExCor=  402 AccDes= 0.00D+00 IRadAn=         0 IDoV= 1
 ScaDFX=  1.000000  1.000000  1.000000  1.000000
 FoFCou: FMM=F IPFlag=           0 FMFlag=      100000 FMFlg1=           0
         NFxFlg=           0 DoJE=T BraDBF=F KetDBF=T FulRan=T
         Omega=  0.000000  0.000000  1.000000  0.000000  0.000000 ICntrl=     500 IOpCl=  0
         NMat0=    1 NMatS0=    1 NMatT0=    0 NMatD0=    1 NMtDS0=    0 NMtDT0=    0
         I1Cent=           4 NGrid=           0.
 Petite list used in FoFCou.
 Requested convergence on RMS density matrix=1.00D-08 within 128 cycles.
 Requested convergence on MAX density matrix=1.00D-06.
 Requested convergence on             energy=1.00D-06.
 No special actions if energy rises.
 Keep R1 ints in memory in canonical form, NReq=4245630.
 SCF Done:  E(RB3LYP) =  -168.202355383     A.U. after   10 cycles
             Convg  =    0.6086D-08             -V/T =  2.0658
   1 Symmetry operations used in ECPInt.
 ECPInt:  NShTT=     325 NPrTT=    1550 LenC2=     326 LenP2D=    1336.
 LDataN:  DoStor=T MaxTD1= 5 Len=  102
 Calling FoFJK, ICntrl=      2127 FMM=F ISym2X=0 I1Cent= 0 IOpClX= 0 NMat=1 NMatS=1 NMatT=0.
 ***** Axes restored to original set *****
 -------------------------------------------------------------------
 Center     Atomic                   Forces (Hartrees/Bohr)
 Number     Number              X              Y              Z
 -------------------------------------------------------------------
      1        6          -0.001969989   -0.000104131    0.000048264
      2        1           0.000086422   -0.000141919    0.000196009
      3        1           0.000808772   -0.000215963    0.000002817
      4        1           0.000076191   -0.000124021   -0.000197962
      5        6           0.005390863    0.004085994   -0.000127124
      6        8          -0.002193358   -0.002779412    0.000049808
      7       17          -0.002198901   -0.000720547    0.000028188
 -------------------------------------------------------------------
 Cartesian Forces:  Max     0.005390863 RMS     0.001804593

 GradGradGradGradGradGradGradGradGradGradGradGradGradGradGradGradGradGrad
 Berny optimization.
 Using GEDIIS/GDIIS optimizer.
 Internal  Forces:  Max     0.003327230 RMS     0.001090553
 Search for a local minimum.
 Step number   3 out of a maximum of   31
 All quantities printed in internal units (Hartrees-Bohrs-Radians)
 Mixed Optimization -- RFO/linear search
 Update second derivatives using D2CorX and points    1    2    3
 DE= -3.38D-04 DEPred=-2.67D-04 R= 1.27D+00
 SS=  1.41D+00  RLast= 6.16D-02 DXNew= 6.7531D-01 1.8489D-01
 Trust test= 1.27D+00 RLast= 6.16D-02 DXMaxT set to 4.02D-01
 Use linear search instead of GDIIS.
     Eigenvalues ---    0.01036   0.01037   0.07683   0.07707   0.11406
     Eigenvalues ---    0.16000   0.16305   0.19644   0.25000   0.28981
     Eigenvalues ---    0.33186   0.33481   0.33960   0.35613   1.10586
     Eigenvalues --- 1000.000001000.000001000.000001000.000001000.00000
     Eigenvalues --- 1000.00000
 RFO step:  Lambda=-6.50767353D-05 EMin= 1.03642464D-02
 Quartic linear search produced a step of  0.24375.
 Iteration  1 RMS(Cart)=  0.00515699 RMS(Int)=  0.00003337
 Iteration  2 RMS(Cart)=  0.00003180 RMS(Int)=  0.00001811
 Iteration  3 RMS(Cart)=  0.00000000 RMS(Int)=  0.00001811
 Variable       Old X    -DE/DX   Delta X   Delta X   Delta X     New X
                                 (Linear)    (Quad)   (Total)
    R1        2.06797   0.00021  -0.00052   0.00036  -0.00016   2.06781
    R2        2.06209   0.00073  -0.00142   0.00275   0.00133   2.06343
    R3        2.06795   0.00021  -0.00052   0.00034  -0.00019   2.06777
    R4        2.83695  -0.00007   0.00256  -0.00038   0.00218   2.83913
    R5        2.24366  -0.00333  -0.00146  -0.00274  -0.00420   2.23946
    R6        3.53077   0.00230   0.01006   0.00903   0.01909   3.54986
    A1        1.93060  -0.00029   0.00484  -0.00340   0.00141   1.93201
    A2        1.87712  -0.00004   0.00219  -0.00075   0.00142   1.87854
    A3        1.91321   0.00005  -0.00263   0.00054  -0.00212   1.91109
    A4        1.93066  -0.00028   0.00483  -0.00336   0.00144   1.93209
    A5        1.89884   0.00054  -0.00642   0.00664   0.00019   1.89903
    A6        1.91336   0.00001  -0.00261   0.00024  -0.00240   1.91096
    A7        2.23980   0.00216   0.00199   0.00771   0.00969   2.24949
    A8        1.95312  -0.00157  -0.00140  -0.00556  -0.00696   1.94616
    A9        2.09026  -0.00060  -0.00059  -0.00214  -0.00274   2.08752
    D1        2.11324  -0.00002   0.00044  -0.00312  -0.00268   2.11056
    D2       -1.02945   0.00004   0.00009   0.00405   0.00414  -1.02531
    D3        0.00008  -0.00003   0.00020  -0.00342  -0.00322  -0.00314
    D4        3.14058   0.00003  -0.00015   0.00375   0.00360  -3.13901
    D5       -2.11324  -0.00003  -0.00004  -0.00357  -0.00362  -2.11686
    D6        1.02726   0.00003  -0.00039   0.00360   0.00320   1.03045
         Item               Value     Threshold  Converged?
 Maximum Force            0.003327     0.000450     NO 
 RMS     Force            0.001091     0.000300     NO 
 Maximum Displacement     0.010338     0.001800     NO 
 RMS     Displacement     0.005163     0.001200     NO 
 Predicted change in Energy=-4.587555D-05
 GradGradGradGradGradGradGradGradGradGradGradGradGradGradGradGradGradGrad

                          Input orientation:                          
 ---------------------------------------------------------------------
 Center     Atomic      Atomic             Coordinates (Angstroms)
 Number     Number       Type             X           Y           Z
 ---------------------------------------------------------------------
      1          6           0        1.316542   -1.017857   -0.000295
      2          1           0        1.071449   -1.615111    0.883205
      3          1           0        2.373527   -0.743871    0.000207
      4          1           0        1.072558   -1.616471   -0.883154
      5          6           0        0.490851    0.237310   -0.001897
      6          8           0        0.852634    1.365807    0.000315
      7         17           0       -1.347742   -0.147846    0.001676
 ---------------------------------------------------------------------
                    Distance matrix (angstroms):
                    1          2          3          4          5
     1  C    0.000000
     2  H    1.094237   0.000000
     3  H    1.091918   1.798375   0.000000
     4  H    1.094216   1.766360   1.798411   0.000000
     5  C    1.502403   2.133533   2.123014   2.133425   0.000000
     6  O    2.428388   3.116609   2.600742   3.118152   1.185073
     7  Cl   2.802737   2.963519   3.768699   2.966081   1.878506
                    6          7
     6  O    0.000000
     7  Cl   2.670731   0.000000
 Stoichiometry    C2H3ClO
 Framework group  C1[X(C2H3ClO)]
 Deg. of freedom    15
 Full point group                 C1      NOp   1
 Largest Abelian subgroup         C1      NOp   1
 Largest concise Abelian subgroup C1      NOp   1
                         Standard orientation:                         
 ---------------------------------------------------------------------
 Center     Atomic      Atomic             Coordinates (Angstroms)
 Number     Number       Type             X           Y           Z
 ---------------------------------------------------------------------
      1          6           0        1.330258   -1.017626    0.000309
      2          1           0        1.081806   -1.613801    0.883600
      3          1           0        2.388447   -0.748331    0.001669
      4          1           0        1.084333   -1.615139   -0.882758
      5          6           0        0.510144    0.241191   -0.001935
      6          8           0        0.876927    1.368073    0.000590
      7         17           0       -1.330142   -0.135806    0.000148
 ---------------------------------------------------------------------
 Rotational constants (GHZ):     10.0381313      4.6645159      3.2490476
 Basis read from rwf:  (5D, 7F)
 Pseudo-potential data read from rwf file.
 There are    68 symmetry adapted basis functions of A   symmetry.
 Integral buffers will be    262144 words long.
 Raffenetti 2 integral format.
 Two-electron integral symmetry is turned on.
    68 basis functions,   120 primitive gaussians,    71 cartesian basis functions
    15 alpha electrons       15 beta electrons
       nuclear repulsion energy        97.3272726121 Hartrees.
 NAtoms=    7 NActive=    7 NUniq=    7 SFac= 7.50D-01 NAtFMM=   80 NAOKFM=F Big=F
 One-electron integrals computed using PRISM.
   1 Symmetry operations used in ECPInt.
 ECPInt:  NShTT=     325 NPrTT=    1550 LenC2=     326 LenP2D=    1335.
 LDataN:  DoStor=T MaxTD1= 4 Len=   56
 NBasis=    68 RedAO= T  NBF=    68
 NBsUse=    68 1.00D-06 NBFU=    68
 Initial guess read from the read-write file.
 B after Tr=     0.000000    0.000000    0.000000
         Rot=    1.000000    0.000000    0.000000    0.000000 Ang=   0.00 deg.
 Initial guess orbital symmetries:
       Occupied  (A) (A) (A) (A) (A) (A) (A) (A) (A) (A) (A) (A)
                 (A) (A) (A)
       Virtual   (A) (A) (A) (A) (A) (A) (A) (A) (A) (A) (A) (A)
                 (A) (A) (A) (A) (A) (A) (A) (A) (A) (A) (A) (A)
                 (A) (A) (A) (A) (A) (A) (A) (A) (A) (A) (A) (A)
                 (A) (A) (A) (A) (A) (A) (A) (A) (A) (A) (A) (A)
                 (A) (A) (A) (A) (A)
 Requested convergence on RMS density matrix=1.00D-08 within 128 cycles.
 Requested convergence on MAX density matrix=1.00D-06.
 Requested convergence on             energy=1.00D-06.
 No special actions if energy rises.
 Keep R1 ints in memory in canonical form, NReq=4245630.
 SCF Done:  E(RB3LYP) =  -168.202417215     A.U. after   10 cycles
             Convg  =    0.3262D-08             -V/T =  2.0658
   1 Symmetry operations used in ECPInt.
 ECPInt:  NShTT=     325 NPrTT=    1550 LenC2=     326 LenP2D=    1335.
 LDataN:  DoStor=T MaxTD1= 5 Len=  102
 Calling FoFJK, ICntrl=      2127 FMM=F ISym2X=0 I1Cent= 0 IOpClX= 0 NMat=1 NMatS=1 NMatT=0.
 ***** Axes restored to original set *****
 -------------------------------------------------------------------
 Center     Atomic                   Forces (Hartrees/Bohr)
 Number     Number              X              Y              Z
 -------------------------------------------------------------------
      1        6          -0.001792069    0.001165323   -0.000212678
      2        1           0.000159956   -0.000136780    0.000143140
      3        1           0.000432566   -0.000394964   -0.000015804
      4        1           0.000207426   -0.000218268   -0.000147794
      5        6           0.002585502    0.000825316    0.000609736
      6        8          -0.000881563   -0.000887547   -0.000242075
      7       17          -0.000711818   -0.000353080   -0.000134525
 -------------------------------------------------------------------
 Cartesian Forces:  Max     0.002585502 RMS     0.000849259

 GradGradGradGradGradGradGradGradGradGradGradGradGradGradGradGradGradGrad
 Berny optimization.
 Using GEDIIS/GDIIS optimizer.
 Internal  Forces:  Max     0.001117907 RMS     0.000527299
 Search for a local minimum.
 Step number   4 out of a maximum of   31
 All quantities printed in internal units (Hartrees-Bohrs-Radians)
 Mixed Optimization -- En-DIIS/RFO-DIIS
 Update second derivatives using D2CorX and points    1    2    3    4
 DE= -6.18D-05 DEPred=-4.59D-05 R= 1.35D+00
 SS=  1.41D+00  RLast= 2.50D-02 DXNew= 6.7531D-01 7.5049D-02
 Trust test= 1.35D+00 RLast= 2.50D-02 DXMaxT set to 4.02D-01
 Use linear search instead of GDIIS.
     Eigenvalues ---    0.01036   0.01106   0.07685   0.07749   0.09152
     Eigenvalues ---    0.16041   0.16291   0.17562   0.25062   0.27162
     Eigenvalues ---    0.33187   0.33410   0.33567   0.36084   1.06331
     Eigenvalues --- 1000.000001000.000001000.000001000.000001000.00000
     Eigenvalues --- 1000.00000
 RFO step:  Lambda=-4.25494048D-05 EMin= 1.03639673D-02
 Quartic linear search produced a step of  0.46642.
 Iteration  1 RMS(Cart)=  0.00962111 RMS(Int)=  0.00016503
 Iteration  2 RMS(Cart)=  0.00016703 RMS(Int)=  0.00007672
 Iteration  3 RMS(Cart)=  0.00000001 RMS(Int)=  0.00007672
 Variable       Old X    -DE/DX   Delta X   Delta X   Delta X     New X
                                 (Linear)    (Quad)   (Total)
    R1        2.06781   0.00015  -0.00008   0.00018   0.00011   2.06791
    R2        2.06343   0.00032   0.00062   0.00059   0.00121   2.06464
    R3        2.06777   0.00019  -0.00009   0.00034   0.00025   2.06802
    R4        2.83913  -0.00090   0.00102  -0.00243  -0.00141   2.83771
    R5        2.23946  -0.00112  -0.00196  -0.00158  -0.00354   2.23592
    R6        3.54986   0.00077   0.00890   0.00762   0.01652   3.56639
    A1        1.93201  -0.00037   0.00066  -0.00159  -0.00093   1.93107
    A2        1.87854  -0.00013   0.00066  -0.00007   0.00059   1.87913
    A3        1.91109   0.00009  -0.00099  -0.00039  -0.00138   1.90970
    A4        1.93209  -0.00042   0.00067  -0.00183  -0.00117   1.93093
    A5        1.89903   0.00059   0.00009   0.00281   0.00290   1.90193
    A6        1.91096   0.00024  -0.00112   0.00106  -0.00007   1.91089
    A7        2.24949   0.00112   0.00452   0.00553   0.00985   2.25934
    A8        1.94616  -0.00093  -0.00325  -0.00456  -0.00801   1.93815
    A9        2.08752  -0.00018  -0.00128  -0.00078  -0.00226   2.08527
    D1        2.11056   0.00012  -0.00125   0.01950   0.01825   2.12881
    D2       -1.02531  -0.00017   0.00193  -0.02172  -0.01979  -1.04510
    D3       -0.00314   0.00015  -0.00150   0.01994   0.01844   0.01531
    D4       -3.13901  -0.00014   0.00168  -0.02128  -0.01959   3.12459
    D5       -2.11686   0.00015  -0.00169   0.01980   0.01811  -2.09875
    D6        1.03045  -0.00014   0.00149  -0.02142  -0.01992   1.01053
         Item               Value     Threshold  Converged?
 Maximum Force            0.001118     0.000450     NO 
 RMS     Force            0.000527     0.000300     NO 
 Maximum Displacement     0.023350     0.001800     NO 
 RMS     Displacement     0.009691     0.001200     NO 
 Predicted change in Energy=-2.832042D-05
 GradGradGradGradGradGradGradGradGradGradGradGradGradGradGradGradGradGrad

                          Input orientation:                          
 ---------------------------------------------------------------------
 Center     Atomic      Atomic             Coordinates (Angstroms)
 Number     Number       Type             X           Y           Z
 ---------------------------------------------------------------------
      1          6           0        1.316859   -1.017033    0.001566
      2          1           0        1.075208   -1.615337    0.885373
      3          1           0        2.376247   -0.749937   -0.004854
      4          1           0        1.063745   -1.611813   -0.881481
      5          6           0        0.496343    0.240599    0.010459
      6          8           0        0.850522    1.369467   -0.002888
      7         17           0       -1.349104   -0.153984   -0.008118
 ---------------------------------------------------------------------
                    Distance matrix (angstroms):
                    1          2          3          4          5
     1  C    0.000000
     2  H    1.094293   0.000000
     3  H    1.092559   1.798366   0.000000
     4  H    1.094350   1.766894   1.798323   0.000000
     5  C    1.501654   2.131915   2.124956   2.132823   0.000000
     6  O    2.431639   3.122266   2.611458   3.115352   1.183200
     7  Cl   2.802196   2.968361   3.772719   2.951248   1.887250
                    6          7
     6  O    0.000000
     7  Cl   2.675684   0.000000
 Stoichiometry    C2H3ClO
 Framework group  C1[X(C2H3ClO)]
 Deg. of freedom    15
 Full point group                 C1      NOp   1
 Largest Abelian subgroup         C1      NOp   1
 Largest concise Abelian subgroup C1      NOp   1
                         Standard orientation:                         
 ---------------------------------------------------------------------
 Center     Atomic      Atomic             Coordinates (Angstroms)
 Number     Number       Type             X           Y           Z
 ---------------------------------------------------------------------
      1          6           0       -1.324983   -1.023050    0.001796
      2          1           0       -1.080686   -1.619332   -0.882649
      3          1           0       -2.386987   -0.766683    0.012162
      4          1           0       -1.062476   -1.614786    0.884146
      5          6           0       -0.517276    0.242814   -0.010846
      6          8           0       -0.882806    1.368047    0.003328
      7         17           0        1.332127   -0.133068    0.000824
 ---------------------------------------------------------------------
 Rotational constants (GHZ):     10.0064998      4.6550491      3.2412449
 Basis read from rwf:  (5D, 7F)
 Pseudo-potential data read from rwf file.
 There are    68 symmetry adapted basis functions of A   symmetry.
 Integral buffers will be    262144 words long.
 Raffenetti 2 integral format.
 Two-electron integral symmetry is turned on.
    68 basis functions,   120 primitive gaussians,    71 cartesian basis functions
    15 alpha electrons       15 beta electrons
       nuclear repulsion energy        97.2728719289 Hartrees.
 NAtoms=    7 NActive=    7 NUniq=    7 SFac= 7.50D-01 NAtFMM=   80 NAOKFM=F Big=F
 One-electron integrals computed using PRISM.
   1 Symmetry operations used in ECPInt.
 ECPInt:  NShTT=     325 NPrTT=    1550 LenC2=     326 LenP2D=    1335.
 LDataN:  DoStor=T MaxTD1= 4 Len=   56
 NBasis=    68 RedAO= T  NBF=    68
 NBsUse=    68 1.00D-06 NBFU=    68
 Initial guess read from the read-write file.
 B after Tr=     0.000000    0.000000    0.000000
         Rot=    1.000000    0.000000    0.000000    0.000000 Ang=   0.00 deg.
 Initial guess orbital symmetries:
       Occupied  (A) (A) (A) (A) (A) (A) (A) (A) (A) (A) (A) (A)
                 (A) (A) (A)
       Virtual   (A) (A) (A) (A) (A) (A) (A) (A) (A) (A) (A) (A)
                 (A) (A) (A) (A) (A) (A) (A) (A) (A) (A) (A) (A)
                 (A) (A) (A) (A) (A) (A) (A) (A) (A) (A) (A) (A)
                 (A) (A) (A) (A) (A) (A) (A) (A) (A) (A) (A) (A)
                 (A) (A) (A) (A) (A)
 Harris functional with IExCor=  402 diagonalized for initial guess.
 ExpMin= 4.38D-02 ExpMax= 5.48D+03 ExpMxC= 8.25D+02 IAcc=2 IRadAn=         0 AccDes= 0.00D+00
 HarFok:  IExCor=  402 AccDes= 0.00D+00 IRadAn=         0 IDoV= 1
 ScaDFX=  1.000000  1.000000  1.000000  1.000000
 FoFCou: FMM=F IPFlag=           0 FMFlag=      100000 FMFlg1=           0
         NFxFlg=           0 DoJE=T BraDBF=F KetDBF=T FulRan=T
         Omega=  0.000000  0.000000  1.000000  0.000000  0.000000 ICntrl=     500 IOpCl=  0
         NMat0=    1 NMatS0=    1 NMatT0=    0 NMatD0=    1 NMtDS0=    0 NMtDT0=    0
         I1Cent=           4 NGrid=           0.
 Petite list used in FoFCou.
 Requested convergence on RMS density matrix=1.00D-08 within 128 cycles.
 Requested convergence on MAX density matrix=1.00D-06.
 Requested convergence on             energy=1.00D-06.
 No special actions if energy rises.
 Keep R1 ints in memory in canonical form, NReq=4245630.
 SCF Done:  E(RB3LYP) =  -168.202395793     A.U. after   12 cycles
             Convg  =    0.9243D-08             -V/T =  2.0659
   1 Symmetry operations used in ECPInt.
 ECPInt:  NShTT=     325 NPrTT=    1550 LenC2=     326 LenP2D=    1335.
 LDataN:  DoStor=T MaxTD1= 5 Len=  102
 Calling FoFJK, ICntrl=      2127 FMM=F ISym2X=0 I1Cent= 0 IOpClX= 0 NMat=1 NMatS=1 NMatT=0.
 ***** Axes restored to original set *****
 -------------------------------------------------------------------
 Center     Atomic                   Forces (Hartrees/Bohr)
 Number     Number              X              Y              Z
 -------------------------------------------------------------------
      1        6          -0.000757446    0.001207821    0.001208810
      2        1           0.000265677   -0.000347141    0.000024755
      3        1           0.000080317   -0.000278946    0.000093793
      4        1           0.000006593    0.000115590   -0.000009155
      5        6          -0.000198191   -0.001504847   -0.003437288
      6        8           0.000277129    0.000742744    0.001345661
      7       17           0.000325921    0.000064780    0.000773424
 -------------------------------------------------------------------
 Cartesian Forces:  Max     0.003437288 RMS     0.001001397

 GradGradGradGradGradGradGradGradGradGradGradGradGradGradGradGradGradGrad
 Berny optimization.
 Using GEDIIS/GDIIS optimizer.
 Internal  Forces:  Max     0.000895650 RMS     0.000541262
 Search for a local minimum.
 Step number   5 out of a maximum of   31
 All quantities printed in internal units (Hartrees-Bohrs-Radians)
 Mixed Optimization -- En-DIIS/RFO-DIIS
 Swaping is turned off.
 Update second derivatives using D2CorX and points    1    2    3    4    5
 DE=  2.14D-05 DEPred=-2.83D-05 R=-7.56D-01
 Trust test=-7.56D-01 RLast= 5.14D-02 DXMaxT set to 2.01D-01
     Eigenvalues ---    0.01036   0.02423   0.05990   0.07722   0.07796
     Eigenvalues ---    0.14602   0.16337   0.16509   0.25000   0.26533
     Eigenvalues ---    0.32714   0.33208   0.33656   0.35285   1.07008
     Eigenvalues --- 1000.000001000.000001000.000001000.000001000.00000
     Eigenvalues --- 1000.00000
 En-DIIS/RFO-DIIS IScMMF=        0 using points:     5    4
 RFO step:  Lambda=-2.24105071D-05.
 DIIS coeffs:      0.35994      0.64006
 Iteration  1 RMS(Cart)=  0.00906748 RMS(Int)=  0.00011093
 Iteration  2 RMS(Cart)=  0.00012358 RMS(Int)=  0.00003996
 Iteration  3 RMS(Cart)=  0.00000001 RMS(Int)=  0.00003996
 Variable       Old X    -DE/DX   Delta X   Delta X   Delta X     New X
                                  (DIIS)     (GDIIS)  (Total)
    R1        2.06791   0.00015  -0.00007   0.00001  -0.00005   2.06786
    R2        2.06464   0.00001  -0.00077   0.00072  -0.00006   2.06458
    R3        2.06802  -0.00006  -0.00016  -0.00005  -0.00021   2.06781
    R4        2.83771  -0.00082   0.00091  -0.00214  -0.00123   2.83648
    R5        2.23592   0.00077   0.00226  -0.00349  -0.00122   2.23470
    R6        3.56639  -0.00034  -0.01058   0.01934   0.00876   3.57515
    A1        1.93107  -0.00039   0.00060  -0.00079  -0.00019   1.93088
    A2        1.87913  -0.00014  -0.00038   0.00084   0.00046   1.87959
    A3        1.90970   0.00059   0.00089  -0.00066   0.00022   1.90993
    A4        1.93093  -0.00011   0.00075  -0.00069   0.00005   1.93098
    A5        1.90193   0.00033  -0.00186   0.00258   0.00072   1.90265
    A6        1.91089  -0.00028   0.00004  -0.00134  -0.00129   1.90960
    A7        2.25934   0.00001  -0.00630   0.01041   0.00400   2.26334
    A8        1.93815   0.00000   0.00513  -0.00807  -0.00305   1.93510
    A9        2.08527   0.00003   0.00144  -0.00189  -0.00055   2.08472
    D1        2.12881  -0.00076  -0.01168  -0.00768  -0.01935   2.10945
    D2       -1.04510   0.00088   0.01267   0.00903   0.02170  -1.02339
    D3        0.01531  -0.00084  -0.01180  -0.00790  -0.01970  -0.00440
    D4        3.12459   0.00079   0.01254   0.00881   0.02135  -3.13725
    D5       -2.09875  -0.00074  -0.01159  -0.00783  -0.01942  -2.11817
    D6        1.01053   0.00090   0.01275   0.00888   0.02164   1.03217
         Item               Value     Threshold  Converged?
 Maximum Force            0.000896     0.000450     NO 
 RMS     Force            0.000541     0.000300     NO 
 Maximum Displacement     0.025222     0.001800     NO 
 RMS     Displacement     0.009101     0.001200     NO 
 Predicted change in Energy=-4.944683D-05
 GradGradGradGradGradGradGradGradGradGradGradGradGradGradGradGradGradGrad

                          Input orientation:                          
 ---------------------------------------------------------------------
 Center     Atomic      Atomic             Coordinates (Angstroms)
 Number     Number       Type             X           Y           Z
 ---------------------------------------------------------------------
      1          6           0        1.317126   -1.016727   -0.000433
      2          1           0        1.067245   -1.611680    0.883312
      3          1           0        2.377118   -0.752090    0.000785
      4          1           0        1.069562   -1.613210   -0.883765
      5          6           0        0.498930    0.241667   -0.002888
      6          8           0        0.850355    1.370790    0.000440
      7         17           0       -1.350515   -0.156789    0.002606
 ---------------------------------------------------------------------
                    Distance matrix (angstroms):
                    1          2          3          4          5
     1  C    0.000000
     2  H    1.094264   0.000000
     3  H    1.092528   1.798198   0.000000
     4  H    1.094237   1.767079   1.798237   0.000000
     5  C    1.501001   2.131484   2.124890   2.131228   0.000000
     6  O    2.432717   3.117953   2.614885   3.119956   1.182553
     7  Cl   2.802822   2.955996   3.774868   2.960336   1.891888
                    6          7
     6  O    0.000000
     7  Cl   2.679054   0.000000
 Stoichiometry    C2H3ClO
 Framework group  C1[X(C2H3ClO)]
 Deg. of freedom    15
 Full point group                 C1      NOp   1
 Largest Abelian subgroup         C1      NOp   1
 Largest concise Abelian subgroup C1      NOp   1
                         Standard orientation:                         
 ---------------------------------------------------------------------
 Center     Atomic      Atomic             Coordinates (Angstroms)
 Number     Number       Type             X           Y           Z
 ---------------------------------------------------------------------
      1          6           0        1.322580   -1.025798    0.000479
      2          1           0        1.063899   -1.617497    0.883876
      3          1           0        2.385911   -0.774925    0.003041
      4          1           0        1.068413   -1.618986   -0.883196
      5          6           0        0.520770    0.243097   -0.002930
      6          8           0        0.886800    1.367569    0.000901
      7         17           0       -1.333690   -0.131349    0.000222
 ---------------------------------------------------------------------
 Rotational constants (GHZ):      9.9962962      4.6466373      3.2360473
 Basis read from rwf:  (5D, 7F)
 Pseudo-potential data read from rwf file.
 There are    68 symmetry adapted basis functions of A   symmetry.
 Integral buffers will be    262144 words long.
 Raffenetti 2 integral format.
 Two-electron integral symmetry is turned on.
    68 basis functions,   120 primitive gaussians,    71 cartesian basis functions
    15 alpha electrons       15 beta electrons
       nuclear repulsion energy        97.2414227071 Hartrees.
 NAtoms=    7 NActive=    7 NUniq=    7 SFac= 7.50D-01 NAtFMM=   80 NAOKFM=F Big=F
 One-electron integrals computed using PRISM.
   1 Symmetry operations used in ECPInt.
 ECPInt:  NShTT=     325 NPrTT=    1550 LenC2=     326 LenP2D=    1335.
 LDataN:  DoStor=T MaxTD1= 4 Len=   56
 NBasis=    68 RedAO= T  NBF=    68
 NBsUse=    68 1.00D-06 NBFU=    68
 Initial guess read from the read-write file.
 B after Tr=     0.000000    0.000000    0.000000
         Rot=    1.000000    0.000000    0.000000    0.000000 Ang=   0.00 deg.
 Initial guess orbital symmetries:
       Occupied  (A) (A) (A) (A) (A) (A) (A) (A) (A) (A) (A) (A)
                 (A) (A) (A)
       Virtual   (A) (A) (A) (A) (A) (A) (A) (A) (A) (A) (A) (A)
                 (A) (A) (A) (A) (A) (A) (A) (A) (A) (A) (A) (A)
                 (A) (A) (A) (A) (A) (A) (A) (A) (A) (A) (A) (A)
                 (A) (A) (A) (A) (A) (A) (A) (A) (A) (A) (A) (A)
                 (A) (A) (A) (A) (A)
 Harris functional with IExCor=  402 diagonalized for initial guess.
 ExpMin= 4.38D-02 ExpMax= 5.48D+03 ExpMxC= 8.25D+02 IAcc=2 IRadAn=         0 AccDes= 0.00D+00
 HarFok:  IExCor=  402 AccDes= 0.00D+00 IRadAn=         0 IDoV= 1
 ScaDFX=  1.000000  1.000000  1.000000  1.000000
 FoFCou: FMM=F IPFlag=           0 FMFlag=      100000 FMFlg1=           0
         NFxFlg=           0 DoJE=T BraDBF=F KetDBF=T FulRan=T
         Omega=  0.000000  0.000000  1.000000  0.000000  0.000000 ICntrl=     500 IOpCl=  0
         NMat0=    1 NMatS0=    1 NMatT0=    0 NMatD0=    1 NMtDS0=    0 NMtDT0=    0
         I1Cent=           4 NGrid=           0.
 Petite list used in FoFCou.
 Requested convergence on RMS density matrix=1.00D-08 within 128 cycles.
 Requested convergence on MAX density matrix=1.00D-06.
 Requested convergence on             energy=1.00D-06.
 No special actions if energy rises.
 Keep R1 ints in memory in canonical form, NReq=4245630.
 SCF Done:  E(RB3LYP) =  -168.202425651     A.U. after   12 cycles
             Convg  =    0.9180D-08             -V/T =  2.0659
   1 Symmetry operations used in ECPInt.
 ECPInt:  NShTT=     325 NPrTT=    1550 LenC2=     326 LenP2D=    1335.
 LDataN:  DoStor=T MaxTD1= 5 Len=  102
 Calling FoFJK, ICntrl=      2127 FMM=F ISym2X=0 I1Cent= 0 IOpClX= 0 NMat=1 NMatS=1 NMatT=0.
 ***** Axes restored to original set *****
 -------------------------------------------------------------------
 Center     Atomic                   Forces (Hartrees/Bohr)
 Number     Number              X              Y              Z
 -------------------------------------------------------------------
      1        6          -0.000515667    0.001199342   -0.000321565
      2        1           0.000088260   -0.000094228    0.000009228
      3        1           0.000133590   -0.000235608   -0.000026627
      4        1           0.000161221   -0.000223708   -0.000017752
      5        6          -0.001418547   -0.002056056    0.000927607
      6        8           0.000544078    0.001110777   -0.000361699
      7       17           0.001007065    0.000299482   -0.000209192
 -------------------------------------------------------------------
 Cartesian Forces:  Max     0.002056056 RMS     0.000752245

 GradGradGradGradGradGradGradGradGradGradGradGradGradGradGradGradGradGrad
 Berny optimization.
 Using GEDIIS/GDIIS optimizer.
 Internal  Forces:  Max     0.001218568 RMS     0.000425974
 Search for a local minimum.
 Step number   6 out of a maximum of   31
 All quantities printed in internal units (Hartrees-Bohrs-Radians)
 Mixed Optimization -- En-DIIS/RFO-DIIS
 Swaping is turned off.
 Update second derivatives using D2CorX and points    1    2    3    4    5
                                                      6
 DE= -2.99D-05 DEPred=-4.94D-05 R= 6.04D-01
 SS=  1.41D+00  RLast= 5.14D-02 DXNew= 3.3766D-01 1.5423D-01
 Trust test= 6.04D-01 RLast= 5.14D-02 DXMaxT set to 2.01D-01
     Eigenvalues ---    0.01036   0.04817   0.07223   0.07719   0.08017
     Eigenvalues ---    0.11789   0.16362   0.16556   0.24946   0.25507
     Eigenvalues ---    0.32229   0.33212   0.33686   0.35334   1.10429
     Eigenvalues --- 1000.000001000.000001000.000001000.000001000.00000
     Eigenvalues --- 1000.00000
 En-DIIS/RFO-DIIS IScMMF=        0 using points:     6    5    4
 RFO step:  Lambda=-9.87904457D-06.
 DIIS coeffs:      0.44764      0.18374      0.36863
 Iteration  1 RMS(Cart)=  0.00344199 RMS(Int)=  0.00002007
 Iteration  2 RMS(Cart)=  0.00001618 RMS(Int)=  0.00001291
 Iteration  3 RMS(Cart)=  0.00000000 RMS(Int)=  0.00001291
 Variable       Old X    -DE/DX   Delta X   Delta X   Delta X     New X
                                  (DIIS)     (GDIIS)  (Total)
    R1        2.06786   0.00004  -0.00001   0.00073   0.00072   2.06858
    R2        2.06458   0.00008  -0.00041   0.00099   0.00057   2.06515
    R3        2.06781   0.00010   0.00002   0.00073   0.00076   2.06856
    R4        2.83648  -0.00062   0.00120  -0.00328  -0.00208   2.83440
    R5        2.23470   0.00122   0.00198   0.00034   0.00232   2.23702
    R6        3.57515  -0.00104  -0.01093  -0.00391  -0.01485   3.56030
    A1        1.93088  -0.00020   0.00045  -0.00328  -0.00284   1.92804
    A2        1.87959  -0.00018  -0.00047  -0.00151  -0.00198   1.87761
    A3        1.90993   0.00007   0.00039   0.00208   0.00246   1.91239
    A4        1.93098  -0.00028   0.00040  -0.00329  -0.00290   1.92808
    A5        1.90265   0.00028  -0.00147   0.00396   0.00249   1.90514
    A6        1.90960   0.00031   0.00074   0.00207   0.00280   1.91240
    A7        2.26334  -0.00035  -0.00584   0.00173  -0.00407   2.25927
    A8        1.93510   0.00030   0.00464  -0.00144   0.00323   1.93832
    A9        2.08472   0.00005   0.00114  -0.00029   0.00088   2.08560
    D1        2.10945   0.00020   0.00397  -0.00045   0.00352   2.11297
    D2       -1.02339  -0.00024  -0.00469  -0.00006  -0.00475  -1.02814
    D3       -0.00440   0.00023   0.00409  -0.00016   0.00393  -0.00047
    D4       -3.13725  -0.00021  -0.00457   0.00023  -0.00434  -3.14158
    D5       -2.11817   0.00020   0.00405   0.00015   0.00420  -2.11397
    D6        1.03217  -0.00024  -0.00461   0.00054  -0.00406   1.02810
         Item               Value     Threshold  Converged?
 Maximum Force            0.001219     0.000450     NO 
 RMS     Force            0.000426     0.000300     NO 
 Maximum Displacement     0.007035     0.001800     NO 
 RMS     Displacement     0.003439     0.001200     NO 
 Predicted change in Energy=-1.607329D-05
 GradGradGradGradGradGradGradGradGradGradGradGradGradGradGradGradGradGrad

                          Input orientation:                          
 ---------------------------------------------------------------------
 Center     Atomic      Atomic             Coordinates (Angstroms)
 Number     Number       Type             X           Y           Z
 ---------------------------------------------------------------------
      1          6           0        1.315490   -1.015505   -0.000035
      2          1           0        1.070209   -1.613466    0.883438
      3          1           0        2.375932   -0.751419   -0.000383
      4          1           0        1.069727   -1.614023   -0.882987
      5          6           0        0.495500    0.240408   -0.000195
      6          8           0        0.849753    1.369939   -0.000188
      7         17           0       -1.346792   -0.153972    0.000408
 ---------------------------------------------------------------------
                    Distance matrix (angstroms):
                    1          2          3          4          5
     1  C    0.000000
     2  H    1.094643   0.000000
     3  H    1.092830   1.796991   0.000000
     4  H    1.094637   1.766425   1.797010   0.000000
     5  C    1.499901   2.132591   2.125970   2.132598   0.000000
     6  O    2.430484   3.119311   2.613309   3.119576   1.183780
     7  Cl   2.798211   2.958337   3.770361   2.958328   1.884032
                    6          7
     6  O    0.000000
     7  Cl   2.673409   0.000000
 Stoichiometry    C2H3ClO
 Framework group  C1[X(C2H3ClO)]
 Deg. of freedom    15
 Full point group                 C1      NOp   1
 Largest Abelian subgroup         C1      NOp   1
 Largest concise Abelian subgroup C1      NOp   1
                         Standard orientation:                         
 ---------------------------------------------------------------------
 Center     Atomic      Atomic             Coordinates (Angstroms)
 Number     Number       Type             X           Y           Z
 ---------------------------------------------------------------------
      1          6           0        1.322980   -1.021926    0.000021
      2          1           0        1.071401   -1.617444    0.883373
      3          1           0        2.386072   -0.768720   -0.000077
      4          1           0        1.071282   -1.617794   -0.883052
      5          6           0        0.515900    0.242322   -0.000163
      6          8           0        0.881708    1.368164    0.000050
      7         17           0       -1.330336   -0.133161    0.000012
 ---------------------------------------------------------------------
 Rotational constants (GHZ):     10.0112386      4.6671964      3.2475259
 Basis read from rwf:  (5D, 7F)
 Pseudo-potential data read from rwf file.
 There are    68 symmetry adapted basis functions of A   symmetry.
 Integral buffers will be    262144 words long.
 Raffenetti 2 integral format.
 Two-electron integral symmetry is turned on.
    68 basis functions,   120 primitive gaussians,    71 cartesian basis functions
    15 alpha electrons       15 beta electrons
       nuclear repulsion energy        97.3201952567 Hartrees.
 NAtoms=    7 NActive=    7 NUniq=    7 SFac= 7.50D-01 NAtFMM=   80 NAOKFM=F Big=F
 One-electron integrals computed using PRISM.
   1 Symmetry operations used in ECPInt.
 ECPInt:  NShTT=     325 NPrTT=    1550 LenC2=     326 LenP2D=    1335.
 LDataN:  DoStor=T MaxTD1= 4 Len=   56
 NBasis=    68 RedAO= T  NBF=    68
 NBsUse=    68 1.00D-06 NBFU=    68
[...]
 Octapole moment (field-independent basis, Debye-Ang**2):
  XXX=             -0.6871  YYY=             -3.4768  ZZZ=              0.0011  XYY=             -2.0696
  XXY=             -2.7251  XXZ=              0.0007  XZZ=             -0.2418  YZZ=             -0.0543
  YYZ=              0.0001  XYZ=             -0.0004
 Hexadecapole moment (field-independent basis, Debye-Ang**3):
 XXXX=           -264.0292 YYYY=           -158.3379 ZZZZ=            -37.7949 XXXY=              1.3723
 XXXZ=             -0.0017 YYYX=             -0.9288 YYYZ=              0.0008 ZZZX=              0.0006
 ZZZY=             -0.0009 XXYY=            -75.0602 XXZZ=            -54.0143 YYZZ=            -29.4451
 XXYZ=             -0.0007 YYXZ=              0.0003 ZZXY=              0.6061
 N-N= 9.732019525672D+01 E-N=-5.823755340380D+02  KE= 1.578122742921D+02
  Exact polarizability:  48.328   3.403  36.441   0.000   0.000  24.478
 Approx polarizability:  71.618  13.900  53.107  -0.001   0.001  31.463
   1 Symmetry operations used in ECPInt.
 ECPInt:  NShTT=     325 NPrTT=    1550 LenC2=     326 LenP2D=    1528.
 LDataN:  DoStor=T MaxTD1= 6 Len=  172
 Calling FoFJK, ICntrl=    100127 FMM=F ISym2X=0 I1Cent= 0 IOpClX= 0 NMat=1 NMatS=1 NMatT=0.
 Full mass-weighted force constant matrix:
 Low frequencies ---   -7.2240    0.0012    0.0012    0.0013   12.5440   13.7182
 Low frequencies ---  147.1522  335.3763  397.4506
 Diagonal vibrational polarizability:
       20.9107099       3.0851747       0.6119379
 Harmonic frequencies (cm**-1), IR intensities (KM/Mole), Raman scattering
 activities (A**4/AMU), depolarization ratios for plane and unpolarized
 incident light, reduced masses (AMU), force constants (mDyne/A),
 and normal coordinates:
                     1                      2                      3
                     A                      A                      A
 Frequencies --   147.1315               335.3761               397.4506
 Red. masses --     1.0540                 3.4814                18.0197
 Frc consts  --     0.0134                 0.2307                 1.6771
 IR Inten    --     0.1026                 2.2524                35.0497
  Atom  AN      X      Y      Z        X      Y      Z        X      Y      Z
     1   6     0.00   0.00   0.01     0.31   0.02   0.00     0.13   0.17   0.00
     2   1    -0.39  -0.31  -0.32     0.54  -0.07   0.01     0.05   0.21   0.00
     3   1     0.00   0.00   0.54     0.21   0.43   0.00     0.15   0.10   0.00
     4   1     0.39   0.31  -0.32     0.54  -0.07  -0.01     0.05   0.21   0.00
     5   6     0.00   0.00   0.01    -0.02  -0.16   0.00     0.30   0.24   0.00
     6   8     0.00   0.00  -0.05    -0.07  -0.15   0.00     0.66   0.09   0.00
     7  17     0.00   0.00   0.02    -0.10   0.11   0.00    -0.45  -0.20   0.00
                     4                      5                      6
                     A                      A                      A
 Frequencies --   508.1596               582.5783               963.7866
 Red. masses --     3.0976                 4.4879                 2.9577
 Frc consts  --     0.4713                 0.8974                 1.6187
 IR Inten    --     2.1374               122.2202                64.9173
  Atom  AN      X      Y      Z        X      Y      Z        X      Y      Z
     1   6     0.00   0.00   0.02     0.14  -0.26   0.00    -0.03   0.27   0.00
     2   1    -0.37   0.40   0.19    -0.16  -0.14  -0.01    -0.49   0.38  -0.06
     3   1     0.00   0.00   0.40     0.26  -0.75   0.00     0.09  -0.25   0.00
     4   1     0.37  -0.40   0.19    -0.16  -0.14   0.01    -0.49   0.38   0.06
     5   6     0.00   0.00  -0.39     0.34   0.03   0.00     0.21  -0.15   0.00
     6   8     0.00   0.00   0.15    -0.20   0.18   0.00    -0.07  -0.15   0.00
     7  17     0.00   0.00   0.04    -0.07   0.02   0.00    -0.01   0.01   0.00
                     7                      8                      9
                     A                      A                      A
 Frequencies --  1058.1249              1118.4744              1414.7296
 Red. masses --     1.5737                 1.8744                 1.2411
 Frc consts  --     1.0381                 1.3815                 1.4635
 IR Inten    --     4.3527               129.0594                23.9806
  Atom  AN      X      Y      Z        X      Y      Z        X      Y      Z
     1   6     0.00   0.00   0.16     0.18   0.03   0.00    -0.07   0.12   0.00
     2   1     0.28  -0.55  -0.15    -0.33   0.05  -0.12     0.33  -0.45  -0.26
     3   1     0.00   0.00  -0.36     0.35  -0.74   0.00     0.07  -0.48   0.00
     4   1    -0.28   0.55  -0.15    -0.33   0.05   0.12     0.33  -0.45   0.26
     5   6     0.00   0.00  -0.16    -0.21   0.05   0.00     0.02  -0.01   0.00
     6   8     0.00   0.00   0.03     0.04  -0.02   0.00     0.00   0.00   0.00
     7  17     0.00   0.00   0.01     0.00   0.00   0.00     0.00   0.00   0.00
                    10                     11                     12
                     A                      A                      A
 Frequencies --  1487.2253              1487.6101              1928.9164
 Red. masses --     1.0443                 1.0469                12.2090
 Frc consts  --     1.3609                 1.3649                26.7644
 IR Inten    --    12.9019                15.1999               361.9035
  Atom  AN      X      Y      Z        X      Y      Z        X      Y      Z
     1   6     0.00   0.00  -0.05     0.05   0.01   0.00     0.02  -0.07   0.00
     2   1     0.49  -0.06   0.06    -0.36  -0.36  -0.35     0.04  -0.16  -0.08
     3   1     0.00  -0.01   0.72    -0.07   0.47   0.01    -0.01   0.14   0.00
     4   1    -0.48   0.07   0.05    -0.37  -0.36   0.35     0.04  -0.16   0.08
     5   6     0.00   0.00  -0.02     0.01  -0.01   0.00     0.15   0.77   0.00
     6   8     0.00   0.00   0.00     0.00   0.02   0.00    -0.16  -0.51   0.00
     7  17     0.00   0.00   0.00     0.00   0.00   0.00     0.01   0.00   0.00
                    13                     14                     15
                     A                      A                      A
 Frequencies --  3072.3426              3145.1671              3168.9260
 Red. masses --     1.0332                 1.1010                 1.1065
 Frc consts  --     5.7462                 6.4167                 6.5468
 IR Inten    --     0.7557                 0.0410                 4.0525
  Atom  AN      X      Y      Z        X      Y      Z        X      Y      Z
     1   6    -0.02   0.04   0.00     0.00   0.00   0.09    -0.08  -0.05   0.00
     2   1    -0.14  -0.32   0.48     0.17   0.39  -0.56     0.08   0.20  -0.31
     3   1     0.52   0.13   0.00     0.00   0.00   0.01     0.82   0.20   0.00
     4   1    -0.14  -0.32  -0.48    -0.17  -0.39  -0.56     0.08   0.20   0.31
     5   6     0.00   0.00   0.00     0.00   0.00   0.00     0.00   0.00   0.00
     6   8     0.00   0.00   0.00     0.00   0.00   0.00     0.00   0.00   0.00
     7  17     0.00   0.00   0.00     0.00   0.00   0.00     0.00   0.00   0.00

 -------------------
 - Thermochemistry -
 -------------------
 Temperature   298.150 Kelvin.  Pressure   1.00000 Atm.
 Atom     1 has atomic number  6 and mass  12.00000
 Atom     2 has atomic number  1 and mass   1.00783
 Atom     3 has atomic number  1 and mass   1.00783
 Atom     4 has atomic number  1 and mass   1.00783
 Atom     5 has atomic number  6 and mass  12.00000
 Atom     6 has atomic number  8 and mass  15.99491
 Atom     7 has atomic number 17 and mass  34.96885
 Molecular mass:    77.98724 amu.
 Principal axes and moments of inertia in atomic units:
                           1         2         3
     Eigenvalues --   180.27152 386.68636 555.72805
           X            0.99506  -0.09926   0.00000
           Y            0.09926   0.99506   0.00000
           Z            0.00000   0.00000   1.00000
 This molecule is an asymmetric top.
 Rotational symmetry number  1.
 Rotational temperatures (Kelvin)      0.48046     0.22399     0.15586
 Rotational constants (GHZ):          10.01124     4.66720     3.24753
 Zero-point vibrational energy     124507.3 (Joules/Mol)
                                   29.75796 (Kcal/Mol)
 Warning -- explicit consideration of   5 degrees of freedom as
           vibrations may cause significant error
 Vibrational temperatures:    211.69   482.53   571.84   731.13   838.20
          (Kelvin)           1386.67  1522.40  1609.23  2035.48  2139.78
                             2140.34  2775.28  4420.41  4525.19  4559.37
 
 Zero-point correction=                           0.047422 (Hartree/Particle)
 Thermal correction to Energy=                    0.052094
 Thermal correction to Enthalpy=                  0.053038
 Thermal correction to Gibbs Free Energy=         0.019561
 Sum of electronic and zero-point Energies=           -168.155017
 Sum of electronic and thermal Energies=              -168.150345
 Sum of electronic and thermal Enthalpies=            -168.149401
 Sum of electronic and thermal Free Energies=         -168.182878
 
                     E (Thermal)             CV                S
                      KCal/Mol        Cal/Mol-Kelvin    Cal/Mol-Kelvin
 Total                   32.689             14.523             70.458
 Electronic               0.000              0.000              0.000
 Translational            0.889              2.981             38.977
 Rotational               0.889              2.981             25.163
 Vibrational             30.912              8.561              6.317
 Vibration     1          0.617              1.906              2.709
 Vibration     2          0.716              1.605              1.234
 Vibration     3          0.764              1.476              0.972
 Vibration     4          0.863              1.232              0.638
 Vibration     5          0.939              1.069              0.481
                       Q            Log10(Q)             Ln(Q)
 Total Bot       0.100567D-08         -8.997545        -20.717612
 Total V=0       0.653385D+13         12.815169         29.508017
 Vib (Bot)       0.527284D-21        -21.277956        -48.994304
 Vib (Bot)    1  0.137928D+01          0.139652          0.321561
 Vib (Bot)    2  0.555272D+00         -0.255494         -0.588297
 Vib (Bot)    3  0.449284D+00         -0.347479         -0.800099
 Vib (Bot)    4  0.321079D+00         -0.493389         -1.136069
 Vib (Bot)    5  0.260889D+00         -0.583544         -1.343659
 Vib (V=0)       0.342577D+01          0.534758          1.231325
 Vib (V=0)    1  0.196711D+01          0.293829          0.676565
 Vib (V=0)    2  0.124721D+01          0.095941          0.220911
 Vib (V=0)    3  0.117220D+01          0.069003          0.158885
 Vib (V=0)    4  0.109421D+01          0.039103          0.090037
 Vib (V=0)    5  0.106397D+01          0.026930          0.062008
 Electronic      0.100000D+01          0.000000          0.000000
 Translational   0.270701D+08          7.432491         17.113942
 Rotational      0.704564D+05          4.847921         11.162750
 ***** Axes restored to original set *****
 -------------------------------------------------------------------
 Center     Atomic                   Forces (Hartrees/Bohr)
 Number     Number              X              Y              Z
 -------------------------------------------------------------------
      1        6           0.000261542   -0.000090073   -0.000016203
      2        1          -0.000033803    0.000090451   -0.000085245
      3        1          -0.000131178    0.000019889   -0.000001523
      4        1          -0.000028656    0.000083602    0.000083976
      5        6           0.000058521   -0.000250151    0.000048984
      6        8           0.000168052    0.000160269   -0.000019585
      7       17          -0.000294478   -0.000013988   -0.000010404
 -------------------------------------------------------------------
 Cartesian Forces:  Max     0.000294478 RMS     0.000126410

 GradGradGradGradGradGradGradGradGradGradGradGradGradGradGradGradGradGrad
 Berny optimization.
 Internal  Forces:  Max     0.000295125 RMS     0.000110673
 Search for a local minimum.
 Step number   1 out of a maximum of    2
 All quantities printed in internal units (Hartrees-Bohrs-Radians)
 Second derivative matrix not updated -- analytic derivatives used.
     Eigenvalues ---    0.00135   0.04786   0.05673   0.05720   0.08674
     Eigenvalues ---    0.12881   0.14441   0.14552   0.21495   0.23210
     Eigenvalues ---    0.30816   0.34429   0.34840   0.35271   0.97731
     Eigenvalues --- 1000.000001000.000001000.000001000.000001000.00000
     Eigenvalues --- 1000.00000
 Angle between quadratic step and forces=  34.91 degrees.
 Linear search not attempted -- first point.
 Iteration  1 RMS(Cart)=  0.00066246 RMS(Int)=  0.00000020
 Iteration  2 RMS(Cart)=  0.00000019 RMS(Int)=  0.00000006
 Variable       Old X    -DE/DX   Delta X   Delta X   Delta X     New X
                                 (Linear)    (Quad)   (Total)
    R1        2.06858  -0.00011   0.00000  -0.00032  -0.00032   2.06825
    R2        2.06515  -0.00012   0.00000  -0.00039  -0.00039   2.06476
    R3        2.06856  -0.00011   0.00000  -0.00031  -0.00031   2.06825
    R4        2.83440  -0.00005   0.00000  -0.00014  -0.00014   2.83426
    R5        2.23702   0.00020   0.00000   0.00010   0.00010   2.23712
    R6        3.56030   0.00030   0.00000   0.00216   0.00216   3.56246
    A1        1.92804   0.00007   0.00000   0.00065   0.00065   1.92869
    A2        1.87761   0.00004   0.00000   0.00011   0.00011   1.87772
    A3        1.91239  -0.00007   0.00000  -0.00041  -0.00041   1.91198
    A4        1.92808   0.00006   0.00000   0.00061   0.00061   1.92869
    A5        1.90514  -0.00005   0.00000  -0.00054  -0.00054   1.90460
    A6        1.91240  -0.00005   0.00000  -0.00042  -0.00042   1.91198
    A7        2.25927  -0.00020   0.00000  -0.00056  -0.00056   2.25871
    A8        1.93832   0.00016   0.00000   0.00058   0.00058   1.93890
    A9        2.08560   0.00003   0.00000  -0.00002  -0.00002   2.08558
    D1        2.11297   0.00002   0.00000   0.00068   0.00068   2.11365
    D2       -1.02814   0.00000   0.00000   0.00020   0.00020  -1.02794
    D3       -0.00047   0.00001   0.00000   0.00047   0.00047   0.00000
    D4       -3.14158  -0.00001   0.00000  -0.00001  -0.00001  -3.14159
    D5       -2.11397   0.00000   0.00000   0.00032   0.00032  -2.11365
    D6        1.02810  -0.00002   0.00000  -0.00016  -0.00016   1.02795
         Item               Value     Threshold  Converged?
 Maximum Force            0.000295     0.000450     YES
 RMS     Force            0.000111     0.000300     YES
 Maximum Displacement     0.002118     0.001800     NO 
 RMS     Displacement     0.000662     0.001200     YES
 Predicted change in Energy=-5.867119D-07
 GradGradGradGradGradGradGradGradGradGradGradGradGradGradGradGradGradGrad

 1|1|UNPC-WST-PGHS-014|Freq|RB3LYP|Gen|C2H3Cl1O1|214584429|25-Feb-2015|
 0||#N Geom=AllCheck Guess=TCheck SCRF=Check GenChk RB3LYP/ChkBas Freq|
 |gen calculation ClAc-C H O=6-31+g(d)/Cl=LANL2DZ||0,1|C,1.3154904464,-1.0155047457,-0.000034636
 |H,1.070209255,-1.613465858,0.883437524|H,2.375932243,-0.7514192263,-0
 .000383245|H,1.0697274211,-1.614023143,-0.8829873458|C,0.4954997082,0.
 2404079753,-0.000194796|O,0.8497531008,1.3699390341,-0.0001877586|Cl,-
 1.3467921746,-0.1539720364,0.0004079575||Version=IA32W-G09RevA.02|Stat
 e=1-A|HF=-168.2024393|RMSD=7.313e-010|RMSF=1.264e-004|ZeroPoint=0.0474
 223|Thermal=0.0520939|Dipole=0.8417995,-1.0005869,-0.0001117|DipoleDer
 iv=-0.1286034,0.1115718,0.0000162,0.0526484,-0.2432238,0.0000784,-0.00
 00629,0.0001972,0.046255,0.0497166,0.0119538,0.0499343,0.0065002,0.085
 2653,0.0276143,0.0233374,0.0565068,0.0330576,-0.0794707,0.0031235,0.00
 0052,0.0062272,0.0429399,0.0000138,0.000038,0.0000071,0.1057932,0.0497
 036,0.0118536,-0.0499573,0.006459,0.0852091,-0.0276674,-0.0233212,-0.0
 566008,0.0331227,2.0335881,0.2061331,-0.0004086,0.7096985,1.418257,-0.
 0003704,-0.0003937,-0.0002159,0.2053615,-0.7883421,-0.1805718,0.000150
 9,-0.6186359,-1.1010144,0.0002833,0.0000532,0.000028,-0.2374931,-1.136
 5921,-0.1640642,0.0002125,-0.1628974,-0.2874331,0.000048,0.0003491,0.0
 000775,-0.1860969|Polar=48.2570049,3.5243904,36.5118382,-0.0056593,-0.
 0019073,24.4783146|PG=C01 [X(C2H3Cl1O1)]|NImag=0||0.57023019,0.0635597
 6,0.50917428,-0.00002222,0.00002124,0.54539655,-0.06349920,-0.03270046
 ,0.05114868,0.06283490,-0.03238561,-0.12309759,0.12384445,0.03432259,0
 .13683548,0.04990219,0.12278901,-0.22300795,-0.05540306,-0.13228656,0.
 24041371,-0.30700990,-0.06484191,0.00008619,-0.00345139,-0.00082495,-0
 .00024413,0.33193068,-0.06988532,-0.06790191,0.00002185,-0.01629639,-0
 .00372566,-0.00256317,0.07033627,0.06982993,0.00008656,0.00001994,-0.0
 5049190,0.02557912,0.00441204,0.00215524,-0.00009470,-0.00002518,0.046
 63688,-0.06356123,-0.03280112,-0.05121751,0.00095488,0.00396730,0.0059
 6146,-0.00346263,-0.01631155,-0.02556518,0.06289672,-0.03248280,-0.123
 25988,-0.12389177,0.00397071,0.01173508,0.01529855,-0.00082646,-0.0037
 2704,-0.00440699,0.03442926,0.13701345,-0.04996792,-0.12284034,-0.2228
 0377,-0.00597530,-0.01532262,-0.02106840,0.00024736,0.00257662,0.00217
 032,0.05547725,0.13233991,0.24019221,-0.12276813,0.06050528,-0.0000095
 0,0.00581709,-0.00931964,0.00051093,-0.01979583,0.02842863,-0.00000459
 ,0.00582811,-0.00933574,-0.00050838,0.32383999,0.06647747,-0.15215330,
 0.00000824,0.00906997,-0.02080845,-0.00046847,-0.00521913,0.00524709,0
 .00000052,0.00907802,-0.02082047,0.00047692,0.10555964,1.04382600,-0.0
 0000243,-0.00000502,-0.08425277,-0.01855803,0.02459538,0.00228101,0.00
 000595,-0.00001036,-0.00170216,0.01855264,-0.02457747,0.00228509,-0.00
 000065,0.00000232,0.17296091,0.01521315,0.01372817,0.00000289,-0.00049
 839,0.00380973,-0.00023212,0.00355855,-0.00135669,-0.00000069,-0.00049
 907,0.00381301,0.00022953,-0.14383901,-0.22600789,0.00000310,0.1614455
 5,-0.01023740,-0.04674638,-0.00000036,0.00172897,-0.00200757,-0.002088
 81,-0.00080738,0.00188144,-0.00000070,0.00173365,-0.00201121,0.0020890
 5,-0.18535169,-0.82878861,-0.00000331,0.24667352,0.89280605,0.00000050
 ,0.00001054,0.02684371,0.00260247,-0.00357020,-0.00132040,-0.00000100,
 0.00000080,-0.00056978,-0.00260426,0.00356607,-0.00132049,0.00000533,-
 0.00000602,-0.06006723,-0.00001506,-0.00001120,0.02377047,-0.02860488,
 -0.00744972,0.00001147,-0.00215789,0.00043058,-0.00049527,-0.00176949,
 0.00508504,-0.00000052,-0.00215677,0.00043202,0.00049746,-0.04908221,0
 .04104192,-0.00000058,-0.03538077,-0.05373966,0.00001203,0.11915201,0.
 01495389,0.00398478,-0.00000365,-0.00009539,0.00106871,-0.00068054,0.0
 0218357,-0.00160384,0.00000038,-0.00009556,0.00107008,0.00068046,0.009
 51352,-0.02650226,-0.00000154,-0.04065985,-0.01513371,0.00001002,0.014
 19982,0.03711626,0.00000333,0.00000462,0.00831614,0.00060612,-0.001672
 49,0.00054678,0.00000032,-0.00000054,0.00180140,-0.00060441,0.00167169
 ,0.00054504,0.00000686,-0.00001351,-0.03150484,0.00001236,0.00001534,0
 .01266372,-0.00002459,-0.00000512,0.00763176||-0.00026154,0.00009007,0
 .00001620,0.00003380,-0.00009045,0.00008525,0.00013118,-0.00001989,0.0
 0000152,0.00002866,-0.00008360,-0.00008398,-0.00005852,0.00025015,-0.0
 0004898,-0.00016805,-0.00016027,0.00001959,0.00029448,0.00001399,0.000
 01040|||@


 THE ATTENTION SPAN OF A COMPUTER IS AS LONG
 AS ITS EXTENSION CORD.
 Job cpu time:  0 days  0 hours  0 minutes 48.0 seconds.
 File lengths (MBytes):  RWF=      7 Int=      0 D2E=      0 Chk=      1 Scr=      1
 Normal termination of Gaussian 09 at Wed Feb 25 12:26:07 2015.
