 Entering Link 1 = C:\G09W\l1.exe PID=      1432.
  
 Copyright (c) 1988,1990,1992,1993,1995,1998,2003,2009, Gaussian, Inc.
                  All Rights Reserved.
  
 This is part of the Gaussian(R) 09 program.  It is based on
 the Gaussian(R) 03 system (copyright 2003, Gaussian, Inc.),
 the Gaussian(R) 98 system (copyright 1998, Gaussian, Inc.),
 the Gaussian(R) 94 system (copyright 1995, Gaussian, Inc.),
 the Gaussian 92(TM) system (copyright 1992, Gaussian, Inc.),
 the Gaussian 90(TM) system (copyright 1990, Gaussian, Inc.),
 the Gaussian 88(TM) system (copyright 1988, Gaussian, Inc.),
 the Gaussian 86(TM) system (copyright 1986, Carnegie Mellon
 University), and the Gaussian 82(TM) system (copyright 1983,
 Carnegie Mellon University). Gaussian is a federally registered
 trademark of Gaussian, Inc.
  
 This software contains proprietary and confidential information,
 including trade secrets, belonging to Gaussian, Inc.
  
 This software is provided under written license and may be
 used, copied, transmitted, or stored only in accord with that
 written license.
  
 The following legend is applicable only to US Government
 contracts under FAR:
  
                    RESTRICTED RIGHTS LEGEND
  
 Use, reproduction and disclosure by the US Government is
 subject to restrictions as set forth in subparagraphs (a)
 and (c) of the Commercial Computer Software - Restricted
 Rights clause in FAR 52.227-19.
  
 Gaussian, Inc.
 340 Quinnipiac St., Bldg. 40, Wallingford CT 06492
  
  
 ---------------------------------------------------------------
 Warning -- This program may not be used in any manner that
 competes with the business of Gaussian, Inc. or will provide
 assistance to any competitor of Gaussian, Inc.  The licensee
 of this program is prohibited from giving any competitor of
 Gaussian, Inc. access to this program.  By using this program,
 the user acknowledges that Gaussian, Inc. is engaged in the
 business of creating and licensing software in the field of
 computational chemistry and represents and warrants to the
 licensee that it is not a competitor of Gaussian, Inc. and that
 it will not use this program in any manner prohibited above.
 ---------------------------------------------------------------
  

 Cite this work as:
 Gaussian 09, Revision A.02,
 M. J. Frisch, G. W. Trucks, H. B. Schlegel, G. E. Scuseria, 
 M. A. Robb, J. R. Cheeseman, G. Scalmani, V. Barone, B. Mennucci, 
 G. A. Petersson, H. Nakatsuji, M. Caricato, X. Li, H. P. Hratchian, 
 A. F. Izmaylov, J. Bloino, G. Zheng, J. L. Sonnenberg, M. Hada, 
 M. Ehara, K. Toyota, R. Fukuda, J. Hasegawa, M. Ishida, T. Nakajima, 
 Y. Honda, O. Kitao, H. Nakai, T. Vreven, J. A. Montgomery, Jr., 
 J. E. Peralta, F. Ogliaro, M. Bearpark, J. J. Heyd, E. Brothers, 
 K. N. Kudin, V. N. Staroverov, R. Kobayashi, J. Normand, 
 K. Raghavachari, A. Rendell, J. C. Burant, S. S. Iyengar, J. Tomasi, 
 M. Cossi, N. Rega, J. M. Millam, M. Klene, J. E. Knox, J. B. Cross, 
 V. Bakken, C. Adamo, J. Jaramillo, R. Gomperts, R. E. Stratmann, 
 O. Yazyev, A. J. Austin, R. Cammi, C. Pomelli, J. W. Ochterski, 
 R. L. Martin, K. Morokuma, V. G. Zakrzewski, G. A. Voth, 
 P. Salvador, J. J. Dannenberg, S. Dapprich, A. D. Daniels, 
 O. Farkas, J. B. Foresman, J. V. Ortiz, J. Cioslowski, 
 and D. J. Fox, Gaussian, Inc., Wallingford CT, 2009.
 
 ******************************************
 Gaussian 09:  IA32W-G09RevA.02 11-Jun-2009
                25-Feb-2015 
 ******************************************
 %chk=C:\Users\214584429\Dropbox\Ester(COOH)\clac631.chk
 --------------------------------------------
 # opt freq b3lyp/6-31+g(d) geom=connectivity
 --------------------------------------------
 1/14=-1,18=20,19=15,26=3,38=1,57=2/1,3;
 2/9=110,12=2,17=6,18=5,40=1/2;
 3/5=1,6=6,7=11,11=2,16=1,25=1,30=1,71=1,74=-5/1,2,3;
 4//1;
 5/5=2,38=5/2;
 6/7=2,8=2,9=2,10=2,28=1/1;
 7//1,2,3,16;
 1/14=-1,18=20,19=15/3(2);
 2/9=110/2;
 99//99;
 2/9=110/2;
 3/5=1,6=6,7=11,11=2,16=1,25=1,30=1,71=1,74=-5/1,2,3;
 4/5=5,16=3/1;
 5/5=2,38=5/2;
 7//1,2,3,16;
 1/14=-1,18=20,19=15/3(-5);
 2/9=110/2;
 6/7=2,8=2,9=2,10=2,19=2,28=1/1;
 99/9=1/99;
 -------------------
 Title Card Required
 -------------------
 Symbolic Z-matrix:
 Charge =  0 Multiplicity = 1
 C                     1.28806  -0.99417  -0.00001 
 H                     1.07567  -1.62374   0.88232 
 H                     2.36877  -0.77322  -0.00069 
 H                     1.07462  -1.6245   -0.88156 
 C                     0.47813   0.24402   0. 
 O                     0.81931   1.38314  0. 
 Cl                   -1.27475  -0.14958   0. 
 

 GradGradGradGradGradGradGradGradGradGradGradGradGradGradGradGradGradGrad
 Berny optimization.
 Initialization pass.
                           ----------------------------
                           !    Initial Parameters    !
                           ! (Angstroms and Degrees)  !
 --------------------------                            --------------------------
 ! Name  Definition              Value          Derivative Info.                !
 --------------------------------------------------------------------------------
 ! R1    R(1,2)                  1.1045         estimate D2E/DX2                !
 ! R2    R(1,3)                  1.1031         estimate D2E/DX2                !
 ! R3    R(1,4)                  1.1045         estimate D2E/DX2                !
 ! R4    R(1,5)                  1.4796         estimate D2E/DX2                !
 ! R5    R(5,6)                  1.1891         estimate D2E/DX2                !
 ! R6    R(5,7)                  1.7965         estimate D2E/DX2                !
 ! A1    A(2,1,3)              107.6416         estimate D2E/DX2                !
 ! A2    A(2,1,4)              105.9691         estimate D2E/DX2                !
 ! A3    A(2,1,5)              111.8226         estimate D2E/DX2                !
 ! A4    A(3,1,4)              107.6459         estimate D2E/DX2                !
 ! A5    A(3,1,5)              111.6354         estimate D2E/DX2                !
 ! A6    A(4,1,5)              111.8267         estimate D2E/DX2                !
 ! A7    A(1,5,6)              130.137          estimate D2E/DX2                !
 ! A8    A(1,5,7)              110.5346         estimate D2E/DX2                !
 ! A9    A(6,5,7)              119.3285         estimate D2E/DX2                !
 ! D1    D(2,1,5,6)            120.6281         estimate D2E/DX2                !
 ! D2    D(2,1,5,7)            -59.3725         estimate D2E/DX2                !
 ! D3    D(3,1,5,6)             -0.0375         estimate D2E/DX2                !
 ! D4    D(3,1,5,7)            179.9619         estimate D2E/DX2                !
 ! D5    D(4,1,5,6)           -120.7114         estimate D2E/DX2                !
 ! D6    D(4,1,5,7)             59.288          estimate D2E/DX2                !
 --------------------------------------------------------------------------------
 Trust Radius=3.00D-01 FncErr=1.00D-07 GrdErr=1.00D-06
 Number of steps in this run=  31 maximum allowed number of steps= 100.
 GradGradGradGradGradGradGradGradGradGradGradGradGradGradGradGradGradGrad

                          Input orientation:                          
 ---------------------------------------------------------------------
 Center     Atomic      Atomic             Coordinates (Angstroms)
 Number     Number       Type             X           Y           Z
 ---------------------------------------------------------------------
      1          6           0        1.288062   -0.994165   -0.000010
      2          1           0        1.075666   -1.623738    0.882319
      3          1           0        2.368774   -0.773222   -0.000692
      4          1           0        1.074625   -1.624495   -0.881557
      5          6           0        0.478133    0.244015    0.000000
      6          8           0        0.819307    1.383143   -0.000002
      7         17           0       -1.274747   -0.149576    0.000000
 ---------------------------------------------------------------------
                    Distance matrix (angstroms):
                    1          2          3          4          5
     1  C    0.000000
     2  H    1.104526   0.000000
     3  H    1.103066   1.781913   0.000000
     4  H    1.104534   1.763876   1.781968   0.000000
     5  C    1.479552   2.150357   2.146927   2.150413   0.000000
     6  O    2.423082   3.144128   2.655326   3.144553   1.189122
     7  Cl   2.698392   2.911371   3.696509   2.910683   1.796525
                    6          7
     6  O    0.000000
     7  Cl   2.595051   0.000000
 Stoichiometry    C2H3ClO
 Framework group  C1[X(C2H3ClO)]
 Deg. of freedom    15
 Full point group                 C1      NOp   1
 Largest Abelian subgroup         C1      NOp   1
 Largest concise Abelian subgroup C1      NOp   1
                         Standard orientation:                         
 ---------------------------------------------------------------------
 Center     Atomic      Atomic             Coordinates (Angstroms)
 Number     Number       Type             X           Y           Z
 ---------------------------------------------------------------------
      1          6           0        1.288062   -0.994165   -0.000010
      2          1           0        1.075666   -1.623738    0.882319
      3          1           0        2.368774   -0.773223   -0.000692
      4          1           0        1.074625   -1.624495   -0.881557
      5          6           0        0.478133    0.244015    0.000000
      6          8           0        0.819308    1.383143   -0.000002
      7         17           0       -1.274747   -0.149575    0.000000
 ---------------------------------------------------------------------
 Rotational constants (GHZ):      9.9919059      5.0526701      3.4271023
 Standard basis: 6-31+G(d) (6D, 7F)
 There are    86 symmetry adapted basis functions of A   symmetry.
 Integral buffers will be    262144 words long.
 Raffenetti 2 integral format.
 Two-electron integral symmetry is turned on.
    86 basis functions,   164 primitive gaussians,    86 cartesian basis functions
    20 alpha electrons       20 beta electrons
       nuclear repulsion energy       149.3545439844 Hartrees.
 NAtoms=    7 NActive=    7 NUniq=    7 SFac= 7.50D-01 NAtFMM=   80 NAOKFM=F Big=F
 One-electron integrals computed using PRISM.
 NBasis=    86 RedAO= T  NBF=    86
 NBsUse=    86 1.00D-06 NBFU=    86
 Harris functional with IExCor=  402 diagonalized for initial guess.
 ExpMin= 4.38D-02 ExpMax= 2.52D+04 ExpMxC= 3.78D+03 IAcc=2 IRadAn=         0 AccDes= 0.00D+00
 HarFok:  IExCor=  402 AccDes= 0.00D+00 IRadAn=         0 IDoV= 1
 ScaDFX=  1.000000  1.000000  1.000000  1.000000
 FoFCou: FMM=F IPFlag=           0 FMFlag=      100000 FMFlg1=           0
         NFxFlg=           0 DoJE=T BraDBF=F KetDBF=T FulRan=T
         Omega=  0.000000  0.000000  1.000000  0.000000  0.000000 ICntrl=     500 IOpCl=  0
         NMat0=    1 NMatS0=    1 NMatT0=    0 NMatD0=    1 NMtDS0=    0 NMtDT0=    0
         I1Cent=           4 NGrid=           0.
 Petite list used in FoFCou.
 Initial guess orbital symmetries:
       Occupied  (A) (A) (A) (A) (A) (A) (A) (A) (A) (A) (A) (A)
                 (A) (A) (A) (A) (A) (A) (A) (A)
       Virtual   (A) (A) (A) (A) (A) (A) (A) (A) (A) (A) (A) (A)
                 (A) (A) (A) (A) (A) (A) (A) (A) (A) (A) (A) (A)
                 (A) (A) (A) (A) (A) (A) (A) (A) (A) (A) (A) (A)
                 (A) (A) (A) (A) (A) (A) (A) (A) (A) (A) (A) (A)
                 (A) (A) (A) (A) (A) (A) (A) (A) (A) (A) (A) (A)
                 (A) (A) (A) (A) (A) (A)
 The electronic state of the initial guess is 1-A.
 Requested convergence on RMS density matrix=1.00D-08 within 128 cycles.
 Requested convergence on MAX density matrix=1.00D-06.
 Requested convergence on             energy=1.00D-06.
 No special actions if energy rises.
 Keep R1 ints in memory in canonical form, NReq=8000763.
 SCF Done:  E(RB3LYP) =  -613.453276034     A.U. after   12 cycles
             Convg  =    0.3004D-08             -V/T =  2.0046

 **********************************************************************

            Population analysis using the SCF density.

 **********************************************************************

 Orbital symmetries:
       Occupied  (A) (A) (A) (A) (A) (A) (A) (A) (A) (A) (A) (A)
                 (A) (A) (A) (A) (A) (A) (A) (A)
       Virtual   (A) (A) (A) (A) (A) (A) (A) (A) (A) (A) (A) (A)
                 (A) (A) (A) (A) (A) (A) (A) (A) (A) (A) (A) (A)
                 (A) (A) (A) (A) (A) (A) (A) (A) (A) (A) (A) (A)
                 (A) (A) (A) (A) (A) (A) (A) (A) (A) (A) (A) (A)
                 (A) (A) (A) (A) (A) (A) (A) (A) (A) (A) (A) (A)
                 (A) (A) (A) (A) (A) (A)
 The electronic state is 1-A.
 Alpha  occ. eigenvalues -- -101.55727 -19.20103 -10.35646 -10.23361  -9.47455
 Alpha  occ. eigenvalues --   -7.23749  -7.22968  -7.22837  -1.11014  -0.86630
 Alpha  occ. eigenvalues --   -0.77698  -0.57803  -0.50540  -0.48962  -0.48817
 Alpha  occ. eigenvalues --   -0.42750  -0.41076  -0.33416  -0.33122  -0.30928
 Alpha virt. eigenvalues --   -0.05479  -0.00722   0.01238   0.03126   0.04388
 Alpha virt. eigenvalues --    0.04539   0.07849   0.08207   0.08754   0.08944
 Alpha virt. eigenvalues --    0.10158   0.12294   0.12904   0.15311   0.17191
 Alpha virt. eigenvalues --    0.20586   0.24520   0.26296   0.26863   0.27297
 Alpha virt. eigenvalues --    0.31111   0.32735   0.41817   0.54087   0.58183
 Alpha virt. eigenvalues --    0.59190   0.60047   0.62163   0.64575   0.67896
 Alpha virt. eigenvalues --    0.70545   0.72826   0.80184   0.85407   0.87408
 Alpha virt. eigenvalues --    0.87764   0.92112   0.97249   1.00008   1.06182
 Alpha virt. eigenvalues --    1.07492   1.10033   1.22937   1.26685   1.28947
 Alpha virt. eigenvalues --    1.38044   1.38174   1.53901   1.60392   1.72707
 Alpha virt. eigenvalues --    1.79411   1.81395   1.85760   2.01230   2.08302
 Alpha virt. eigenvalues --    2.15293   2.29639   2.38811   2.54688   2.58319
 Alpha virt. eigenvalues --    2.85836   3.10134   4.09468   4.18705   4.32319
 Alpha virt. eigenvalues --    4.42278
          Condensed to atoms (all electrons):
              1          2          3          4          5          6
     1  C    5.724332   0.363673   0.398595   0.363733   0.187247  -0.077379
     2  H    0.363673   0.459533  -0.023367  -0.023579  -0.027760   0.000558
     3  H    0.398595  -0.023367   0.466371  -0.023374  -0.069469   0.001820
     4  H    0.363733  -0.023579  -0.023374   0.459557  -0.027840   0.000571
     5  C    0.187247  -0.027760  -0.069469  -0.027840   4.953702   0.381019
     6  O   -0.077379   0.000558   0.001820   0.000571   0.381019   8.113664
     7  Cl  -0.117277  -0.000313   0.007028  -0.000297   0.188710  -0.113759
              7
     1  C   -0.117277
     2  H   -0.000313
     3  H    0.007028
     4  H   -0.000297
     5  C    0.188710
     6  O   -0.113759
     7  Cl  17.045762
 Mulliken atomic charges:
              1
     1  C   -0.842924
     2  H    0.251256
     3  H    0.242396
     4  H    0.251229
     5  C    0.414390
     6  O   -0.306494
     7  Cl  -0.009853
 Sum of Mulliken atomic charges =   0.00000
 Mulliken charges with hydrogens summed into heavy atoms:
              1
     1  C   -0.098043
     5  C    0.414390
     6  O   -0.306494
     7  Cl  -0.009853
 Sum of Mulliken charges with hydrogens summed into heavy atoms =   0.00000
 Electronic spatial extent (au):  <R**2>=            360.4996
 Charge=              0.0000 electrons
 Dipole moment (field-independent basis, Debye):
    X=              1.4980    Y=             -2.6608    Z=              0.0001  Tot=              3.0535
 Quadrupole moment (field-independent basis, Debye-Ang):
   XX=            -30.3153   YY=            -32.6473   ZZ=            -29.7617
   XY=             -3.0749   XZ=              0.0003   YZ=             -0.0002
 Traceless Quadrupole moment (field-independent basis, Debye-Ang):
   XX=              0.5928   YY=             -1.7392   ZZ=              1.1464
   XY=             -3.0749   XZ=              0.0003   YZ=             -0.0002
 Octapole moment (field-independent basis, Debye-Ang**2):
  XXX=              0.0332  YYY=             -3.4967  ZZZ=              0.0017  XYY=             -1.1058
  XXY=             -2.7180  XXZ=             -0.0007  XZZ=              0.6209  YZZ=              0.2028
  YYZ=             -0.0004  XYZ=             -0.0010
 Hexadecapole moment (field-independent basis, Debye-Ang**3):
 XXXX=           -255.5237 YYYY=           -160.6802 ZZZZ=            -38.1104 XXXY=              0.8001
 XXXZ=             -0.0042 YYYX=             -2.5662 YYYZ=              0.0021 ZZZX=              0.0029
 ZZZY=             -0.0026 XXYY=            -73.8938 XXZZ=            -52.8879 YYZZ=            -29.8369
 XXYZ=             -0.0013 YYXZ=              0.0018 ZZXY=              0.2368
 N-N= 1.493545439844D+02 E-N=-1.749885525866D+03  KE= 6.106359383976D+02
 Calling FoFJK, ICntrl=      2127 FMM=F ISym2X=0 I1Cent= 0 IOpClX= 0 NMat=1 NMatS=1 NMatT=0.
 ***** Axes restored to original set *****
 -------------------------------------------------------------------
 Center     Atomic                   Forces (Hartrees/Bohr)
 Number     Number              X              Y              Z
 -------------------------------------------------------------------
      1        6           0.022880591   -0.020041805   -0.000009742
      2        1          -0.002442029    0.005718965   -0.003727145
      3        1          -0.006236982    0.003220178    0.000003329
      4        1          -0.002432236    0.005729555    0.003734466
      5        6          -0.006522532    0.003517331   -0.000006061
      6        8           0.007334222    0.003317994    0.000001794
      7       17          -0.012581034   -0.001462218    0.000003358
 -------------------------------------------------------------------
 Cartesian Forces:  Max     0.022880591 RMS     0.008047040

 GradGradGradGradGradGradGradGradGradGradGradGradGradGradGradGradGradGrad
 Berny optimization.
 Internal  Forces:  Max     0.012598031 RMS     0.005755329
 Search for a local minimum.
 Step number   1 out of a maximum of   31
 All quantities printed in internal units (Hartrees-Bohrs-Radians)
 Mixed Optimization -- RFO/linear search
 Second derivative matrix not updated -- first step.
     Eigenvalues ---    0.01036   0.01036   0.07209   0.07279   0.16000
     Eigenvalues ---    0.16000   0.16000   0.25000   0.25000   0.26392
     Eigenvalues ---    0.33186   0.33186   0.33345   0.34621   1.10484
     Eigenvalues --- 1000.000001000.000001000.000001000.000001000.00000
     Eigenvalues --- 1000.00000
 RFO step:  Lambda=-2.67405057D-03 EMin= 1.03643270D-02
 Linear search not attempted -- first point.
 Iteration  1 RMS(Cart)=  0.02570592 RMS(Int)=  0.00047405
 Iteration  2 RMS(Cart)=  0.00041734 RMS(Int)=  0.00019074
 Iteration  3 RMS(Cart)=  0.00000009 RMS(Int)=  0.00019074
 Variable       Old X    -DE/DX   Delta X   Delta X   Delta X     New X
                                 (Linear)    (Quad)   (Total)
    R1        2.08725  -0.00577   0.00000  -0.01724  -0.01724   2.07001
    R2        2.08449  -0.00546   0.00000  -0.01626  -0.01626   2.06824
    R3        2.08727  -0.00578   0.00000  -0.01728  -0.01728   2.06999
    R4        2.79595   0.01094   0.00000   0.03135   0.03135   2.82730
    R5        2.24712   0.00528   0.00000   0.00477   0.00477   2.25188
    R6        3.39494   0.01260   0.00000   0.04725   0.04725   3.44220
    A1        1.87870   0.00486   0.00000   0.03207   0.03185   1.91055
    A2        1.84951   0.00376   0.00000   0.01861   0.01810   1.86761
    A3        1.95167  -0.00430   0.00000  -0.02763  -0.02801   1.92366
    A4        1.87878   0.00486   0.00000   0.03207   0.03184   1.91062
    A5        1.94841  -0.00388   0.00000  -0.02148  -0.02171   1.92669
    A6        1.95174  -0.00430   0.00000  -0.02761  -0.02799   1.92375
    A7        2.27132  -0.01059   0.00000  -0.04191  -0.04191   2.22941
    A8        1.92919   0.00754   0.00000   0.02985   0.02985   1.95904
    A9        2.08267   0.00305   0.00000   0.01206   0.01206   2.09474
    D1        2.10536   0.00051   0.00000   0.00674   0.00662   2.11197
    D2       -1.03625   0.00052   0.00000   0.00709   0.00697  -1.02928
    D3       -0.00065   0.00000   0.00000  -0.00008  -0.00008  -0.00073
    D4        3.14093   0.00000   0.00000   0.00027   0.00027   3.14120
    D5       -2.10681  -0.00052   0.00000  -0.00690  -0.00678  -2.11359
    D6        1.03477  -0.00051   0.00000  -0.00655  -0.00643   1.02834
         Item               Value     Threshold  Converged?
 Maximum Force            0.012598     0.000450     NO 
 RMS     Force            0.005755     0.000300     NO 
 Maximum Displacement     0.073990     0.001800     NO 
 RMS     Displacement     0.025772     0.001200     NO 
 Predicted change in Energy=-1.351815D-03
 GradGradGradGradGradGradGradGradGradGradGradGradGradGradGradGradGradGrad

                          Input orientation:                          
 ---------------------------------------------------------------------
 Center     Atomic      Atomic             Coordinates (Angstroms)
 Number     Number       Type             X           Y           Z
 ---------------------------------------------------------------------
      1          6           0        1.305771   -1.008213   -0.000040
      2          1           0        1.078121   -1.618121    0.880921
      3          1           0        2.369594   -0.751052   -0.000611
      4          1           0        1.077292   -1.618903   -0.880229
      5          6           0        0.469551    0.232423   -0.000122
      6          8           0        0.843391    1.363911   -0.000013
      7         17           0       -1.313901   -0.138084    0.000153
 ---------------------------------------------------------------------
                    Distance matrix (angstroms):
                    1          2          3          4          5
     1  C    0.000000
     2  H    1.095402   0.000000
     3  H    1.094464   1.787963   0.000000
     4  H    1.095389   1.761150   1.787999   0.000000
     5  C    1.496143   2.138015   2.139483   2.138071   0.000000
     6  O    2.416768   3.118277   2.608134   3.118761   1.191646
     7  Cl   2.760400   2.947546   3.734149   2.947151   1.821531
                    6          7
     6  O    0.000000
     7  Cl   2.628668   0.000000
 Stoichiometry    C2H3ClO
 Framework group  C1[X(C2H3ClO)]
 Deg. of freedom    15
 Full point group                 C1      NOp   1
 Largest Abelian subgroup         C1      NOp   1
 Largest concise Abelian subgroup C1      NOp   1
                         Standard orientation:                         
 ---------------------------------------------------------------------
 Center     Atomic      Atomic             Coordinates (Angstroms)
 Number     Number       Type             X           Y           Z
 ---------------------------------------------------------------------
      1          6           0        1.324442   -0.995204   -0.000080
      2          1           0        1.101896   -1.606993    0.880881
      3          1           0        2.386078   -0.729160   -0.000651
      4          1           0        1.101074   -1.607783   -0.880269
      5          6           0        0.477881    0.238400   -0.000162
      6          8           0        0.842251    1.372972   -0.000053
      7         17           0       -1.302412   -0.147001    0.000113
 ---------------------------------------------------------------------
 Rotational constants (GHZ):     10.1086212      4.8421859      3.3415931
 Standard basis: 6-31+G(d) (6D, 7F)
 There are    86 symmetry adapted basis functions of A   symmetry.
 Integral buffers will be    262144 words long.
 Raffenetti 2 integral format.
 Two-electron integral symmetry is turned on.
    86 basis functions,   164 primitive gaussians,    86 cartesian basis functions
    20 alpha electrons       20 beta electrons
       nuclear repulsion energy       148.0191279608 Hartrees.
 NAtoms=    7 NActive=    7 NUniq=    7 SFac= 7.50D-01 NAtFMM=   80 NAOKFM=F Big=F
 One-electron integrals computed using PRISM.
 NBasis=    86 RedAO= T  NBF=    86
 NBsUse=    86 1.00D-06 NBFU=    86
 Initial guess read from the read-write file.
 B after Tr=     0.000000    0.000000    0.000000
         Rot=    1.000000    0.000000    0.000000    0.000000 Ang=   0.00 deg.
 Initial guess orbital symmetries:
       Occupied  (A) (A) (A) (A) (A) (A) (A) (A) (A) (A) (A) (A)
                 (A) (A) (A) (A) (A) (A) (A) (A)
       Virtual   (A) (A) (A) (A) (A) (A) (A) (A) (A) (A) (A) (A)
                 (A) (A) (A) (A) (A) (A) (A) (A) (A) (A) (A) (A)
                 (A) (A) (A) (A) (A) (A) (A) (A) (A) (A) (A) (A)
                 (A) (A) (A) (A) (A) (A) (A) (A) (A) (A) (A) (A)
                 (A) (A) (A) (A) (A) (A) (A) (A) (A) (A) (A) (A)
                 (A) (A) (A) (A) (A) (A)
 Harris functional with IExCor=  402 diagonalized for initial guess.
 ExpMin= 4.38D-02 ExpMax= 2.52D+04 ExpMxC= 3.78D+03 IAcc=2 IRadAn=         0 AccDes= 0.00D+00
 HarFok:  IExCor=  402 AccDes= 0.00D+00 IRadAn=         0 IDoV= 1
 ScaDFX=  1.000000  1.000000  1.000000  1.000000
 FoFCou: FMM=F IPFlag=           0 FMFlag=      100000 FMFlg1=           0
         NFxFlg=           0 DoJE=T BraDBF=F KetDBF=T FulRan=T
         Omega=  0.000000  0.000000  1.000000  0.000000  0.000000 ICntrl=     500 IOpCl=  0
         NMat0=    1 NMatS0=    1 NMatT0=    0 NMatD0=    1 NMtDS0=    0 NMtDT0=    0
         I1Cent=           4 NGrid=           0.
 Petite list used in FoFCou.
 Requested convergence on RMS density matrix=1.00D-08 within 128 cycles.
 Requested convergence on MAX density matrix=1.00D-06.
 Requested convergence on             energy=1.00D-06.
 No special actions if energy rises.
 Keep R1 ints in memory in canonical form, NReq=8000763.
 SCF Done:  E(RB3LYP) =  -613.454803104     A.U. after   10 cycles
             Convg  =    0.4431D-08             -V/T =  2.0047
 Calling FoFJK, ICntrl=      2127 FMM=F ISym2X=0 I1Cent= 0 IOpClX= 0 NMat=1 NMatS=1 NMatT=0.
 ***** Axes restored to original set *****
 -------------------------------------------------------------------
 Center     Atomic                   Forces (Hartrees/Bohr)
 Number     Number              X              Y              Z
 -------------------------------------------------------------------
      1        6           0.004753608   -0.006088781   -0.000009830
      2        1          -0.001007890    0.000625807    0.000063350
      3        1          -0.001683884    0.001928376   -0.000000512
      4        1          -0.001004248    0.000621847   -0.000064777
      5        6           0.000817897    0.004895096    0.000032023
      6        8          -0.000644443   -0.001707901   -0.000013694
      7       17          -0.001231040   -0.000274445   -0.000006560
 -------------------------------------------------------------------
 Cartesian Forces:  Max     0.006088781 RMS     0.002166743

 GradGradGradGradGradGradGradGradGradGradGradGradGradGradGradGradGradGrad
 Berny optimization.
 Using GEDIIS/GDIIS optimizer.
 Internal  Forces:  Max     0.003005636 RMS     0.001240610
 Search for a local minimum.
 Step number   2 out of a maximum of   31
 All quantities printed in internal units (Hartrees-Bohrs-Radians)
 Mixed Optimization -- RFO/linear search
 Update second derivatives using D2CorX and points    1    2
 DE= -1.53D-03 DEPred=-1.35D-03 R= 1.13D+00
 SS=  1.41D+00  RLast= 1.07D-01 DXNew= 5.0454D-01 3.2125D-01
 Trust test= 1.13D+00 RLast= 1.07D-01 DXMaxT set to 3.21D-01
 Use linear search instead of GDIIS.
     Eigenvalues ---    0.01036   0.01036   0.07458   0.07612   0.13167
     Eigenvalues ---    0.16000   0.16162   0.25000   0.25751   0.26951
     Eigenvalues ---    0.32479   0.33186   0.33524   0.34136   1.11717
     Eigenvalues --- 1000.000001000.000001000.000001000.000001000.00000
     Eigenvalues --- 1000.00000
 RFO step:  Lambda=-1.18119722D-04 EMin= 1.03643210D-02
 Quartic linear search produced a step of  0.18307.
 Iteration  1 RMS(Cart)=  0.00750617 RMS(Int)=  0.00012373
 Iteration  2 RMS(Cart)=  0.00008941 RMS(Int)=  0.00007379
 Iteration  3 RMS(Cart)=  0.00000001 RMS(Int)=  0.00007379
 Variable       Old X    -DE/DX   Delta X   Delta X   Delta X     New X
                                 (Linear)    (Quad)   (Total)
    R1        2.07001  -0.00009  -0.00316   0.00206  -0.00110   2.06891
    R2        2.06824  -0.00118  -0.00298  -0.00196  -0.00493   2.06330
    R3        2.06999  -0.00009  -0.00316   0.00207  -0.00109   2.06889
    R4        2.82730   0.00301   0.00574   0.00595   0.01169   2.83899
    R5        2.25188  -0.00182   0.00087  -0.00262  -0.00174   2.25014
    R6        3.44220   0.00126   0.00865  -0.00081   0.00784   3.45003
    A1        1.91055   0.00188   0.00583   0.00961   0.01530   1.92585
    A2        1.86761   0.00090   0.00331   0.00431   0.00749   1.87509
    A3        1.92366  -0.00088  -0.00513  -0.00271  -0.00797   1.91569
    A4        1.91062   0.00188   0.00583   0.00960   0.01529   1.92591
    A5        1.92669  -0.00274  -0.00397  -0.01725  -0.02136   1.90533
    A6        1.92375  -0.00088  -0.00512  -0.00265  -0.00791   1.91585
    A7        2.22941   0.00014  -0.00767   0.00642  -0.00125   2.22815
    A8        1.95904  -0.00011   0.00546  -0.00461   0.00086   1.95990
    A9        2.09474  -0.00003   0.00221  -0.00181   0.00040   2.09513
    D1        2.11197  -0.00001   0.00121  -0.00010   0.00111   2.11308
    D2       -1.02928  -0.00002   0.00128  -0.00185  -0.00057  -1.02985
    D3       -0.00073   0.00001  -0.00001   0.00092   0.00090   0.00017
    D4        3.14120  -0.00001   0.00005  -0.00083  -0.00078   3.14043
    D5       -2.11359   0.00002  -0.00124   0.00192   0.00068  -2.11291
    D6        1.02834   0.00001  -0.00118   0.00018  -0.00100   1.02734
         Item               Value     Threshold  Converged?
 Maximum Force            0.003006     0.000450     NO 
 RMS     Force            0.001241     0.000300     NO 
 Maximum Displacement     0.024887     0.001800     NO 
 RMS     Displacement     0.007525     0.001200     NO 
 Predicted change in Energy=-9.357874D-05
 GradGradGradGradGradGradGradGradGradGradGradGradGradGradGradGradGradGrad

                          Input orientation:                          
 ---------------------------------------------------------------------
 Center     Atomic      Atomic             Coordinates (Angstroms)
 Number     Number       Type             X           Y           Z
 ---------------------------------------------------------------------
      1          6           0        1.309967   -1.015782    0.000043
      2          1           0        1.075948   -1.619408    0.882936
      3          1           0        2.365862   -0.737882   -0.000767
      4          1           0        1.074672   -1.619929   -0.882144
      5          6           0        0.471775    0.230985    0.000414
      6          8           0        0.848090    1.360678   -0.000222
      7         17           0       -1.316495   -0.136700   -0.000203
 ---------------------------------------------------------------------
                    Distance matrix (angstroms):
                    1          2          3          4          5
     1  C    0.000000
     2  H    1.094819   0.000000
     3  H    1.091853   1.794965   0.000000
     4  H    1.094811   1.765080   1.794994   0.000000
     5  C    1.502330   2.137246   2.127503   2.137353   0.000000
     6  O    2.420929   3.116537   2.589901   3.116592   1.190723
     7  Cl   2.769673   2.949938   3.731109   2.948807   1.825678
                    6          7
     6  O    0.000000
     7  Cl   2.632028   0.000000
 Stoichiometry    C2H3ClO
 Framework group  C1[X(C2H3ClO)]
 Deg. of freedom    15
 Full point group                 C1      NOp   1
 Largest Abelian subgroup         C1      NOp   1
 Largest concise Abelian subgroup C1      NOp   1
                         Standard orientation:                         
 ---------------------------------------------------------------------
 Center     Atomic      Atomic             Coordinates (Angstroms)
 Number     Number       Type             X           Y           Z
 ---------------------------------------------------------------------
      1          6           0        1.329591   -0.999631    0.000105
      2          1           0        1.101524   -1.605531    0.882998
      3          1           0        2.382699   -0.711350   -0.000706
      4          1           0        1.100254   -1.606064   -0.882082
      5          6           0        0.479166    0.238825    0.000476
      6          8           0        0.844343    1.372168   -0.000160
      7         17           0       -1.305398   -0.146445   -0.000142
 ---------------------------------------------------------------------
 Rotational constants (GHZ):     10.0973237      4.8200160      3.3300988
 Standard basis: 6-31+G(d) (6D, 7F)
 There are    86 symmetry adapted basis functions of A   symmetry.
 Integral buffers will be    262144 words long.
 Raffenetti 2 integral format.
 Two-electron integral symmetry is turned on.
    86 basis functions,   164 primitive gaussians,    86 cartesian basis functions
    20 alpha electrons       20 beta electrons
       nuclear repulsion energy       147.8247497806 Hartrees.
 NAtoms=    7 NActive=    7 NUniq=    7 SFac= 7.50D-01 NAtFMM=   80 NAOKFM=F Big=F
 One-electron integrals computed using PRISM.
 NBasis=    86 RedAO= T  NBF=    86
 NBsUse=    86 1.00D-06 NBFU=    86
 Initial guess read from the read-write file.
 B after Tr=     0.000000    0.000000    0.000000
         Rot=    1.000000    0.000000    0.000000    0.000000 Ang=   0.00 deg.
 Initial guess orbital symmetries:
       Occupied  (A) (A) (A) (A) (A) (A) (A) (A) (A) (A) (A) (A)
                 (A) (A) (A) (A) (A) (A) (A) (A)
       Virtual   (A) (A) (A) (A) (A) (A) (A) (A) (A) (A) (A) (A)
                 (A) (A) (A) (A) (A) (A) (A) (A) (A) (A) (A) (A)
                 (A) (A) (A) (A) (A) (A) (A) (A) (A) (A) (A) (A)
                 (A) (A) (A) (A) (A) (A) (A) (A) (A) (A) (A) (A)
                 (A) (A) (A) (A) (A) (A) (A) (A) (A) (A) (A) (A)
                 (A) (A) (A) (A) (A) (A)
 Harris functional with IExCor=  402 diagonalized for initial guess.
 ExpMin= 4.38D-02 ExpMax= 2.52D+04 ExpMxC= 3.78D+03 IAcc=2 IRadAn=         0 AccDes= 0.00D+00
 HarFok:  IExCor=  402 AccDes= 0.00D+00 IRadAn=         0 IDoV= 1
 ScaDFX=  1.000000  1.000000  1.000000  1.000000
 FoFCou: FMM=F IPFlag=           0 FMFlag=      100000 FMFlg1=           0
         NFxFlg=           0 DoJE=T BraDBF=F KetDBF=T FulRan=T
         Omega=  0.000000  0.000000  1.000000  0.000000  0.000000 ICntrl=     500 IOpCl=  0
         NMat0=    1 NMatS0=    1 NMatT0=    0 NMatD0=    1 NMtDS0=    0 NMtDT0=    0
         I1Cent=           4 NGrid=           0.
 Petite list used in FoFCou.
 Requested convergence on RMS density matrix=1.00D-08 within 128 cycles.
 Requested convergence on MAX density matrix=1.00D-06.
 Requested convergence on             energy=1.00D-06.
 No special actions if energy rises.
 Keep R1 ints in memory in canonical form, NReq=8000763.
 SCF Done:  E(RB3LYP) =  -613.454903184     A.U. after   10 cycles
             Convg  =    0.2811D-08             -V/T =  2.0047
 Calling FoFJK, ICntrl=      2127 FMM=F ISym2X=0 I1Cent= 0 IOpClX= 0 NMat=1 NMatS=1 NMatT=0.
 ***** Axes restored to original set *****
 -------------------------------------------------------------------
 Center     Atomic                   Forces (Hartrees/Bohr)
 Number     Number              X              Y              Z
 -------------------------------------------------------------------
      1        6          -0.000062567   -0.000806100    0.000057047
      2        1          -0.000023188    0.000026786    0.000065879
      3        1           0.000325018    0.000053047    0.000003732
      4        1          -0.000034890    0.000047709   -0.000066984
      5        6           0.000539189    0.001758194   -0.000157578
      6        8          -0.000568772   -0.000984594    0.000060741
      7       17          -0.000174790   -0.000095042    0.000037162
 -------------------------------------------------------------------
 Cartesian Forces:  Max     0.001758194 RMS     0.000512853

 GradGradGradGradGradGradGradGradGradGradGradGradGradGradGradGradGradGrad
 Berny optimization.
 Using GEDIIS/GDIIS optimizer.
 Internal  Forces:  Max     0.001114840 RMS     0.000321295
 Search for a local minimum.
 Step number   3 out of a maximum of   31
 All quantities printed in internal units (Hartrees-Bohrs-Radians)
 Mixed Optimization -- En-DIIS/RFO-DIIS
 Update second derivatives using D2CorX and points    1    2    3
 DE= -1.00D-04 DEPred=-9.36D-05 R= 1.07D+00
 SS=  1.41D+00  RLast= 3.66D-02 DXNew= 5.4027D-01 1.0987D-01
 Trust test= 1.07D+00 RLast= 3.66D-02 DXMaxT set to 3.21D-01
 Use linear search instead of GDIIS.
     Eigenvalues ---    0.01036   0.01038   0.07631   0.07705   0.12704
     Eigenvalues ---    0.16001   0.16345   0.25000   0.25339   0.27213
     Eigenvalues ---    0.31758   0.33186   0.33641   0.34118   1.11167
     Eigenvalues --- 1000.000001000.000001000.000001000.000001000.00000
     Eigenvalues --- 1000.00000
 RFO step:  Lambda=-4.96042523D-06 EMin= 1.03642214D-02
 Quartic linear search produced a step of  0.05176.
 Iteration  1 RMS(Cart)=  0.00185688 RMS(Int)=  0.00000631
 Iteration  2 RMS(Cart)=  0.00000540 RMS(Int)=  0.00000387
 Iteration  3 RMS(Cart)=  0.00000000 RMS(Int)=  0.00000387
 Variable       Old X    -DE/DX   Delta X   Delta X   Delta X     New X
                                 (Linear)    (Quad)   (Total)
    R1        2.06891   0.00004  -0.00006   0.00007   0.00001   2.06892
    R2        2.06330   0.00033  -0.00026   0.00109   0.00083   2.06414
    R3        2.06889   0.00003  -0.00006   0.00004  -0.00001   2.06888
    R4        2.83899   0.00068   0.00061   0.00186   0.00247   2.84146
    R5        2.25014  -0.00111  -0.00009  -0.00097  -0.00106   2.24908
    R6        3.45003   0.00019   0.00041   0.00079   0.00119   3.45123
    A1        1.92585   0.00000   0.00079  -0.00025   0.00054   1.92639
    A2        1.87509   0.00008   0.00039   0.00043   0.00081   1.87591
    A3        1.91569  -0.00007  -0.00041  -0.00034  -0.00075   1.91494
    A4        1.92591   0.00001   0.00079  -0.00021   0.00057   1.92648
    A5        1.90533   0.00007  -0.00111   0.00097  -0.00014   1.90519
    A6        1.91585  -0.00011  -0.00041  -0.00062  -0.00104   1.91481
    A7        2.22815   0.00042  -0.00006   0.00154   0.00147   2.22962
    A8        1.95990  -0.00031   0.00004  -0.00116  -0.00113   1.95877
    A9        2.09513  -0.00010   0.00002  -0.00037  -0.00036   2.09477
    D1        2.11308  -0.00003   0.00006  -0.00357  -0.00352   2.10957
    D2       -1.02985   0.00004  -0.00003   0.00408   0.00405  -1.02580
    D3        0.00017  -0.00004   0.00005  -0.00366  -0.00362  -0.00345
    D4        3.14043   0.00004  -0.00004   0.00398   0.00394  -3.13882
    D5       -2.11291  -0.00003   0.00004  -0.00362  -0.00359  -2.11650
    D6        1.02734   0.00004  -0.00005   0.00403   0.00397   1.03132
         Item               Value     Threshold  Converged?
 Maximum Force            0.001115     0.000450     NO 
 RMS     Force            0.000321     0.000300     NO 
 Maximum Displacement     0.004655     0.001800     NO 
 RMS     Displacement     0.001858     0.001200     NO 
 Predicted change in Energy=-2.723705D-06
 GradGradGradGradGradGradGradGradGradGradGradGradGradGradGradGradGradGrad

                          Input orientation:                          
 ---------------------------------------------------------------------
 Center     Atomic      Atomic             Coordinates (Angstroms)
 Number     Number       Type             X           Y           Z
 ---------------------------------------------------------------------
      1          6           0        1.310468   -1.016394   -0.000325
      2          1           0        1.074273   -1.618763    0.882855
      3          1           0        2.366882   -0.738735    0.000171
      4          1           0        1.075408   -1.620270   -0.882752
      5          6           0        0.472142    0.231854   -0.002049
      6          8           0        0.847151    1.361386    0.000442
      7         17           0       -1.316504   -0.137116    0.001715
 ---------------------------------------------------------------------
                    Distance matrix (angstroms):
                    1          2          3          4          5
     1  C    0.000000
     2  H    1.094826   0.000000
     3  H    1.092294   1.795667   0.000000
     4  H    1.094804   1.765608   1.795707   0.000000
     5  C    1.503635   2.137850   2.128869   2.137740   0.000000
     6  O    2.422500   3.116332   2.592314   3.118078   1.190160
     7  Cl   2.770220   2.947456   3.732195   2.950131   1.826310
                    6          7
     6  O    0.000000
     7  Cl   2.631903   0.000000
 Stoichiometry    C2H3ClO
 Framework group  C1[X(C2H3ClO)]
 Deg. of freedom    15
 Full point group                 C1      NOp   1
 Largest Abelian subgroup         C1      NOp   1
 Largest concise Abelian subgroup C1      NOp   1
                         Standard orientation:                         
 ---------------------------------------------------------------------
 Center     Atomic      Atomic             Coordinates (Angstroms)
 Number     Number       Type             X           Y           Z
 ---------------------------------------------------------------------
      1          6           0        1.330237   -1.000120    0.000332
      2          1           0        1.099300   -1.604782    0.883335
      3          1           0        2.383843   -0.711990    0.001694
      4          1           0        1.101912   -1.606320   -0.882270
      5          6           0        0.479567    0.239747   -0.002126
      6          8           0        0.843345    1.372946    0.000640
      7         17           0       -1.305332   -0.146955    0.000169
 ---------------------------------------------------------------------
 Rotational constants (GHZ):     10.0860781      4.8200862      3.3289520
 Standard basis: 6-31+G(d) (6D, 7F)
 There are    86 symmetry adapted basis functions of A   symmetry.
 Integral buffers will be    262144 words long.
 Raffenetti 2 integral format.
 Two-electron integral symmetry is turned on.
    86 basis functions,   164 primitive gaussians,    86 cartesian basis functions
    20 alpha electrons       20 beta electrons
       nuclear repulsion energy       147.7995311714 Hartrees.
 NAtoms=    7 NActive=    7 NUniq=    7 SFac= 7.50D-01 NAtFMM=   80 NAOKFM=F Big=F
 One-electron integrals computed using PRISM.
 NBasis=    86 RedAO= T  NBF=    86
 NBsUse=    86 1.00D-06 NBFU=    86
 Initial guess read from the read-write file.
 B after Tr=     0.000000    0.000000    0.000000
         Rot=    1.000000    0.000000    0.000000    0.000000 Ang=   0.00 deg.
 Initial guess orbital symmetries:
       Occupied  (A) (A) (A) (A) (A) (A) (A) (A) (A) (A) (A) (A)
                 (A) (A) (A) (A) (A) (A) (A) (A)
       Virtual   (A) (A) (A) (A) (A) (A) (A) (A) (A) (A) (A) (A)
                 (A) (A) (A) (A) (A) (A) (A) (A) (A) (A) (A) (A)
                 (A) (A) (A) (A) (A) (A) (A) (A) (A) (A) (A) (A)
                 (A) (A) (A) (A) (A) (A) (A) (A) (A) (A) (A) (A)
                 (A) (A) (A) (A) (A) (A) (A) (A) (A) (A) (A) (A)
                 (A) (A) (A) (A) (A) (A)
 Requested convergence on RMS density matrix=1.00D-08 within 128 cycles.
 Requested convergence on MAX density matrix=1.00D-06.
 Requested convergence on             energy=1.00D-06.
 No special actions if energy rises.
 Keep R1 ints in memory in canonical form, NReq=8000763.
 SCF Done:  E(RB3LYP) =  -613.454904547     A.U. after    9 cycles
             Convg  =    0.6789D-08             -V/T =  2.0047
 Calling FoFJK, ICntrl=      2127 FMM=F ISym2X=0 I1Cent= 0 IOpClX= 0 NMat=1 NMatS=1 NMatT=0.
 ***** Axes restored to original set *****
 -------------------------------------------------------------------
 Center     Atomic                   Forces (Hartrees/Bohr)
 Number     Number              X              Y              Z
 -------------------------------------------------------------------
      1        6          -0.000163550   -0.000069779   -0.000240676
      2        1          -0.000007228    0.000060555    0.000021677
      3        1           0.000045458   -0.000044667   -0.000017244
      4        1           0.000046317   -0.000027612   -0.000026475
      5        6           0.000394080    0.000497013    0.000697921
      6        8          -0.000175224   -0.000323991   -0.000273053
      7       17          -0.000139852   -0.000091518   -0.000162150
 -------------------------------------------------------------------
 Cartesian Forces:  Max     0.000697921 RMS     0.000244518

 GradGradGradGradGradGradGradGradGradGradGradGradGradGradGradGradGradGrad
 Berny optimization.
 Using GEDIIS/GDIIS optimizer.
 Internal  Forces:  Max     0.000364165 RMS     0.000142105
 Search for a local minimum.
 Step number   4 out of a maximum of   31
 All quantities printed in internal units (Hartrees-Bohrs-Radians)
 Mixed Optimization -- En-DIIS/RFO-DIIS
 Swaping is turned off.
 Update second derivatives using D2CorX and points    1    2    3    4
 DE= -1.36D-06 DEPred=-2.72D-06 R= 5.00D-01
 SS=  1.41D+00  RLast= 1.01D-02 DXNew= 5.4027D-01 3.0283D-02
 Trust test= 5.00D-01 RLast= 1.01D-02 DXMaxT set to 3.21D-01
     Eigenvalues ---    0.01036   0.02697   0.07634   0.07736   0.10223
     Eigenvalues ---    0.16235   0.16339   0.19638   0.25121   0.26855
     Eigenvalues ---    0.31480   0.33067   0.33268   0.33821   0.98816
     Eigenvalues --- 1000.000001000.000001000.000001000.000001000.00000
     Eigenvalues --- 1000.00000
 En-DIIS/RFO-DIIS IScMMF=        0 using points:     4    3
 RFO step:  Lambda=-1.58599947D-06.
 DIIS coeffs:      0.66811      0.33189
 Iteration  1 RMS(Cart)=  0.00292059 RMS(Int)=  0.00001482
 Iteration  2 RMS(Cart)=  0.00001425 RMS(Int)=  0.00000737
 Iteration  3 RMS(Cart)=  0.00000000 RMS(Int)=  0.00000737
 Variable       Old X    -DE/DX   Delta X   Delta X   Delta X     New X
                                  (DIIS)     (GDIIS)  (Total)
    R1        2.06892  -0.00001   0.00000  -0.00011  -0.00011   2.06881
    R2        2.06414   0.00003  -0.00028   0.00117   0.00089   2.06503
    R3        2.06888   0.00003   0.00000  -0.00006  -0.00006   2.06882
    R4        2.84146   0.00002  -0.00082   0.00443   0.00361   2.84507
    R5        2.24908  -0.00036   0.00035  -0.00195  -0.00159   2.24748
    R6        3.45123   0.00016  -0.00040   0.00271   0.00232   3.45354
    A1        1.92639  -0.00001  -0.00018   0.00133   0.00115   1.92754
    A2        1.87591   0.00003  -0.00027   0.00176   0.00148   1.87739
    A3        1.91494  -0.00010   0.00025  -0.00198  -0.00173   1.91321
    A4        1.92648  -0.00006  -0.00019   0.00126   0.00107   1.92755
    A5        1.90519   0.00007   0.00005  -0.00071  -0.00067   1.90452
    A6        1.91481   0.00007   0.00034  -0.00166  -0.00132   1.91350
    A7        2.22962   0.00018  -0.00049   0.00264   0.00213   2.23175
    A8        1.95877  -0.00020   0.00037  -0.00216  -0.00181   1.95697
    A9        2.09477   0.00002   0.00012  -0.00042  -0.00032   2.09445
    D1        2.10957   0.00015   0.00117   0.00494   0.00611   2.11567
    D2       -1.02580  -0.00019  -0.00134  -0.00508  -0.00643  -1.03223
    D3       -0.00345   0.00017   0.00120   0.00498   0.00618   0.00273
    D4       -3.13882  -0.00016  -0.00131  -0.00504  -0.00635   3.13802
    D5       -2.11650   0.00016   0.00119   0.00491   0.00610  -2.11040
    D6        1.03132  -0.00017  -0.00132  -0.00511  -0.00643   1.02489
         Item               Value     Threshold  Converged?
 Maximum Force            0.000364     0.000450     YES
 RMS     Force            0.000142     0.000300     YES
 Maximum Displacement     0.007677     0.001800     NO 
 RMS     Displacement     0.002924     0.001200     NO 
 Predicted change in Energy=-4.037044D-06
 GradGradGradGradGradGradGradGradGradGradGradGradGradGradGradGradGradGrad

                          Input orientation:                          
 ---------------------------------------------------------------------
 Center     Atomic      Atomic             Coordinates (Angstroms)
 Number     Number       Type             X           Y           Z
 ---------------------------------------------------------------------
      1          6           0        1.311259   -1.017403    0.000296
      2          1           0        1.075407   -1.619296    0.883820
      3          1           0        2.368161   -0.739745   -0.001281
      4          1           0        1.072695   -1.619049   -0.882674
      5          6           0        0.472848    0.233090    0.002014
      6          8           0        0.846070    1.362325   -0.000781
      7         17           0       -1.316620   -0.137961   -0.001335
 ---------------------------------------------------------------------
                    Distance matrix (angstroms):
                    1          2          3          4          5
     1  C    0.000000
     2  H    1.094767   0.000000
     3  H    1.092766   1.796726   0.000000
     4  H    1.094773   1.766496   1.796737   0.000000
     5  C    1.505545   2.138222   2.130406   2.138436   0.000000
     6  O    2.424770   3.118522   2.595277   3.117321   1.189317
     7  Cl   2.771131   2.949516   3.733598   2.946049   1.827535
                    6          7
     6  O    0.000000
     7  Cl   2.632126   0.000000
 Stoichiometry    C2H3ClO
 Framework group  C1[X(C2H3ClO)]
 Deg. of freedom    15
 Full point group                 C1      NOp   1
 Largest Abelian subgroup         C1      NOp   1
 Largest concise Abelian subgroup C1      NOp   1
                         Standard orientation:                         
 ---------------------------------------------------------------------
 Center     Atomic      Atomic             Coordinates (Angstroms)
 Number     Number       Type             X           Y           Z
 ---------------------------------------------------------------------
      1          6           0       -1.330898   -1.001223    0.000354
      2          1           0       -1.101469   -1.605563   -0.883191
      3          1           0       -2.385045   -0.713286    0.002530
      4          1           0       -1.097654   -1.604986    0.883301
      5          6           0       -0.480352    0.241046   -0.002144
      6          8           0       -0.842558    1.373863    0.000648
      7         17           0        1.305420   -0.147412    0.000171
 ---------------------------------------------------------------------
 Rotational constants (GHZ):     10.0700362      4.8191416      3.3268218
 Standard basis: 6-31+G(d) (6D, 7F)
 There are    86 symmetry adapted basis functions of A   symmetry.
 Integral buffers will be    262144 words long.
 Raffenetti 2 integral format.
 Two-electron integral symmetry is turned on.
    86 basis functions,   164 primitive gaussians,    86 cartesian basis functions
    20 alpha electrons       20 beta electrons
       nuclear repulsion energy       147.7555935619 Hartrees.
 NAtoms=    7 NActive=    7 NUniq=    7 SFac= 7.50D-01 NAtFMM=   80 NAOKFM=F Big=F
 One-electron integrals computed using PRISM.
 NBasis=    86 RedAO= T  NBF=    86
 NBsUse=    86 1.00D-06 NBFU=    86
 Initial guess read from the read-write file.
 B after Tr=     0.000000    0.000000    0.000000
         Rot=    1.000000    0.000000    0.000000    0.000000 Ang=   0.00 deg.
 Initial guess orbital symmetries:
       Occupied  (A) (A) (A) (A) (A) (A) (A) (A) (A) (A) (A) (A)
                 (A) (A) (A) (A) (A) (A) (A) (A)
       Virtual   (A) (A) (A) (A) (A) (A) (A) (A) (A) (A) (A) (A)
                 (A) (A) (A) (A) (A) (A) (A) (A) (A) (A) (A) (A)
                 (A) (A) (A) (A) (A) (A) (A) (A) (A) (A) (A) (A)
                 (A) (A) (A) (A) (A) (A) (A) (A) (A) (A) (A) (A)
                 (A) (A) (A) (A) (A) (A) (A) (A) (A) (A) (A) (A)
                 (A) (A) (A) (A) (A) (A)
 Requested convergence on RMS density matrix=1.00D-08 within 128 cycles.
 Requested convergence on MAX density matrix=1.00D-06.
 Requested convergence on             energy=1.00D-06.
 No special actions if energy rises.
 Keep R1 ints in memory in canonical form, NReq=8000763.
 SCF Done:  E(RB3LYP) =  -613.454902411     A.U. after   13 cycles
             Convg  =    0.5226D-08             -V/T =  2.0047
 Calling FoFJK, ICntrl=      2127 FMM=F ISym2X=0 I1Cent= 0 IOpClX= 0 NMat=1 NMatS=1 NMatT=0.
 ***** Axes restored to original set *****
 -------------------------------------------------------------------
 Center     Atomic                   Forces (Hartrees/Bohr)
 Number     Number              X              Y              Z
 -------------------------------------------------------------------
      1        6          -0.000430774    0.001077417    0.000250075
      2        1           0.000131600   -0.000095455   -0.000027321
      3        1          -0.000241463   -0.000207874    0.000018211
      4        1           0.000078131   -0.000003746    0.000029385
      5        6           0.000126032   -0.001371139   -0.000713632
      6        8           0.000356197    0.000646911    0.000275965
      7       17          -0.000019722   -0.000046113    0.000167316
 -------------------------------------------------------------------
 Cartesian Forces:  Max     0.001371139 RMS     0.000468135

 GradGradGradGradGradGradGradGradGradGradGradGradGradGradGradGradGradGrad
 Berny optimization.
 Using GEDIIS/GDIIS optimizer.
 Internal  Forces:  Max     0.000898319 RMS     0.000288745
 Search for a local minimum.
 Step number   5 out of a maximum of   31
 All quantities printed in internal units (Hartrees-Bohrs-Radians)
 Mixed Optimization -- En-DIIS/RFO-DIIS
 Swaping is turned off.
 Update second derivatives using D2CorX and points    1    2    3    4    5
 DE=  2.14D-06 DEPred=-4.04D-06 R=-5.29D-01
 Trust test=-5.29D-01 RLast= 1.66D-02 DXMaxT set to 1.61D-01
     Eigenvalues ---    0.01036   0.04548   0.07657   0.07726   0.08838
     Eigenvalues ---    0.15304   0.16532   0.19112   0.25169   0.26252
     Eigenvalues ---    0.31913   0.33210   0.33895   0.37772   1.01174
     Eigenvalues --- 1000.000001000.000001000.000001000.000001000.00000
     Eigenvalues --- 1000.00000
 En-DIIS/RFO-DIIS IScMMF=        0 using points:     5    4    3
 RFO step:  Lambda=-3.46205550D-06.
 DIIS coeffs:      0.36424      0.39984      0.23591
 Iteration  1 RMS(Cart)=  0.00155039 RMS(Int)=  0.00000383
 Iteration  2 RMS(Cart)=  0.00000374 RMS(Int)=  0.00000166
 Iteration  3 RMS(Cart)=  0.00000000 RMS(Int)=  0.00000166
 Variable       Old X    -DE/DX   Delta X   Delta X   Delta X     New X
                                  (DIIS)     (GDIIS)  (Total)
    R1        2.06881   0.00000   0.00007   0.00007   0.00014   2.06895
    R2        2.06503  -0.00029  -0.00076   0.00012  -0.00065   2.06438
    R3        2.06882  -0.00004   0.00004   0.00007   0.00011   2.06893
    R4        2.84507  -0.00090  -0.00288  -0.00049  -0.00337   2.84170
    R5        2.24748   0.00072   0.00126  -0.00020   0.00106   2.24855
    R6        3.45354   0.00003  -0.00175   0.00032  -0.00143   3.45211
    A1        1.92754  -0.00017  -0.00086  -0.00065  -0.00151   1.92603
    A2        1.87739  -0.00009  -0.00114   0.00001  -0.00113   1.87626
    A3        1.91321   0.00021   0.00128   0.00023   0.00151   1.91472
    A4        1.92755  -0.00011  -0.00081  -0.00065  -0.00147   1.92608
    A5        1.90452   0.00014   0.00046   0.00083   0.00129   1.90581
    A6        1.91350   0.00003   0.00108   0.00022   0.00131   1.91480
    A7        2.23175  -0.00015  -0.00170   0.00069  -0.00101   2.23075
    A8        1.95697   0.00000   0.00142  -0.00079   0.00063   1.95760
    A9        2.09445   0.00015   0.00029   0.00010   0.00039   2.09484
    D1        2.11567  -0.00017  -0.00305  -0.00006  -0.00312   2.11256
    D2       -1.03223   0.00017   0.00313  -0.00011   0.00302  -1.02921
    D3        0.00273  -0.00018  -0.00308   0.00007  -0.00301  -0.00028
    D4        3.13802   0.00017   0.00311   0.00002   0.00313   3.14115
    D5       -2.11040  -0.00014  -0.00303   0.00022  -0.00282  -2.11322
    D6        1.02489   0.00020   0.00315   0.00017   0.00332   1.02821
         Item               Value     Threshold  Converged?
 Maximum Force            0.000898     0.000450     NO 
 RMS     Force            0.000289     0.000300     YES
 Maximum Displacement     0.003760     0.001800     NO 
 RMS     Displacement     0.001551     0.001200     NO 
 Predicted change in Energy=-4.236755D-06
 GradGradGradGradGradGradGradGradGradGradGradGradGradGradGradGradGradGrad

                          Input orientation:                          
 ---------------------------------------------------------------------
 Center     Atomic      Atomic             Coordinates (Angstroms)
 Number     Number       Type             X           Y           Z
 ---------------------------------------------------------------------
      1          6           0        1.310419   -1.016315   -0.000006
      2          1           0        1.074947   -1.618886    0.883247
      3          1           0        2.367253   -0.739748   -0.000557
      4          1           0        1.074135   -1.619483   -0.882626
      5          6           0        0.472580    0.232416    0.000024
      6          8           0        0.846742    1.361936   -0.000197
      7         17           0       -1.316257   -0.137958    0.000173
 ---------------------------------------------------------------------
                    Distance matrix (angstroms):
                    1          2          3          4          5
     1  C    0.000000
     2  H    1.094840   0.000000
     3  H    1.092423   1.795564   0.000000
     4  H    1.094833   1.765873   1.795587   0.000000
     5  C    1.503762   2.137813   2.129527   2.137866   0.000000
     6  O    2.423030   3.117347   2.594037   3.117571   1.189879
     7  Cl   2.769646   2.948020   3.732345   2.947579   1.826777
                    6          7
     6  O    0.000000
     7  Cl   2.632156   0.000000
 Stoichiometry    C2H3ClO
 Framework group  C1[X(C2H3ClO)]
 Deg. of freedom    15
 Full point group                 C1      NOp   1
 Largest Abelian subgroup         C1      NOp   1
 Largest concise Abelian subgroup C1      NOp   1
                         Standard orientation:                         
 ---------------------------------------------------------------------
 Center     Atomic      Atomic             Coordinates (Angstroms)
 Number     Number       Type             X           Y           Z
 ---------------------------------------------------------------------
      1          6           0        1.329401   -1.000823   -0.000045
      2          1           0        1.099492   -1.605539    0.883208
      3          1           0        2.383642   -0.714529   -0.000595
      4          1           0        1.098686   -1.606144   -0.882664
      5          6           0        0.480090    0.240133   -0.000014
      6          8           0        0.843826    1.373054   -0.000236
      7         17           0       -1.305258   -0.146710    0.000135
 ---------------------------------------------------------------------
 Rotational constants (GHZ):     10.0808207      4.8210268      3.3288455
 Standard basis: 6-31+G(d) (6D, 7F)
 There are    86 symmetry adapted basis functions of A   symmetry.
 Integral buffers will be    262144 words long.
 Raffenetti 2 integral format.
 Two-electron integral symmetry is turned on.
    86 basis functions,   164 primitive gaussians,    86 cartesian basis functions
    20 alpha electrons       20 beta electrons
       nuclear repulsion energy       147.7947105749 Hartrees.
 NAtoms=    7 NActive=    7 NUniq=    7 SFac= 7.50D-01 NAtFMM=   80 NAOKFM=F Big=F
 One-electron integrals computed using PRISM.
 NBasis=    86 RedAO= T  NBF=    86
 NBsUse=    86 1.00D-06 NBFU=    86
 Initial guess read from the read-write file.
 B after Tr=     0.000000    0.000000    0.000000
         Rot=    1.000000    0.000000    0.000000    0.000000 Ang=   0.00 deg.
 Initial guess orbital symmetries:
       Occupied  (A) (A) (A) (A) (A) (A) (A) (A) (A) (A) (A) (A)
                 (A) (A) (A) (A) (A) (A) (A) (A)
       Virtual   (A) (A) (A) (A) (A) (A) (A) (A) (A) (A) (A) (A)
                 (A) (A) (A) (A) (A) (A) (A) (A) (A) (A) (A) (A)
                 (A) (A) (A) (A) (A) (A) (A) (A) (A) (A) (A) (A)
                 (A) (A) (A) (A) (A) (A) (A) (A) (A) (A) (A) (A)
                 (A) (A) (A) (A) (A) (A) (A) (A) (A) (A) (A) (A)
                 (A) (A) (A) (A) (A) (A)
 Requested convergence on RMS density matrix=1.00D-08 within 128 cycles.
 Requested convergence on MAX density matrix=1.00D-06.
 Requested convergence on             energy=1.00D-06.
 No special actions if energy rises.
 Keep R1 ints in memory in canonical form, NReq=8000763.
 SCF Done:  E(RB3LYP) =  -613.454906640     A.U. after   13 cycles
             Convg  =    0.5226D-08             -V/T =  2.0047
 Calling FoFJK, ICntrl=      2127 FMM=F ISym2X=0 I1Cent= 0 IOpClX= 0 NMat=1 NMatS=1 NMatT=0.
 ***** Axes restored to original set *****
 -------------------------------------------------------------------
 Center     Atomic                   Forces (Hartrees/Bohr)
 Number     Number              X              Y              Z
 -------------------------------------------------------------------
      1        6          -0.000005854    0.000012820    0.000009645
      2        1          -0.000001585    0.000015502   -0.000012258
      3        1          -0.000034848   -0.000005767    0.000000670
      4        1          -0.000002805    0.000019129    0.000011200
      5        6           0.000176119    0.000002794   -0.000023967
      6        8          -0.000004177   -0.000014073    0.000008630
      7       17          -0.000126850   -0.000030406    0.000006080
 -------------------------------------------------------------------
 Cartesian Forces:  Max     0.000176119 RMS     0.000049461

 GradGradGradGradGradGradGradGradGradGradGradGradGradGradGradGradGradGrad
 Berny optimization.
 Using GEDIIS/GDIIS optimizer.
 Internal  Forces:  Max     0.000131584 RMS     0.000033990
 Search for a local minimum.
 Step number   6 out of a maximum of   31
 All quantities printed in internal units (Hartrees-Bohrs-Radians)
 Mixed Optimization -- En-DIIS/RFO-DIIS
 Swaping is turned off.
 Update second derivatives using D2CorX and points    1    2    3    4    5
                                                      6
 DE= -4.23D-06 DEPred=-4.24D-06 R= 9.98D-01
 SS=  1.41D+00  RLast= 9.19D-03 DXNew= 2.7014D-01 2.7577D-02
 Trust test= 9.98D-01 RLast= 9.19D-03 DXMaxT set to 1.61D-01
     Eigenvalues ---    0.01036   0.05192   0.07674   0.07689   0.12725
     Eigenvalues ---    0.14316   0.16561   0.18301   0.25320   0.27305
     Eigenvalues ---    0.31421   0.33211   0.33776   0.36244   1.00796
     Eigenvalues --- 1000.000001000.000001000.000001000.000001000.00000
     Eigenvalues --- 1000.00000
 En-DIIS/RFO-DIIS IScMMF=        0 using points:     6    5    4    3
 RFO step:  Lambda=-4.80558174D-08.
 DIIS coeffs:      1.08069     -0.02995     -0.00569     -0.04506
 Iteration  1 RMS(Cart)=  0.00016129 RMS(Int)=  0.00000008
 Iteration  2 RMS(Cart)=  0.00000002 RMS(Int)=  0.00000008
 Variable       Old X    -DE/DX   Delta X   Delta X   Delta X     New X
                                  (DIIS)     (GDIIS)  (Total)
    R1        2.06895  -0.00002   0.00001  -0.00006  -0.00005   2.06890
    R2        2.06438  -0.00003   0.00003  -0.00010  -0.00007   2.06431
    R3        2.06893  -0.00002   0.00001  -0.00006  -0.00005   2.06888
    R4        2.84170  -0.00006   0.00002  -0.00013  -0.00011   2.84159
    R5        2.24855  -0.00002  -0.00004  -0.00003  -0.00007   2.24847
    R6        3.45211   0.00013   0.00006   0.00053   0.00059   3.45270
    A1        1.92603   0.00001  -0.00004   0.00008   0.00004   1.92608
    A2        1.87626   0.00001   0.00002   0.00009   0.00011   1.87637
    A3        1.91472  -0.00001   0.00000  -0.00008  -0.00008   1.91464
    A4        1.92608   0.00001  -0.00004   0.00008   0.00004   1.92612
    A5        1.90581   0.00000   0.00006  -0.00008  -0.00001   1.90579
    A6        1.91480  -0.00001  -0.00001  -0.00009  -0.00010   1.91470
    A7        2.23075   0.00001   0.00009   0.00007   0.00017   2.23092
    A8        1.95760  -0.00002  -0.00009  -0.00008  -0.00018   1.95742
    A9        2.09484   0.00001   0.00000   0.00001   0.00001   2.09485
    D1        2.11256  -0.00001  -0.00010   0.00003  -0.00007   2.11249
    D2       -1.02921   0.00001   0.00010   0.00006   0.00016  -1.02904
    D3       -0.00028  -0.00001  -0.00009   0.00002  -0.00007  -0.00034
    D4        3.14115   0.00001   0.00011   0.00006   0.00017   3.14131
    D5       -2.11322   0.00000  -0.00008   0.00003  -0.00005  -2.11326
    D6        1.02821   0.00001   0.00012   0.00007   0.00019   1.02839
         Item               Value     Threshold  Converged?
 Maximum Force            0.000132     0.000450     YES
 RMS     Force            0.000034     0.000300     YES
 Maximum Displacement     0.000373     0.001800     YES
 RMS     Displacement     0.000161     0.001200     YES
 Predicted change in Energy=-5.001823D-08
 Optimization completed.
    -- Stationary point found.
                           ----------------------------
                           !   Optimized Parameters   !
                           ! (Angstroms and Degrees)  !
 --------------------------                            --------------------------
 ! Name  Definition              Value          Derivative Info.                !
 --------------------------------------------------------------------------------
 ! R1    R(1,2)                  1.0948         -DE/DX =    0.0                 !
 ! R2    R(1,3)                  1.0924         -DE/DX =    0.0                 !
 ! R3    R(1,4)                  1.0948         -DE/DX =    0.0                 !
 ! R4    R(1,5)                  1.5038         -DE/DX =   -0.0001              !
 ! R5    R(5,6)                  1.1899         -DE/DX =    0.0                 !
 ! R6    R(5,7)                  1.8268         -DE/DX =    0.0001              !
 ! A1    A(2,1,3)              110.3535         -DE/DX =    0.0                 !
 ! A2    A(2,1,4)              107.502          -DE/DX =    0.0                 !
 ! A3    A(2,1,5)              109.7054         -DE/DX =    0.0                 !
 ! A4    A(3,1,4)              110.3562         -DE/DX =    0.0                 !
 ! A5    A(3,1,5)              109.1947         -DE/DX =    0.0                 !
 ! A6    A(4,1,5)              109.71           -DE/DX =    0.0                 !
 ! A7    A(1,5,6)              127.8125         -DE/DX =    0.0                 !
 ! A8    A(1,5,7)              112.1621         -DE/DX =    0.0                 !
 ! A9    A(6,5,7)              120.0255         -DE/DX =    0.0                 !
 ! D1    D(2,1,5,6)            121.0406         -DE/DX =    0.0                 !
 ! D2    D(2,1,5,7)            -58.9692         -DE/DX =    0.0                 !
 ! D3    D(3,1,5,6)             -0.0158         -DE/DX =    0.0                 !
 ! D4    D(3,1,5,7)            179.9744         -DE/DX =    0.0                 !
 ! D5    D(4,1,5,6)           -121.0784         -DE/DX =    0.0                 !
 ! D6    D(4,1,5,7)             58.9118         -DE/DX =    0.0                 !
 --------------------------------------------------------------------------------
 GradGradGradGradGradGradGradGradGradGradGradGradGradGradGradGradGradGrad

                          Input orientation:                          
 ---------------------------------------------------------------------
 Center     Atomic      Atomic             Coordinates (Angstroms)
 Number     Number       Type             X           Y           Z
 ---------------------------------------------------------------------
      1          6           0        1.310419   -1.016315   -0.000006
      2          1           0        1.074947   -1.618886    0.883247
      3          1           0        2.367253   -0.739748   -0.000557
      4          1           0        1.074135   -1.619483   -0.882626
      5          6           0        0.472580    0.232416    0.000024
      6          8           0        0.846742    1.361936   -0.000197
      7         17           0       -1.316257   -0.137958    0.000173
 ---------------------------------------------------------------------
                    Distance matrix (angstroms):
                    1          2          3          4          5
     1  C    0.000000
     2  H    1.094840   0.000000
     3  H    1.092423   1.795564   0.000000
     4  H    1.094833   1.765873   1.795587   0.000000
     5  C    1.503762   2.137813   2.129527   2.137866   0.000000
     6  O    2.423030   3.117347   2.594037   3.117571   1.189879
     7  Cl   2.769646   2.948020   3.732345   2.947579   1.826777
                    6          7
     6  O    0.000000
     7  Cl   2.632156   0.000000
 Stoichiometry    C2H3ClO
 Framework group  C1[X(C2H3ClO)]
 Deg. of freedom    15
 Full point group                 C1      NOp   1
 Largest Abelian subgroup         C1      NOp   1
 Largest concise Abelian subgroup C1      NOp   1
                         Standard orientation:                         
 ---------------------------------------------------------------------
 Center     Atomic      Atomic             Coordinates (Angstroms)
 Number     Number       Type             X           Y           Z
 ---------------------------------------------------------------------
      1          6           0        1.329401   -1.000823   -0.000045
      2          1           0        1.099492   -1.605539    0.883208
      3          1           0        2.383642   -0.714529   -0.000595
      4          1           0        1.098686   -1.606144   -0.882664
      5          6           0        0.480090    0.240133   -0.000014
      6          8           0        0.843826    1.373054   -0.000236
      7         17           0       -1.305258   -0.146710    0.000135
 ---------------------------------------------------------------------
 Rotational constants (GHZ):     10.0808207      4.8210268      3.3288455

 **********************************************************************

            Population analysis using the SCF density.

 **********************************************************************

 Orbital symmetries:
       Occupied  (A) (A) (A) (A) (A) (A) (A) (A) (A) (A) (A) (A)
                 (A) (A) (A) (A) (A) (A) (A) (A)
       Virtual   (A) (A) (A) (A) (A) (A) (A) (A) (A) (A) (A) (A)
                 (A) (A) (A) (A) (A) (A) (A) (A) (A) (A) (A) (A)
                 (A) (A) (A) (A) (A) (A) (A) (A) (A) (A) (A) (A)
                 (A) (A) (A) (A) (A) (A) (A) (A) (A) (A) (A) (A)
                 (A) (A) (A) (A) (A) (A) (A) (A) (A) (A) (A) (A)
                 (A) (A) (A) (A) (A) (A)
 The electronic state is 1-A.
 Alpha  occ. eigenvalues -- -101.55727 -19.20405 -10.35854 -10.23360  -9.47393
 Alpha  occ. eigenvalues --   -7.23696  -7.22906  -7.22782  -1.11091  -0.85867
 Alpha  occ. eigenvalues --   -0.77665  -0.57517  -0.50473  -0.48842  -0.48688
 Alpha  occ. eigenvalues --   -0.43229  -0.41377  -0.33334  -0.33041  -0.31028
 Alpha virt. eigenvalues --   -0.05442  -0.01129   0.00865   0.03169   0.04367
 Alpha virt. eigenvalues --    0.04483   0.07776   0.08097   0.08788   0.08966
 Alpha virt. eigenvalues --    0.10186   0.12159   0.12779   0.15367   0.16983
 Alpha virt. eigenvalues --    0.20836   0.24390   0.24978   0.26929   0.27182
 Alpha virt. eigenvalues --    0.31208   0.32656   0.41555   0.53767   0.58635
 Alpha virt. eigenvalues --    0.59029   0.60221   0.62385   0.64017   0.67440
 Alpha virt. eigenvalues --    0.70449   0.72556   0.80801   0.85678   0.87217
 Alpha virt. eigenvalues --    0.88243   0.92343   0.97093   0.99049   1.06097
 Alpha virt. eigenvalues --    1.07816   1.08916   1.22473   1.26111   1.28758
 Alpha virt. eigenvalues --    1.37035   1.37828   1.53264   1.60060   1.72295
 Alpha virt. eigenvalues --    1.78509   1.79577   1.85652   2.03729   2.07251
 Alpha virt. eigenvalues --    2.16848   2.28509   2.38223   2.52053   2.57095
 Alpha virt. eigenvalues --    2.83765   3.08785   4.08870   4.17130   4.32571
 Alpha virt. eigenvalues --    4.40611
          Condensed to atoms (all electrons):
              1          2          3          4          5          6
     1  C    5.675039   0.365920   0.400398   0.365953   0.203805  -0.086175
     2  H    0.365920   0.458286  -0.021625  -0.023264  -0.030899   0.000839
     3  H    0.400398  -0.021625   0.460238  -0.021628  -0.067496   0.001022
     4  H    0.365953  -0.023264  -0.021628   0.458286  -0.030940   0.000845
     5  C    0.203805  -0.030899  -0.067496  -0.030940   4.964347   0.393235
     6  O   -0.086175   0.000839   0.001022   0.000845   0.393235   8.091265
     7  Cl  -0.103261   0.001664   0.005892   0.001675   0.175704  -0.106566
              7
     1  C   -0.103261
     2  H    0.001664
     3  H    0.005892
     4  H    0.001675
     5  C    0.175704
     6  O   -0.106566
     7  Cl  17.042343
 Mulliken atomic charges:
              1
     1  C   -0.821680
     2  H    0.249080
     3  H    0.243200
     4  H    0.249073
     5  C    0.392242
     6  O   -0.294464
     7  Cl  -0.017451
 Sum of Mulliken atomic charges =   0.00000
 Mulliken charges with hydrogens summed into heavy atoms:
              1
     1  C   -0.080328
     5  C    0.392242
     6  O   -0.294464
     7  Cl  -0.017451
 Sum of Mulliken charges with hydrogens summed into heavy atoms =   0.00000
 Electronic spatial extent (au):  <R**2>=            368.1925
 Charge=              0.0000 electrons
 Dipole moment (field-independent basis, Debye):
    X=              1.5887    Y=             -2.5662    Z=              0.0002  Tot=              3.0181
 Quadrupole moment (field-independent basis, Debye-Ang):
   XX=            -30.3073   YY=            -32.7460   ZZ=            -29.7905
   XY=             -2.9621   XZ=              0.0006   YZ=              0.0006
 Traceless Quadrupole moment (field-independent basis, Debye-Ang):
   XX=              0.6406   YY=             -1.7981   ZZ=              1.1575
   XY=             -2.9621   XZ=              0.0006   YZ=              0.0006
 Octapole moment (field-independent basis, Debye-Ang**2):
  XXX=              0.5305  YYY=             -3.0302  ZZZ=              0.0006  XYY=             -1.2777
  XXY=             -2.4306  XXZ=             -0.0005  XZZ=              0.7552  YZZ=              0.1911
  YYZ=              0.0000  XYZ=             -0.0001
 Hexadecapole moment (field-independent basis, Debye-Ang**3):
 XXXX=           -265.7255 YYYY=           -159.5713 ZZZZ=            -38.1428 XXXY=              1.5703
 XXXZ=              0.0070 YYYX=             -1.8444 YYYZ=              0.0087 ZZZX=              0.0137
 ZZZY=              0.0036 XXYY=            -76.0982 XXZZ=            -54.7897 YYZZ=            -29.6546
 XXYZ=              0.0015 YYXZ=              0.0056 ZZXY=              0.2641
 N-N= 1.477947105749D+02 E-N=-1.746733701414D+03  KE= 6.105882035472D+02
 1|1|UNPC-WST-PGHS-014|FOpt|RB3LYP|6-31+G(d)|C2H3Cl1O1|214584429|25-Feb
 -2015|0||# opt freq b3lyp/6-31+g(d) geom=connectivity||Title Card Requ
 ired||0,1|C,1.3104192133,-1.0163147155,-0.0000062979|H,1.0749466958,-1
 .6188857532,0.8832467643|H,2.3672531337,-0.7397479033,-0.0005570767|H,
 1.0741353622,-1.6194833458,-0.8826258183|C,0.4725803599,0.2324157118,0
 .0000241793|O,0.8467418329,1.3619360832,-0.0001971807|Cl,-1.3162565977
 ,-0.1379580772,0.0001731301||Version=IA32W-G09RevA.02|State=1-A|HF=-61
 3.4549066|RMSD=5.226e-009|RMSF=4.946e-005|Dipole=0.6156945,-1.0153219,
 0.0000899|Quadrupole=0.4355477,-1.2960931,0.8605454,-2.2185657,0.00043
 14,0.0004702|PG=C01 [X(C2H3Cl1O1)]||@


 THE TRULY SUCCESSFUL PERFORMANCE OF RESEARCHES IN
 INORGANIC CHEMISTRY IS POSSIBLE ONLY TO ONE WHO IS NOT
 ONLY A THEORETICAL CHEMIST, BUT ALSO AN ACCOMPLISHED
 ANALYST AND, MOREOVER, NOT MERELY A PRACTICALLY TRAINED,
 MECHANICAL WORKER, BUT A THINKING CREATIVE ARTIST.
   --  CLEMENS WINKLER, BER. 33, 1697(1900)
 Job cpu time:  0 days  0 hours  1 minutes 34.0 seconds.
 File lengths (MBytes):  RWF=      5 Int=      0 D2E=      0 Chk=      1 Scr=      1
 Normal termination of Gaussian 09 at Wed Feb 25 12:56:25 2015.
 Link1:  Proceeding to internal job step number  2.
 ---------------------------------------------------------------------
 #N Geom=AllCheck Guess=TCheck SCRF=Check GenChk RB3LYP/6-31+G(d) Freq
 ---------------------------------------------------------------------
 1/10=4,29=7,30=1,38=1,40=1/1,3;
 2/12=2,40=1/2;
 3/5=1,6=6,7=11,11=2,14=-4,16=1,25=1,30=1,70=2,71=2,74=-5,116=1/1,2,3;
 4/5=101/1;
 5/5=2,98=1/2;
 8/6=4,10=90,11=11/1;
 11/6=1,8=1,9=11,15=111,16=1/1,2,10;
 10/6=1/2;
 6/7=2,8=2,9=2,10=2,18=1,28=1/1;
 7/8=1,10=1,25=1/1,2,3,16;
 1/10=4,30=1/3;
 99//99;
 -------------------
 Title Card Required
 -------------------
 Redundant internal coordinates taken from checkpoint file:
 C:\Users\214584429\Dropbox\Ester(COOH)\clac631.chk
 Charge =  0 Multiplicity = 1
 C,0,1.3104192133,-1.0163147155,-0.0000062979
 H,0,1.0749466958,-1.6188857532,0.8832467643
 H,0,2.3672531337,-0.7397479033,-0.0005570767
 H,0,1.0741353622,-1.6194833458,-0.8826258183
 C,0,0.4725803599,0.2324157118,0.0000241793
 O,0,0.8467418329,1.3619360832,-0.0001971807
 Cl,0,-1.3162565977,-0.1379580772,0.0001731301
 Recover connectivity data from disk.

 GradGradGradGradGradGradGradGradGradGradGradGradGradGradGradGradGradGrad
 Berny optimization.
 Initialization pass.
                           ----------------------------
                           !    Initial Parameters    !
                           ! (Angstroms and Degrees)  !
[...]
     4   1     0.39   0.32  -0.32     0.55  -0.05  -0.01     0.04   0.24   0.00
     5   6     0.00   0.00   0.01    -0.02  -0.16   0.00     0.21   0.25   0.00
     6   8     0.00   0.00  -0.05    -0.05  -0.15   0.00     0.68   0.07   0.00
     7  17     0.00   0.00   0.02    -0.11   0.10   0.00    -0.41  -0.21   0.00
                     4                      5                      6
                     A                      A                      A
 Frequencies --   518.7179               602.7507               965.5312
 Red. masses --     3.0294                 4.5007                 2.8077
 Frc consts  --     0.4802                 0.9634                 1.5422
 IR Inten    --     1.9542               135.7486                73.7037
  Atom  AN      X      Y      Z        X      Y      Z        X      Y      Z
     1   6     0.00   0.00   0.01     0.17  -0.25   0.00    -0.02   0.26   0.00
     2   1    -0.38   0.40   0.19    -0.14  -0.15  -0.01    -0.50   0.35  -0.06
     3   1     0.00   0.00   0.40     0.30  -0.74   0.00     0.11  -0.28   0.00
     4   1     0.38  -0.40   0.19    -0.14  -0.15   0.01    -0.50   0.35   0.06
     5   6     0.00   0.00  -0.39     0.33   0.05   0.00     0.21  -0.14   0.00
     6   8     0.00   0.00   0.14    -0.16   0.19   0.00    -0.07  -0.14   0.00
     7  17     0.00   0.00   0.04    -0.10   0.01   0.00    -0.01   0.01   0.00
                     7                      8                      9
                     A                      A                      A
 Frequencies --  1056.9324              1124.7911              1414.2411
 Red. masses --     1.5941                 1.9654                 1.2437
 Frc consts  --     1.0492                 1.4650                 1.4656
 IR Inten    --     3.2247               150.7019                24.3074
  Atom  AN      X      Y      Z        X      Y      Z        X      Y      Z
     1   6     0.00   0.00   0.16    -0.18  -0.03   0.00    -0.08   0.12   0.00
     2   1     0.30  -0.54  -0.15     0.32  -0.03   0.12     0.34  -0.43  -0.26
     3   1     0.00   0.00  -0.36    -0.38   0.73   0.00     0.09  -0.47   0.00
     4   1    -0.30   0.54  -0.15     0.32  -0.03  -0.12     0.34  -0.43   0.26
     5   6     0.00   0.00  -0.16     0.22  -0.05   0.00     0.02  -0.01   0.00
     6   8     0.00   0.00   0.03    -0.04   0.02   0.00     0.00   0.00   0.00
     7  17     0.00   0.00   0.01    -0.01   0.00   0.00     0.00   0.00   0.00
                    10                     11                     12
                     A                      A                      A
 Frequencies --  1487.0121              1488.7306              1888.5166
 Red. masses --     1.0479                 1.0447                12.0609
 Frc consts  --     1.3652                 1.3641                25.3437
 IR Inten    --    14.9775                13.8094               352.2054
  Atom  AN      X      Y      Z        X      Y      Z        X      Y      Z
     1   6     0.05   0.01   0.00     0.00   0.00  -0.05     0.02  -0.07   0.00
     2   1    -0.36  -0.37  -0.35     0.48  -0.05   0.05     0.04  -0.16  -0.08
     3   1    -0.09   0.46   0.00     0.00   0.00   0.72    -0.02   0.16   0.00
     4   1    -0.35  -0.37   0.35    -0.48   0.04   0.06     0.04  -0.16   0.08
     5   6     0.01  -0.01   0.00     0.00   0.00  -0.02     0.15   0.77   0.00
     6   8     0.00   0.02   0.00     0.00   0.00   0.00    -0.16  -0.51   0.00
     7  17     0.00   0.00   0.00     0.00   0.00   0.00     0.01   0.00   0.00
                    13                     14                     15
                     A                      A                      A
 Frequencies --  3070.2812              3140.3976              3169.3255
 Red. masses --     1.0338                 1.1008                 1.1060
 Frc consts  --     5.7416                 6.3965                 6.5452
 IR Inten    --     0.5551                 0.4084                 4.9652
  Atom  AN      X      Y      Z        X      Y      Z        X      Y      Z
     1   6    -0.02   0.04   0.00     0.00   0.00   0.09    -0.08  -0.05   0.00
     2   1    -0.13  -0.33   0.50     0.15   0.40  -0.56     0.06   0.19  -0.29
     3   1     0.49   0.14   0.00     0.00   0.00   0.02     0.83   0.23   0.00
     4   1    -0.13  -0.33  -0.49    -0.15  -0.40  -0.56     0.06   0.19   0.29
     5   6     0.00   0.00   0.00     0.00   0.00   0.00     0.00   0.00   0.00
     6   8     0.00   0.00   0.00     0.00   0.00   0.00     0.00   0.00   0.00
     7  17     0.00   0.00   0.00     0.00   0.00   0.00     0.00   0.00   0.00

 -------------------
 - Thermochemistry -
 -------------------
 Temperature   298.150 Kelvin.  Pressure   1.00000 Atm.
 Atom     1 has atomic number  6 and mass  12.00000
 Atom     2 has atomic number  1 and mass   1.00783
 Atom     3 has atomic number  1 and mass   1.00783
 Atom     4 has atomic number  1 and mass   1.00783
 Atom     5 has atomic number  6 and mass  12.00000
 Atom     6 has atomic number  8 and mass  15.99491
 Atom     7 has atomic number 17 and mass  34.96885
 Molecular mass:    77.98724 amu.
 Principal axes and moments of inertia in atomic units:
                           1         2         3
     Eigenvalues --   179.02721 374.34789 542.15228
           X            0.99459  -0.10388   0.00010
           Y            0.10388   0.99459   0.00010
           Z           -0.00011  -0.00009   1.00000
 This molecule is an asymmetric top.
 Rotational symmetry number  1.
 Rotational temperatures (Kelvin)      0.48380     0.23137     0.15976
 Rotational constants (GHZ):          10.08082     4.82103     3.32885
 Zero-point vibrational energy     124632.2 (Joules/Mol)
                                   29.78780 (Kcal/Mol)
 Warning -- explicit consideration of   5 degrees of freedom as
           vibrations may cause significant error
 Vibrational temperatures:    190.20   495.62   622.95   746.32   867.22
          (Kelvin)           1389.18  1520.69  1618.32  2034.78  2139.48
                             2141.95  2717.15  4417.44  4518.33  4559.95
 
 Zero-point correction=                           0.047470 (Hartree/Particle)
 Thermal correction to Energy=                    0.052105
 Thermal correction to Enthalpy=                  0.053049
 Thermal correction to Gibbs Free Energy=         0.019614
 Sum of electronic and zero-point Energies=           -613.407437
 Sum of electronic and thermal Energies=              -613.402802
 Sum of electronic and thermal Enthalpies=            -613.401858
 Sum of electronic and thermal Free Energies=         -613.435293
 
                     E (Thermal)             CV                S
                      KCal/Mol        Cal/Mol-Kelvin    Cal/Mol-Kelvin
 Total                   32.696             14.373             70.371
 Electronic               0.000              0.000              0.000
 Translational            0.889              2.981             38.977
 Rotational               0.889              2.981             25.100
 Vibrational             30.919              8.411              6.294
 Vibration     1          0.612              1.921              2.914
 Vibration     2          0.723              1.587              1.191
 Vibration     3          0.794              1.398              0.849
 Vibration     4          0.874              1.209              0.613
 Vibration     5          0.961              1.026              0.445
                       Q            Log10(Q)             Ln(Q)
 Total Bot       0.951418D-09         -9.021628        -20.773067
 Total V=0       0.650061D+13         12.812954         29.502917
 Vib (Bot)       0.515082D-21        -21.288123        -49.017715
 Vib (Bot)    1  0.154128D+01          0.187882          0.432614
 Vib (Bot)    2  0.537513D+00         -0.269611         -0.620802
 Vib (Bot)    3  0.401490D+00         -0.396326         -0.912574
 Vib (Bot)    4  0.311544D+00         -0.506480         -1.166214
 Vib (Bot)    5  0.247029D+00         -0.607251         -1.398248
 Vib (V=0)       0.351932D+01          0.546459          1.258268
 Vib (V=0)    1  0.212035D+01          0.326408          0.751583
 Vib (V=0)    2  0.123411D+01          0.091355          0.210352
 Vib (V=0)    3  0.114124D+01          0.057378          0.132119
 Vib (V=0)    4  0.108912D+01          0.037075          0.085368
 Vib (V=0)    5  0.105769D+01          0.024360          0.056092
 Electronic      0.100000D+01          0.000000          0.000000
 Translational   0.270701D+08          7.432491         17.113942
 Rotational      0.682345D+05          4.834004         11.130706
 ***** Axes restored to original set *****
 -------------------------------------------------------------------
 Center     Atomic                   Forces (Hartrees/Bohr)
 Number     Number              X              Y              Z
 -------------------------------------------------------------------
      1        6          -0.000005862    0.000012821    0.000009645
      2        1          -0.000001583    0.000015503   -0.000012260
      3        1          -0.000034844   -0.000005766    0.000000670
      4        1          -0.000002804    0.000019130    0.000011202
      5        6           0.000176111    0.000002792   -0.000023967
      6        8          -0.000004176   -0.000014077    0.000008630
      7       17          -0.000126842   -0.000030403    0.000006080
 -------------------------------------------------------------------
 Cartesian Forces:  Max     0.000176111 RMS     0.000049459

 GradGradGradGradGradGradGradGradGradGradGradGradGradGradGradGradGradGrad
 Berny optimization.
 Internal  Forces:  Max     0.000131576 RMS     0.000033988
 Search for a local minimum.
 Step number   1 out of a maximum of    2
 All quantities printed in internal units (Hartrees-Bohrs-Radians)
 Second derivative matrix not updated -- analytic derivatives used.
     Eigenvalues ---    0.00116   0.05045   0.05736   0.05737   0.10397
     Eigenvalues ---    0.12842   0.14368   0.14655   0.22107   0.24519
     Eigenvalues ---    0.30748   0.34326   0.34796   0.35287   0.94802
     Eigenvalues --- 1000.000001000.000001000.000001000.000001000.00000
     Eigenvalues --- 1000.00000
 Angle between quadratic step and forces=  41.96 degrees.
 Linear search not attempted -- first point.
 Iteration  1 RMS(Cart)=  0.00033273 RMS(Int)=  0.00000006
 Iteration  2 RMS(Cart)=  0.00000007 RMS(Int)=  0.00000000
 Variable       Old X    -DE/DX   Delta X   Delta X   Delta X     New X
                                 (Linear)    (Quad)   (Total)
    R1        2.06895  -0.00002   0.00000  -0.00007  -0.00007   2.06888
    R2        2.06438  -0.00003   0.00000  -0.00009  -0.00009   2.06429
    R3        2.06893  -0.00002   0.00000  -0.00005  -0.00005   2.06888
    R4        2.84170  -0.00006   0.00000  -0.00027  -0.00027   2.84143
    R5        2.24855  -0.00002   0.00000  -0.00012  -0.00012   2.24843
    R6        3.45211   0.00013   0.00000   0.00113   0.00113   3.45324
    A1        1.92603   0.00001   0.00000   0.00008   0.00008   1.92611
    A2        1.87626   0.00001   0.00000   0.00007   0.00007   1.87633
    A3        1.91472  -0.00001   0.00000  -0.00005  -0.00005   1.91467
    A4        1.92608   0.00001   0.00000   0.00003   0.00003   1.92611
    A5        1.90581   0.00000   0.00000   0.00000   0.00000   1.90581
    A6        1.91480  -0.00001   0.00000  -0.00013  -0.00013   1.91467
    A7        2.23075   0.00001   0.00000   0.00034   0.00034   2.23109
    A8        1.95760  -0.00002   0.00000  -0.00025  -0.00025   1.95734
    A9        2.09484   0.00001   0.00000  -0.00008  -0.00008   2.09476
    D1        2.11256  -0.00001   0.00000   0.00035   0.00035   2.11291
    D2       -1.02921   0.00001   0.00000   0.00052   0.00052  -1.02868
    D3       -0.00028  -0.00001   0.00000   0.00029   0.00029   0.00001
    D4        3.14115   0.00001   0.00000   0.00046   0.00046  -3.14158
    D5       -2.11322   0.00000   0.00000   0.00033   0.00033  -2.11289
    D6        1.02821   0.00001   0.00000   0.00050   0.00050   1.02870
         Item               Value     Threshold  Converged?
 Maximum Force            0.000132     0.000450     YES
 RMS     Force            0.000034     0.000300     YES
 Maximum Displacement     0.000581     0.001800     YES
 RMS     Displacement     0.000333     0.001200     YES
 Predicted change in Energy=-9.418246D-08
 Optimization completed.
    -- Stationary point found.
                           ----------------------------
                           !   Optimized Parameters   !
                           ! (Angstroms and Degrees)  !
 --------------------------                            --------------------------
 ! Name  Definition              Value          Derivative Info.                !
 --------------------------------------------------------------------------------
 ! R1    R(1,2)                  1.0948         -DE/DX =    0.0                 !
 ! R2    R(1,3)                  1.0924         -DE/DX =    0.0                 !
 ! R3    R(1,4)                  1.0948         -DE/DX =    0.0                 !
 ! R4    R(1,5)                  1.5038         -DE/DX =   -0.0001              !
 ! R5    R(5,6)                  1.1899         -DE/DX =    0.0                 !
 ! R6    R(5,7)                  1.8268         -DE/DX =    0.0001              !
 ! A1    A(2,1,3)              110.3535         -DE/DX =    0.0                 !
 ! A2    A(2,1,4)              107.502          -DE/DX =    0.0                 !
 ! A3    A(2,1,5)              109.7054         -DE/DX =    0.0                 !
 ! A4    A(3,1,4)              110.3562         -DE/DX =    0.0                 !
 ! A5    A(3,1,5)              109.1947         -DE/DX =    0.0                 !
 ! A6    A(4,1,5)              109.71           -DE/DX =    0.0                 !
 ! A7    A(1,5,6)              127.8125         -DE/DX =    0.0                 !
 ! A8    A(1,5,7)              112.1621         -DE/DX =    0.0                 !
 ! A9    A(6,5,7)              120.0255         -DE/DX =    0.0                 !
 ! D1    D(2,1,5,6)            121.0406         -DE/DX =    0.0                 !
 ! D2    D(2,1,5,7)            -58.9692         -DE/DX =    0.0                 !
 ! D3    D(3,1,5,6)             -0.0158         -DE/DX =    0.0                 !
 ! D4    D(3,1,5,7)           -180.0256         -DE/DX =    0.0                 !
 ! D5    D(4,1,5,6)           -121.0784         -DE/DX =    0.0                 !
 ! D6    D(4,1,5,7)             58.9118         -DE/DX =    0.0                 !
 --------------------------------------------------------------------------------
 GradGradGradGradGradGradGradGradGradGradGradGradGradGradGradGradGradGrad

 1|1|UNPC-WST-PGHS-014|Freq|RB3LYP|6-31+G(d)|C2H3Cl1O1|214584429|25-Feb
 -2015|0||#N Geom=AllCheck Guess=TCheck SCRF=Check GenChk RB3LYP/6-31+G
 (d) Freq||Title Card Required||0,1|C,1.3104192133,-1.0163147155,-0.000
 0062979|H,1.0749466958,-1.6188857532,0.8832467643|H,2.3672531337,-0.73
 97479033,-0.0005570767|H,1.0741353622,-1.6194833458,-0.8826258183|C,0.
 4725803599,0.2324157118,0.0000241793|O,0.8467418329,1.3619360832,-0.00
 01971807|Cl,-1.3162565977,-0.1379580772,0.0001731301||Version=IA32W-G0
 9RevA.02|State=1-A|HF=-613.4549066|RMSD=7.678e-010|RMSF=4.946e-005|Zer
 oPoint=0.0474699|Thermal=0.0521049|Dipole=0.6156944,-1.0153221,0.00008
 99|DipoleDeriv=-0.1310613,0.12567,-0.0000313,0.0648599,-0.2340672,0.00
 00377,-0.0000378,0.0000822,0.0555348,0.0495661,0.0064593,0.0555683,0.0
 054093,0.0783809,0.0288736,0.0251966,0.0596433,0.0227679,-0.083169,0.0
 049134,0.0000648,-0.0017581,0.0438906,0.0000292,0.0000891,-0.0000098,0
 .1047924,0.0494712,0.0063765,-0.0555964,0.0053544,0.0783312,-0.0288993
 ,-0.0252046,-0.0597114,0.0229111,2.1372571,0.2463077,-0.0001947,0.6933
 397,1.345745,-0.000186,-0.0002663,-0.0001654,0.1793065,-0.8208061,-0.2
 094219,0.0000746,-0.6073086,-1.0902647,0.0001237,0.0001689,0.0001477,-
 0.2487478,-1.201258,-0.180305,0.0001148,-0.1598966,-0.2220158,0.000021
 1,0.0000541,0.0000133,-0.1365648|Polar=51.2297026,3.6437725,40.039437,
 -0.0023767,-0.002276,27.4658279|PG=C01 [X(C2H3Cl1O1)]|NImag=0||0.56973
 841,0.06509116,0.50941868,-0.00001541,0.00001585,0.54371600,-0.0624835
 0,-0.03142824,0.04868586,0.06159485,-0.03127277,-0.12413296,0.12443111
 ,0.03310001,0.13743485,0.04768040,0.12300123,-0.22218186,-0.05310115,-
 0.13275346,0.23975611,-0.30593152,-0.06769072,0.00013522,-0.00323981,-
 0.00077698,-0.00018135,0.33071480,-0.07304627,-0.06945620,0.00003415,-
 0.01631261,-0.00397146,-0.00244861,0.07368964,0.07155119,0.00013652,0.
 00003137,-0.05042681,0.02565636,0.00485334,0.00204187,-0.00014834,-0.0
 0003934,0.04675421,-0.06257956,-0.03158225,-0.04881984,0.00088585,0.00
 383724,0.00576293,-0.00326184,-0.01632553,-0.02563934,0.06170038,-0.03
 142066,-0.12430333,-0.12447376,0.00384808,0.01181929,0.01541700,-0.000
 78101,-0.00397264,-0.00484763,0.03326097,0.13761681,-0.04780714,-0.123
 04888,-0.22193864,-0.00578581,-0.01544213,-0.02115200,0.00018682,0.002
 46805,0.00206774,0.05324780,0.13279727,0.23948989,-0.12449989,0.058710
 60,0.00000678,0.00597977,-0.00920321,0.00069202,-0.01966908,0.02816623
 ,-0.00000246,0.00599480,-0.00922698,-0.00069294,0.34781531,0.06523429,
 -0.14767137,-0.00001741,0.00891212,-0.01987312,-0.00076075,-0.00601220
 ,0.00584273,0.00000270,0.00892394,-0.01988538,0.00077062,0.10547379,0.
 99807954,-0.00000457,-0.00000495,-0.08551784,-0.01881561,0.02426882,0.
 00222653,0.00000909,-0.00001633,-0.00168073,0.01880755,-0.02424517,0.0
 0222340,-0.00004119,-0.00013110,0.17943653,0.01545296,0.01371623,0.000
 00289,-0.00054947,0.00378557,-0.00033464,0.00364416,-0.00137338,-0.000
 00116,-0.00055100,0.00378987,0.00033198,-0.14758105,-0.22416033,0.0000
 4463,0.17042626,-0.01056910,-0.04833175,0.00001434,0.00190332,-0.00241
 100,-0.00185078,-0.00079920,0.00183877,-0.00000138,0.00190615,-0.00241
 093,0.00184938,-0.18102255,-0.78666952,0.00013071,0.24908080,0.8552055
 2,0.00000792,0.00000765,0.02710401,0.00261215,-0.00361345,-0.00124215,
 -0.00000203,0.00000116,-0.00058214,-0.00261421,0.00360854,-0.00124169,
 0.00003769,0.00013859,-0.06209266,-0.00005423,-0.00015092,0.02429996,-
 0.02969689,-0.00681677,0.00000451,-0.00218768,0.00053013,-0.00051821,-
 0.00225671,0.00520191,-0.00000158,-0.00218862,0.00052972,0.00051930,-0
 .06803986,0.04162839,0.00000009,-0.04084186,-0.06049942,0.00001272,0.1
 4521162,0.01598334,0.00447692,-0.00000429,-0.00002268,0.00113440,-0.00
 060462,0.00237047,-0.00183241,0.00000094,-0.00002053,0.00113617,0.0006
 0568,0.00710212,-0.02982288,-0.00000196,-0.04483877,-0.01722109,0.0000
 0843,0.01942605,0.04212889,0.00000229,-0.00000227,0.00924514,0.0007482
 0,-0.00174423,0.00055150,0.00000059,0.00000092,0.00182586,-0.00074488,
 0.00174375,0.00055131,0.00000010,-0.00000265,-0.03459525,0.00001054,0.
 00000866,0.01375467,-0.00001683,-0.00000418,0.00866678||0.00000586,-0.
 00001282,-0.00000964,0.00000158,-0.00001550,0.00001226,0.00003484,0.00
 000577,-0.00000067,0.00000280,-0.00001913,-0.00001120,-0.00017611,-0.0
 0000279,0.00002397,0.00000418,0.00001408,-0.00000863,0.00012684,0.0000
 3040,-0.00000608|||@


 THE RARE EARTHS PERPLEX US IN OUR RESEARCHES,
 BAFFLE US IN OUR SPECULATIONS, AND HAUNT US IN OUR
 VERY DREAMS.  THEY STRETCH LIKE AN UNKNOWN BEFORE US,
 MOCKING, MYSTIFYING, AND MURMURING STRANGE REVELATIONS
 AND POSSIBILITIES.  -- SIR WILLIAM CROOKE, 1832-1919
 Job cpu time:  0 days  0 hours  1 minutes 10.0 seconds.
 File lengths (MBytes):  RWF=     10 Int=      0 D2E=      0 Chk=      1 Scr=      1
 Normal termination of Gaussian 09 at Wed Feb 25 12:57:35 2015.
