 Entering Link 1 = C:\G09W\l1.exe PID=      1792.
  
 Copyright (c) 1988,1990,1992,1993,1995,1998,2003,2009, Gaussian, Inc.
                  All Rights Reserved.
  
 This is part of the Gaussian(R) 09 program.  It is based on
 the Gaussian(R) 03 system (copyright 2003, Gaussian, Inc.),
 the Gaussian(R) 98 system (copyright 1998, Gaussian, Inc.),
 the Gaussian(R) 94 system (copyright 1995, Gaussian, Inc.),
 the Gaussian 92(TM) system (copyright 1992, Gaussian, Inc.),
 the Gaussian 90(TM) system (copyright 1990, Gaussian, Inc.),
 the Gaussian 88(TM) system (copyright 1988, Gaussian, Inc.),
 the Gaussian 86(TM) system (copyright 1986, Carnegie Mellon
 University), and the Gaussian 82(TM) system (copyright 1983,
 Carnegie Mellon University). Gaussian is a federally registered
 trademark of Gaussian, Inc.
  
 This software contains proprietary and confidential information,
 including trade secrets, belonging to Gaussian, Inc.
  
 This software is provided under written license and may be
 used, copied, transmitted, or stored only in accord with that
 written license.
  
 The following legend is applicable only to US Government
 contracts under FAR:
  
                    RESTRICTED RIGHTS LEGEND
  
 Use, reproduction and disclosure by the US Government is
 subject to restrictions as set forth in subparagraphs (a)
 and (c) of the Commercial Computer Software - Restricted
 Rights clause in FAR 52.227-19.
  
 Gaussian, Inc.
 340 Quinnipiac St., Bldg. 40, Wallingford CT 06492
  
  
 ---------------------------------------------------------------
 Warning -- This program may not be used in any manner that
 competes with the business of Gaussian, Inc. or will provide
 assistance to any competitor of Gaussian, Inc.  The licensee
 of this program is prohibited from giving any competitor of
 Gaussian, Inc. access to this program.  By using this program,
 the user acknowledges that Gaussian, Inc. is engaged in the
 business of creating and licensing software in the field of
 computational chemistry and represents and warrants to the
 licensee that it is not a competitor of Gaussian, Inc. and that
 it will not use this program in any manner prohibited above.
 ---------------------------------------------------------------
  

 Cite this work as:
 Gaussian 09, Revision A.02,
 M. J. Frisch, G. W. Trucks, H. B. Schlegel, G. E. Scuseria, 
 M. A. Robb, J. R. Cheeseman, G. Scalmani, V. Barone, B. Mennucci, 
 G. A. Petersson, H. Nakatsuji, M. Caricato, X. Li, H. P. Hratchian, 
 A. F. Izmaylov, J. Bloino, G. Zheng, J. L. Sonnenberg, M. Hada, 
 M. Ehara, K. Toyota, R. Fukuda, J. Hasegawa, M. Ishida, T. Nakajima, 
 Y. Honda, O. Kitao, H. Nakai, T. Vreven, J. A. Montgomery, Jr., 
 J. E. Peralta, F. Ogliaro, M. Bearpark, J. J. Heyd, E. Brothers, 
 K. N. Kudin, V. N. Staroverov, R. Kobayashi, J. Normand, 
 K. Raghavachari, A. Rendell, J. C. Burant, S. S. Iyengar, J. Tomasi, 
 M. Cossi, N. Rega, J. M. Millam, M. Klene, J. E. Knox, J. B. Cross, 
 V. Bakken, C. Adamo, J. Jaramillo, R. Gomperts, R. E. Stratmann, 
 O. Yazyev, A. J. Austin, R. Cammi, C. Pomelli, J. W. Ochterski, 
 R. L. Martin, K. Morokuma, V. G. Zakrzewski, G. A. Voth, 
 P. Salvador, J. J. Dannenberg, S. Dapprich, A. D. Daniels, 
 O. Farkas, J. B. Foresman, J. V. Ortiz, J. Cioslowski, 
 and D. J. Fox, Gaussian, Inc., Wallingford CT, 2009.
 
 ******************************************
 Gaussian 09:  IA32W-G09RevA.02 11-Jun-2009
                25-Feb-2015 
 ******************************************
 %chk=C:\Users\214584429\Dropbox\Ester(COOH)\claclan.chk
 ----------------------------------------------------------
 # opt freq b3lyp/gen geom=connectivity gfinput pseudo=read
 ----------------------------------------------------------
 1/14=-1,18=20,19=15,26=3,38=1,57=2/1,3;
 2/9=110,12=2,17=6,18=5,40=1/2;
 3/5=7,11=2,16=1,17=8,24=10,25=1,30=1,71=1,74=-5/1,2,3;
 4//1;
 5/5=2,38=5/2;
 6/7=2,8=2,9=2,10=2,28=1/1;
 7//1,2,3,16;
 1/14=-1,18=20,19=15/3(2);
 2/9=110/2;
 99//99;
 2/9=110/2;
 3/5=7,6=1,11=2,16=1,17=8,25=1,30=1,71=1,74=-5,82=7/1,2,3;
 4/5=5,16=3/1;
 5/5=2,38=5/2;
 7//1,2,3,16;
 1/14=-1,18=20,19=15/3(-5);
 2/9=110/2;
 6/7=2,8=2,9=2,10=2,19=2,28=1/1;
 99/9=1/99;
 --------------------
 gen calculation ClAc-C H O=6-31+g(d)/Cl=midix
 --------------------
 Symbolic Z-matrix:
 Charge =  0 Multiplicity = 1
 C                     1.28806  -0.99417  -0.00001 
 H                     1.07567  -1.62374   0.88232 
 H                     2.36877  -0.77322  -0.00069 
 H                     1.07462  -1.6245   -0.88156 
 C                     0.47813   0.24402   0. 
 O                     0.81931   1.38314  0. 
 Cl                   -1.27475  -0.14958   0. 
 

 GradGradGradGradGradGradGradGradGradGradGradGradGradGradGradGradGradGrad
 Berny optimization.
 Initialization pass.
                           ----------------------------
                           !    Initial Parameters    !
                           ! (Angstroms and Degrees)  !
 --------------------------                            --------------------------
 ! Name  Definition              Value          Derivative Info.                !
 --------------------------------------------------------------------------------
 ! R1    R(1,2)                  1.1045         estimate D2E/DX2                !
 ! R2    R(1,3)                  1.1031         estimate D2E/DX2                !
 ! R3    R(1,4)                  1.1045         estimate D2E/DX2                !
 ! R4    R(1,5)                  1.4796         estimate D2E/DX2                !
 ! R5    R(5,6)                  1.1891         estimate D2E/DX2                !
 ! R6    R(5,7)                  1.7965         estimate D2E/DX2                !
 ! A1    A(2,1,3)              107.6416         estimate D2E/DX2                !
 ! A2    A(2,1,4)              105.9691         estimate D2E/DX2                !
 ! A3    A(2,1,5)              111.8226         estimate D2E/DX2                !
 ! A4    A(3,1,4)              107.6459         estimate D2E/DX2                !
 ! A5    A(3,1,5)              111.6354         estimate D2E/DX2                !
 ! A6    A(4,1,5)              111.8267         estimate D2E/DX2                !
 ! A7    A(1,5,6)              130.137          estimate D2E/DX2                !
 ! A8    A(1,5,7)              110.5346         estimate D2E/DX2                !
 ! A9    A(6,5,7)              119.3285         estimate D2E/DX2                !
 ! D1    D(2,1,5,6)            120.6281         estimate D2E/DX2                !
 ! D2    D(2,1,5,7)            -59.3725         estimate D2E/DX2                !
 ! D3    D(3,1,5,6)             -0.0375         estimate D2E/DX2                !
 ! D4    D(3,1,5,7)            179.9619         estimate D2E/DX2                !
 ! D5    D(4,1,5,6)           -120.7114         estimate D2E/DX2                !
 ! D6    D(4,1,5,7)             59.288          estimate D2E/DX2                !
 --------------------------------------------------------------------------------
 Trust Radius=3.00D-01 FncErr=1.00D-07 GrdErr=1.00D-06
 Number of steps in this run=  31 maximum allowed number of steps= 100.
 GradGradGradGradGradGradGradGradGradGradGradGradGradGradGradGradGradGrad

                          Input orientation:                          
 ---------------------------------------------------------------------
 Center     Atomic      Atomic             Coordinates (Angstroms)
 Number     Number       Type             X           Y           Z
 ---------------------------------------------------------------------
      1          6           0        1.288062   -0.994165   -0.000010
      2          1           0        1.075666   -1.623738    0.882319
      3          1           0        2.368774   -0.773222   -0.000692
      4          1           0        1.074625   -1.624495   -0.881557
      5          6           0        0.478133    0.244015    0.000000
      6          8           0        0.819307    1.383143   -0.000002
      7         17           0       -1.274747   -0.149576    0.000000
 ---------------------------------------------------------------------
                    Distance matrix (angstroms):
                    1          2          3          4          5
     1  C    0.000000
     2  H    1.104526   0.000000
     3  H    1.103066   1.781913   0.000000
     4  H    1.104534   1.763876   1.781968   0.000000
     5  C    1.479552   2.150357   2.146927   2.150413   0.000000
     6  O    2.423082   3.144128   2.655326   3.144553   1.189122
     7  Cl   2.698392   2.911371   3.696509   2.910683   1.796525
                    6          7
     6  O    0.000000
     7  Cl   2.595051   0.000000
 Stoichiometry    C2H3ClO
 Framework group  C1[X(C2H3ClO)]
 Deg. of freedom    15
 Full point group                 C1      NOp   1
 Largest Abelian subgroup         C1      NOp   1
 Largest concise Abelian subgroup C1      NOp   1
                         Standard orientation:                         
 ---------------------------------------------------------------------
 Center     Atomic      Atomic             Coordinates (Angstroms)
 Number     Number       Type             X           Y           Z
 ---------------------------------------------------------------------
      1          6           0        1.288062   -0.994165   -0.000010
      2          1           0        1.075666   -1.623738    0.882319
      3          1           0        2.368774   -0.773223   -0.000692
      4          1           0        1.074625   -1.624495   -0.881557
      5          6           0        0.478133    0.244015    0.000000
      6          8           0        0.819308    1.383143   -0.000002
      7         17           0       -1.274747   -0.149575    0.000000
 ---------------------------------------------------------------------
 Rotational constants (GHZ):      9.9919059      5.0526701      3.4271023
 General basis read from cards:  (5D, 7F)
 AO basis set in the form of general basis input (Overlap normalization):
      1 0
 S   6 1.00       0.000000000000
      0.3047524880D+04  0.1834737132D-02
      0.4573695180D+03  0.1403732281D-01
      0.1039486850D+03  0.6884262226D-01
      0.2921015530D+02  0.2321844432D+00
      0.9286662960D+01  0.4679413484D+00
      0.3163926960D+01  0.3623119853D+00
 SP   3 1.00       0.000000000000
      0.7868272350D+01 -0.1193324198D+00  0.6899906659D-01
      0.1881288540D+01 -0.1608541517D+00  0.3164239610D+00
      0.5442492580D+00  0.1143456438D+01  0.7443082909D+00
 SP   1 1.00       0.000000000000
      0.1687144782D+00  0.1000000000D+01  0.1000000000D+01
 SP   1 1.00       0.000000000000
      0.4380000000D-01  0.1000000000D+01  0.1000000000D+01
 D   1 1.00       0.000000000000
      0.8000000000D+00  0.1000000000D+01
 ****
      2 0
 S   3 1.00       0.000000000000
      0.1873113696D+02  0.3349460434D-01
      0.2825394365D+01  0.2347269535D+00
      0.6401216923D+00  0.8137573261D+00
 S   1 1.00       0.000000000000
      0.1612777588D+00  0.1000000000D+01
 ****
      3 0
 S   3 1.00       0.000000000000
      0.1873113696D+02  0.3349460434D-01
      0.2825394365D+01  0.2347269535D+00
      0.6401216923D+00  0.8137573261D+00
 S   1 1.00       0.000000000000
      0.1612777588D+00  0.1000000000D+01
 ****
      4 0
 S   3 1.00       0.000000000000
      0.1873113696D+02  0.3349460434D-01
      0.2825394365D+01  0.2347269535D+00
      0.6401216923D+00  0.8137573261D+00
 S   1 1.00       0.000000000000
      0.1612777588D+00  0.1000000000D+01
 ****
      5 0
 S   6 1.00       0.000000000000
      0.3047524880D+04  0.1834737132D-02
      0.4573695180D+03  0.1403732281D-01
      0.1039486850D+03  0.6884262226D-01
      0.2921015530D+02  0.2321844432D+00
      0.9286662960D+01  0.4679413484D+00
      0.3163926960D+01  0.3623119853D+00
 SP   3 1.00       0.000000000000
      0.7868272350D+01 -0.1193324198D+00  0.6899906659D-01
      0.1881288540D+01 -0.1608541517D+00  0.3164239610D+00
      0.5442492580D+00  0.1143456438D+01  0.7443082909D+00
 SP   1 1.00       0.000000000000
      0.1687144782D+00  0.1000000000D+01  0.1000000000D+01
 SP   1 1.00       0.000000000000
      0.4380000000D-01  0.1000000000D+01  0.1000000000D+01
 D   1 1.00       0.000000000000
      0.8000000000D+00  0.1000000000D+01
 ****
      6 0
 S   6 1.00       0.000000000000
      0.5484671660D+04  0.1831074430D-02
      0.8252349460D+03  0.1395017220D-01
      0.1880469580D+03  0.6844507810D-01
      0.5296450000D+02  0.2327143360D+00
      0.1689757040D+02  0.4701928980D+00
      0.5799635340D+01  0.3585208530D+00
 SP   3 1.00       0.000000000000
      0.1553961625D+02 -0.1107775495D+00  0.7087426823D-01
      0.3599933586D+01 -0.1480262627D+00  0.3397528391D+00
      0.1013761750D+01  0.1130767015D+01  0.7271585773D+00
 SP   1 1.00       0.000000000000
      0.2700058226D+00  0.1000000000D+01  0.1000000000D+01
 SP   1 1.00       0.000000000000
      0.8450000000D-01  0.1000000000D+01  0.1000000000D+01
 D   1 1.00       0.000000000000
      0.8000000000D+00  0.1000000000D+01
 ****
      7 0
 S   3 1.00       0.000000000000
      0.1362022000D+04  0.6554398503D-01
      0.2058111000D+03  0.3829869125D+00
      0.4477216700D+02  0.6752098457D+00
 S   3 1.00       0.000000000000
      0.5922573200D+02 -0.9561999185D-01
      0.5213902000D+01  0.6414259453D+00
      0.2047346000D+01  0.4251529638D+00
 S   2 1.00       0.000000000000
      0.3419712000D+01  0.3208071805D+00
      0.4700170000D+00 -0.1130921225D+01
 S   1 1.00       0.000000000000
      0.1699580000D+00  0.1000000000D+01
 P   3 1.00       0.000000000000
      0.6409995800D+02  0.1017890594D+00
      0.1428713900D+02  0.4561072660D+00
      0.3828135000D+01  0.6142823583D+00
 P   2 1.00       0.000000000000
      0.1095126000D+01  0.4970218365D+00
      0.1321760000D+00  0.7302483162D+00
 P   1 1.00       0.000000000000
      0.3960040000D+00  0.1000000000D+01
 D   1 1.00       0.000000000000
      0.6500000000D+00  0.1000000000D+01
 ****

 ======================================================================================================
                                       Pseudopotential Parameters
 ======================================================================================================
  Center     Atomic      Valence      Angular      Power
  Number     Number     Electrons     Momentum     of R      Exponent        Coefficient   SO-Coeffient
 ======================================================================================================
    1          6
                                   No pseudopotential on this center.
    2          1
                                   No pseudopotential on this center.
    3          1
                                   No pseudopotential on this center.
    4          1
                                   No pseudopotential on this center.
    5          6
                                   No pseudopotential on this center.
    6          8
                                   No pseudopotential on this center.
    7         17
                                   No pseudopotential on this center.
 ======================================================================================================
 There are    78 symmetry adapted basis functions of A   symmetry.
 Integral buffers will be    262144 words long.
 Raffenetti 2 integral format.
 Two-electron integral symmetry is turned on.
    78 basis functions,   141 primitive gaussians,    82 cartesian basis functions
    20 alpha electrons       20 beta electrons
       nuclear repulsion energy       149.3545439844 Hartrees.
 NAtoms=    7 NActive=    7 NUniq=    7 SFac= 7.50D-01 NAtFMM=   80 NAOKFM=F Big=F
 One-electron integrals computed using PRISM.
   1 Symmetry operations used in ECPInt.
 ECPInt:  NShTT=     435 NPrTT=    2154 LenC2=     434 LenP2D=    1762.
 LDataN:  DoStor=T MaxTD1= 4 Len=   56
 NBasis=    78 RedAO= T  NBF=    78
 NBsUse=    78 1.00D-06 NBFU=    78
 Harris functional with IExCor=  402 diagonalized for initial guess.
 ExpMin= 4.38D-02 ExpMax= 5.48D+03 ExpMxC= 1.36D+03 IAcc=2 IRadAn=         0 AccDes= 0.00D+00
 HarFok:  IExCor=  402 AccDes= 0.00D+00 IRadAn=         0 IDoV= 1
 ScaDFX=  1.000000  1.000000  1.000000  1.000000
 FoFCou: FMM=F IPFlag=           0 FMFlag=      100000 FMFlg1=           0
         NFxFlg=           0 DoJE=T BraDBF=F KetDBF=T FulRan=T
         Omega=  0.000000  0.000000  1.000000  0.000000  0.000000 ICntrl=     500 IOpCl=  0
         NMat0=    1 NMatS0=    1 NMatT0=    0 NMatD0=    1 NMtDS0=    0 NMtDT0=    0
         I1Cent=           4 NGrid=           0.
 Petite list used in FoFCou.
 Initial guess orbital symmetries:
       Occupied  (A) (A) (A) (A) (A) (A) (A) (A) (A) (A) (A) (A)
                 (A) (A) (A) (A) (A) (A) (A) (A)
       Virtual   (A) (A) (A) (A) (A) (A) (A) (A) (A) (A) (A) (A)
                 (A) (A) (A) (A) (A) (A) (A) (A) (A) (A) (A) (A)
                 (A) (A) (A) (A) (A) (A) (A) (A) (A) (A) (A) (A)
                 (A) (A) (A) (A) (A) (A) (A) (A) (A) (A) (A) (A)
                 (A) (A) (A) (A) (A) (A) (A) (A) (A) (A)
 The electronic state of the initial guess is 1-A.
 Requested convergence on RMS density matrix=1.00D-08 within 128 cycles.
 Requested convergence on MAX density matrix=1.00D-06.
 Requested convergence on             energy=1.00D-06.
 No special actions if energy rises.
 Keep R1 ints in memory in canonical form, NReq=6787120.
 SCF Done:  E(RB3LYP) =  -611.296982650     A.U. after   12 cycles
             Convg  =    0.3168D-08             -V/T =  2.0061

 **********************************************************************

            Population analysis using the SCF density.

 **********************************************************************

 Orbital symmetries:
       Occupied  (A) (A) (A) (A) (A) (A) (A) (A) (A) (A) (A) (A)
                 (A) (A) (A) (A) (A) (A) (A) (A)
       Virtual   (A) (A) (A) (A) (A) (A) (A) (A) (A) (A) (A) (A)
                 (A) (A) (A) (A) (A) (A) (A) (A) (A) (A) (A) (A)
                 (A) (A) (A) (A) (A) (A) (A) (A) (A) (A) (A) (A)
                 (A) (A) (A) (A) (A) (A) (A) (A) (A) (A) (A) (A)
                 (A) (A) (A) (A) (A) (A) (A) (A) (A) (A)
 The electronic state is 1-A.
 Alpha  occ. eigenvalues -- -100.89242 -19.19722 -10.35274 -10.22619  -9.45517
 Alpha  occ. eigenvalues --   -7.19241  -7.17917  -7.17878  -1.11043  -0.86935
 Alpha  occ. eigenvalues --   -0.77815  -0.57854  -0.50596  -0.49001  -0.48901
 Alpha  occ. eigenvalues --   -0.42808  -0.41137  -0.33596  -0.33272  -0.30988
 Alpha virt. eigenvalues --   -0.05404  -0.00281   0.02305   0.03838   0.04598
 Alpha virt. eigenvalues --    0.05539   0.08531   0.08819   0.08975   0.12348
 Alpha virt. eigenvalues --    0.15776   0.16392   0.22566   0.24322   0.24901
 Alpha virt. eigenvalues --    0.26924   0.28318   0.28950   0.41653   0.57213
 Alpha virt. eigenvalues --    0.58258   0.61866   0.63678   0.67752   0.69586
 Alpha virt. eigenvalues --    0.75101   0.76272   0.79044   0.80157   0.89275
 Alpha virt. eigenvalues --    0.90643   0.93994   0.98416   1.03455   1.06763
 Alpha virt. eigenvalues --    1.19212   1.23171   1.23553   1.32816   1.37701
 Alpha virt. eigenvalues --    1.46920   1.54069   1.63667   1.69115   1.72729
 Alpha virt. eigenvalues --    1.79404   1.80160   1.84617   1.89780   2.01279
 Alpha virt. eigenvalues --    2.08022   2.15964   2.29908   2.39889   2.55936
 Alpha virt. eigenvalues --    2.58107   2.87508   3.09271
          Condensed to atoms (all electrons):
              1          2          3          4          5          6
     1  C    5.719774   0.378915   0.363429   0.379010   0.146813  -0.062148
     2  H    0.378915   0.460996  -0.024769  -0.023123  -0.038119   0.000865
     3  H    0.363429  -0.024769   0.467691  -0.024773  -0.028000   0.000074
     4  H    0.379010  -0.023123  -0.024773   0.461018  -0.038224   0.000884
     5  C    0.146813  -0.038119  -0.028000  -0.038224   4.725962   0.319723
     6  O   -0.062148   0.000865   0.000074   0.000884   0.319723   8.151972
     7  Cl  -0.118418  -0.002975   0.005027  -0.002984   0.351677  -0.142562
              7
     1  C   -0.118418
     2  H   -0.002975
     3  H    0.005027
     4  H   -0.002984
     5  C    0.351677
     6  O   -0.142562
     7  Cl  17.131947
 Mulliken atomic charges:
              1
     1  C   -0.807375
     2  H    0.248210
     3  H    0.241321
     4  H    0.248194
     5  C    0.560169
     6  O   -0.268807
     7  Cl  -0.221712
 Sum of Mulliken atomic charges =   0.00000
 Mulliken charges with hydrogens summed into heavy atoms:
              1
     1  C   -0.069650
     5  C    0.560169
     6  O   -0.268807
     7  Cl  -0.221712
 Sum of Mulliken charges with hydrogens summed into heavy atoms =   0.00000
 Electronic spatial extent (au):  <R**2>=            360.7687
 Charge=              0.0000 electrons
 Dipole moment (field-independent basis, Debye):
    X=              1.5648    Y=             -2.6727    Z=              0.0001  Tot=              3.0971
 Quadrupole moment (field-independent basis, Debye-Ang):
   XX=            -30.5708   YY=            -32.7470   ZZ=            -29.7684
   XY=             -3.0983   XZ=              0.0003   YZ=             -0.0002
 Traceless Quadrupole moment (field-independent basis, Debye-Ang):
   XX=              0.4579   YY=             -1.7183   ZZ=              1.2603
   XY=             -3.0983   XZ=              0.0003   YZ=             -0.0002
 Octapole moment (field-independent basis, Debye-Ang**2):
  XXX=              0.9440  YYY=             -3.6234  ZZZ=              0.0018  XYY=             -1.0516
  XXY=             -2.6312  XXZ=             -0.0007  XZZ=              0.6816  YZZ=              0.2075
  YYZ=             -0.0004  XYZ=             -0.0011
 Hexadecapole moment (field-independent basis, Debye-Ang**3):
 XXXX=           -257.8576 YYYY=           -160.6760 ZZZZ=            -37.7589 XXXY=              0.4772
 XXXZ=             -0.0041 YYYX=             -2.5997 YYYZ=              0.0021 ZZZX=              0.0029
 ZZZY=             -0.0027 XXYY=            -74.0194 XXZZ=            -52.8260 YYZZ=            -29.7520
 XXYZ=             -0.0013 YYXZ=              0.0019 ZZXY=              0.2797
 N-N= 1.493545439844D+02 E-N=-1.744206962813D+03  KE= 6.075665444237D+02
   1 Symmetry operations used in ECPInt.
 ECPInt:  NShTT=     435 NPrTT=    2154 LenC2=     434 LenP2D=    1762.
 LDataN:  DoStor=T MaxTD1= 5 Len=  102
 Calling FoFJK, ICntrl=      2127 FMM=F ISym2X=0 I1Cent= 0 IOpClX= 0 NMat=1 NMatS=1 NMatT=0.
 ***** Axes restored to original set *****
 -------------------------------------------------------------------
 Center     Atomic                   Forces (Hartrees/Bohr)
 Number     Number              X              Y              Z
 -------------------------------------------------------------------
      1        6           0.022635469   -0.018221796   -0.000010705
      2        1          -0.002337616    0.005682237   -0.003588939
      3        1          -0.006201984    0.003170563    0.000003282
      4        1          -0.002327271    0.005691864    0.003596561
      5        6          -0.013655108    0.001596382   -0.000005318
      6        8           0.006869912    0.001155526    0.000001820
      7       17          -0.004983402    0.000925223    0.000003299
 -------------------------------------------------------------------
 Cartesian Forces:  Max     0.022635469 RMS     0.007738367

 GradGradGradGradGradGradGradGradGradGradGradGradGradGradGradGradGradGrad
 Berny optimization.
 Internal  Forces:  Max     0.011624614 RMS     0.005129398
 Search for a local minimum.
 Step number   1 out of a maximum of   31
 All quantities printed in internal units (Hartrees-Bohrs-Radians)
 Mixed Optimization -- RFO/linear search
 Second derivative matrix not updated -- first step.
     Eigenvalues ---    0.01036   0.01036   0.07209   0.07279   0.16000
     Eigenvalues ---    0.16000   0.16000   0.25000   0.25000   0.26392
     Eigenvalues ---    0.33186   0.33186   0.33345   0.34621   1.10484
     Eigenvalues --- 1000.000001000.000001000.000001000.000001000.00000
     Eigenvalues --- 1000.00000
 RFO step:  Lambda=-2.22108142D-03 EMin= 1.03643270D-02
 Linear search not attempted -- first point.
 Iteration  1 RMS(Cart)=  0.02537538 RMS(Int)=  0.00052926
 Iteration  2 RMS(Cart)=  0.00047022 RMS(Int)=  0.00018234
 Iteration  3 RMS(Cart)=  0.00000010 RMS(Int)=  0.00018234
 Variable       Old X    -DE/DX   Delta X   Delta X   Delta X     New X
                                 (Linear)    (Quad)   (Total)
    R1        2.08725  -0.00566   0.00000  -0.01693  -0.01693   2.07032
    R2        2.08449  -0.00544   0.00000  -0.01621  -0.01621   2.06828
    R3        2.08727  -0.00567   0.00000  -0.01697  -0.01697   2.07030
    R4        2.79595   0.00952   0.00000   0.02732   0.02732   2.82327
    R5        2.24712   0.00308   0.00000   0.00278   0.00278   2.24990
    R6        3.39494   0.00466   0.00000   0.01750   0.01750   3.41245
    A1        1.87870   0.00476   0.00000   0.03127   0.03104   1.90974
    A2        1.84951   0.00379   0.00000   0.01946   0.01898   1.86849
    A3        1.95167  -0.00424   0.00000  -0.02716  -0.02752   1.92415
    A4        1.87878   0.00476   0.00000   0.03127   0.03104   1.90981
    A5        1.94841  -0.00386   0.00000  -0.02172  -0.02196   1.92644
    A6        1.95174  -0.00423   0.00000  -0.02712  -0.02748   1.92426
    A7        2.27132  -0.01162   0.00000  -0.04609  -0.04609   2.22523
    A8        1.92919   0.00920   0.00000   0.03648   0.03648   1.96567
    A9        2.08267   0.00242   0.00000   0.00961   0.00961   2.09228
    D1        2.10536   0.00045   0.00000   0.00587   0.00576   2.11112
    D2       -1.03625   0.00045   0.00000   0.00623   0.00613  -1.03012
    D3       -0.00065   0.00000   0.00000  -0.00008  -0.00008  -0.00074
    D4        3.14093   0.00000   0.00000   0.00028   0.00028   3.14121
    D5       -2.10681  -0.00045   0.00000  -0.00605  -0.00594  -2.11275
    D6        1.03477  -0.00044   0.00000  -0.00568  -0.00558   1.02919
         Item               Value     Threshold  Converged?
 Maximum Force            0.011625     0.000450     NO 
 RMS     Force            0.005129     0.000300     NO 
 Maximum Displacement     0.055342     0.001800     NO 
 RMS     Displacement     0.025430     0.001200     NO 
 Predicted change in Energy=-1.121079D-03
 GradGradGradGradGradGradGradGradGradGradGradGradGradGradGradGradGradGrad

                          Input orientation:                          
 ---------------------------------------------------------------------
 Center     Atomic      Atomic             Coordinates (Angstroms)
 Number     Number       Type             X           Y           Z
 ---------------------------------------------------------------------
      1          6           0        1.303950   -1.007901   -0.000043
      2          1           0        1.078993   -1.618495    0.881341
      3          1           0        2.366989   -0.747422   -0.000611
      4          1           0        1.078174   -1.619291   -0.880650
      5          6           0        0.465376    0.228571   -0.000124
      6          8           0        0.840372    1.358568   -0.000010
      7         17           0       -1.304033   -0.132069    0.000155
 ---------------------------------------------------------------------
                    Distance matrix (angstroms):
                    1          2          3          4          5
     1  C    0.000000
     2  H    1.095568   0.000000
     3  H    1.094487   1.787608   0.000000
     4  H    1.095555   1.761991   1.787644   0.000000
     5  C    1.494011   2.136623   2.137450   2.136690   0.000000
     6  O    2.411447   3.113940   2.601106   3.114438   1.190594
     7  Cl   2.751118   2.943596   3.722239   2.943222   1.805788
                    6          7
     6  O    0.000000
     7  Cl   2.611603   0.000000
 Stoichiometry    C2H3ClO
 Framework group  C1[X(C2H3ClO)]
 Deg. of freedom    15
 Full point group                 C1      NOp   1
 Largest Abelian subgroup         C1      NOp   1
 Largest concise Abelian subgroup C1      NOp   1
                         Standard orientation:                         
 ---------------------------------------------------------------------
 Center     Atomic      Atomic             Coordinates (Angstroms)
 Number     Number       Type             X           Y           Z
 ---------------------------------------------------------------------
      1          6           0        1.328263   -0.984852   -0.000084
      2          1           0        1.113562   -1.599128    0.881300
      3          1           0        2.386792   -0.706610   -0.000652
      4          1           0        1.112756   -1.599938   -0.880691
      5          6           0        0.469104    0.237405   -0.000165
      6          8           0        0.825125    1.373522   -0.000051
      7         17           0       -1.294019   -0.152813    0.000114
 ---------------------------------------------------------------------
 Rotational constants (GHZ):     10.1590525      4.8955761      3.3725764
 Basis read from rwf:  (5D, 7F)
 Pseudo-potential data read from rwf file.
 There are    78 symmetry adapted basis functions of A   symmetry.
 Integral buffers will be    262144 words long.
 Raffenetti 2 integral format.
 Two-electron integral symmetry is turned on.
    78 basis functions,   141 primitive gaussians,    82 cartesian basis functions
    20 alpha electrons       20 beta electrons
       nuclear repulsion energy       148.6089314514 Hartrees.
 NAtoms=    7 NActive=    7 NUniq=    7 SFac= 7.50D-01 NAtFMM=   80 NAOKFM=F Big=F
 One-electron integrals computed using PRISM.
   1 Symmetry operations used in ECPInt.
 ECPInt:  NShTT=     435 NPrTT=    2154 LenC2=     434 LenP2D=    1761.
 LDataN:  DoStor=T MaxTD1= 4 Len=   56
 NBasis=    78 RedAO= T  NBF=    78
 NBsUse=    78 1.00D-06 NBFU=    78
 Initial guess read from the read-write file.
 B after Tr=     0.000000    0.000000    0.000000
         Rot=    1.000000    0.000000    0.000000    0.000000 Ang=   0.00 deg.
 Initial guess orbital symmetries:
       Occupied  (A) (A) (A) (A) (A) (A) (A) (A) (A) (A) (A) (A)
                 (A) (A) (A) (A) (A) (A) (A) (A)
       Virtual   (A) (A) (A) (A) (A) (A) (A) (A) (A) (A) (A) (A)
                 (A) (A) (A) (A) (A) (A) (A) (A) (A) (A) (A) (A)
                 (A) (A) (A) (A) (A) (A) (A) (A) (A) (A) (A) (A)
                 (A) (A) (A) (A) (A) (A) (A) (A) (A) (A) (A) (A)
                 (A) (A) (A) (A) (A) (A) (A) (A) (A) (A)
 Harris functional with IExCor=  402 diagonalized for initial guess.
 ExpMin= 4.38D-02 ExpMax= 5.48D+03 ExpMxC= 1.36D+03 IAcc=2 IRadAn=         0 AccDes= 0.00D+00
 HarFok:  IExCor=  402 AccDes= 0.00D+00 IRadAn=         0 IDoV= 1
 ScaDFX=  1.000000  1.000000  1.000000  1.000000
 FoFCou: FMM=F IPFlag=           0 FMFlag=      100000 FMFlg1=           0
         NFxFlg=           0 DoJE=T BraDBF=F KetDBF=T FulRan=T
         Omega=  0.000000  0.000000  1.000000  0.000000  0.000000 ICntrl=     500 IOpCl=  0
         NMat0=    1 NMatS0=    1 NMatT0=    0 NMatD0=    1 NMtDS0=    0 NMtDT0=    0
         I1Cent=           4 NGrid=           0.
 Petite list used in FoFCou.
 Requested convergence on RMS density matrix=1.00D-08 within 128 cycles.
 Requested convergence on MAX density matrix=1.00D-06.
 Requested convergence on             energy=1.00D-06.
 No special actions if energy rises.
 Keep R1 ints in memory in canonical form, NReq=6787120.
 SCF Done:  E(RB3LYP) =  -611.298287479     A.U. after   10 cycles
             Convg  =    0.3694D-08             -V/T =  2.0062
   1 Symmetry operations used in ECPInt.
 ECPInt:  NShTT=     435 NPrTT=    2154 LenC2=     434 LenP2D=    1761.
 LDataN:  DoStor=T MaxTD1= 5 Len=  102
 Calling FoFJK, ICntrl=      2127 FMM=F ISym2X=0 I1Cent= 0 IOpClX= 0 NMat=1 NMatS=1 NMatT=0.
 ***** Axes restored to original set *****
 -------------------------------------------------------------------
 Center     Atomic                   Forces (Hartrees/Bohr)
 Number     Number              X              Y              Z
 -------------------------------------------------------------------
      1        6           0.005362169   -0.005459055   -0.000010984
      2        1          -0.000853549    0.000487330    0.000101232
      3        1          -0.001639239    0.001775209   -0.000000446
      4        1          -0.000850402    0.000483449   -0.000102468
      5        6          -0.004695401    0.001699941    0.000035515
      6        8           0.000779208    0.000344653   -0.000014661
      7       17           0.001897214    0.000668473   -0.000008189
 -------------------------------------------------------------------
 Cartesian Forces:  Max     0.005459055 RMS     0.002138611

 GradGradGradGradGradGradGradGradGradGradGradGradGradGradGradGradGradGrad
 Berny optimization.
 Using GEDIIS/GDIIS optimizer.
 Internal  Forces:  Max     0.003379332 RMS     0.001271219
 Search for a local minimum.
 Step number   2 out of a maximum of   31
 All quantities printed in internal units (Hartrees-Bohrs-Radians)
 Mixed Optimization -- RFO/linear search
 Update second derivatives using D2CorX and points    1    2
 DE= -1.30D-03 DEPred=-1.12D-03 R= 1.16D+00
 SS=  1.41D+00  RLast= 9.93D-02 DXNew= 5.0454D-01 2.9796D-01
 Trust test= 1.16D+00 RLast= 9.93D-02 DXMaxT set to 3.00D-01
 Use linear search instead of GDIIS.
     Eigenvalues ---    0.01036   0.01036   0.07460   0.07618   0.12946
     Eigenvalues ---    0.16000   0.16252   0.24005   0.25004   0.28321
     Eigenvalues ---    0.32316   0.33186   0.33511   0.34652   1.10406
     Eigenvalues --- 1000.000001000.000001000.000001000.000001000.00000
     Eigenvalues --- 1000.00000
 RFO step:  Lambda=-1.20447425D-04 EMin= 1.03643190D-02
 Quartic linear search produced a step of  0.21461.
 Iteration  1 RMS(Cart)=  0.00931228 RMS(Int)=  0.00014587
 Iteration  2 RMS(Cart)=  0.00011136 RMS(Int)=  0.00007269
 Iteration  3 RMS(Cart)=  0.00000001 RMS(Int)=  0.00007269
 Variable       Old X    -DE/DX   Delta X   Delta X   Delta X     New X
                                 (Linear)    (Quad)   (Total)
    R1        2.07032  -0.00001  -0.00363   0.00268  -0.00095   2.06937
    R2        2.06828  -0.00117  -0.00348  -0.00164  -0.00512   2.06316
    R3        2.07030  -0.00001  -0.00364   0.00270  -0.00094   2.06936
    R4        2.82327   0.00338   0.00586   0.00744   0.01330   2.83657
    R5        2.24990   0.00057   0.00060   0.00018   0.00078   2.25068
    R6        3.41245  -0.00199   0.00376  -0.01201  -0.00825   3.40420
    A1        1.90974   0.00168   0.00666   0.00750   0.01402   1.92376
    A2        1.86849   0.00076   0.00407   0.00325   0.00719   1.87568
    A3        1.92415  -0.00068  -0.00591  -0.00052  -0.00656   1.91760
    A4        1.90981   0.00168   0.00666   0.00748   0.01401   1.92382
    A5        1.92644  -0.00261  -0.00471  -0.01644  -0.02130   1.90514
    A6        1.92426  -0.00067  -0.00590  -0.00046  -0.00649   1.91777
    A7        2.22523  -0.00127  -0.00989   0.00130  -0.00859   2.21664
    A8        1.96567   0.00111   0.00783  -0.00051   0.00732   1.97299
    A9        2.09228   0.00016   0.00206  -0.00079   0.00127   2.09355
    D1        2.11112  -0.00004   0.00124  -0.00067   0.00057   2.11169
    D2       -1.03012  -0.00006   0.00131  -0.00271  -0.00139  -1.03151
    D3       -0.00074   0.00001  -0.00002   0.00104   0.00102   0.00029
    D4        3.14121  -0.00001   0.00006  -0.00100  -0.00094   3.14027
    D5       -2.11275   0.00006  -0.00128   0.00273   0.00146  -2.11130
    D6        1.02919   0.00004  -0.00120   0.00069  -0.00051   1.02869
         Item               Value     Threshold  Converged?
 Maximum Force            0.003379     0.000450     NO 
 RMS     Force            0.001271     0.000300     NO 
 Maximum Displacement     0.030304     0.001800     NO 
 RMS     Displacement     0.009324     0.001200     NO 
 Predicted change in Energy=-1.019139D-04
 GradGradGradGradGradGradGradGradGradGradGradGradGradGradGradGradGradGrad

                          Input orientation:                          
 ---------------------------------------------------------------------
 Center     Atomic      Atomic             Coordinates (Angstroms)
 Number     Number       Type             X           Y           Z
 ---------------------------------------------------------------------
      1          6           0        1.307409   -1.015722    0.000057
      2          1           0        1.079472   -1.621553    0.883336
      3          1           0        2.361510   -0.731386   -0.000799
      4          1           0        1.078113   -1.622047   -0.882521
      5          6           0        0.462557    0.224993    0.000505
      6          8           0        0.845266    1.352836   -0.000243
      7         17           0       -1.304507   -0.125159   -0.000276
 ---------------------------------------------------------------------
                    Distance matrix (angstroms):
                    1          2          3          4          5
     1  C    0.000000
     2  H    1.095066   0.000000
     3  H    1.091777   1.793799   0.000000
     4  H    1.095058   1.765858   1.793829   0.000000
     5  C    1.501048   2.137687   2.126190   2.137802   0.000000
     6  O    2.413222   3.111680   2.577398   3.111681   1.191006
     7  Cl   2.759567   2.950139   3.715804   2.948882   1.801423
                    6          7
     6  O    0.000000
     7  Cl   2.608830   0.000000
 Stoichiometry    C2H3ClO
 Framework group  C1[X(C2H3ClO)]
 Deg. of freedom    15
 Full point group                 C1      NOp   1
 Largest Abelian subgroup         C1      NOp   1
 Largest concise Abelian subgroup C1      NOp   1
                         Standard orientation:                         
 ---------------------------------------------------------------------
 Center     Atomic      Atomic             Coordinates (Angstroms)
 Number     Number       Type             X           Y           Z
 ---------------------------------------------------------------------
      1          6           0        1.338294   -0.983263    0.000138
      2          1           0        1.124969   -1.594392    0.883417
      3          1           0        2.385264   -0.673699   -0.000717
      4          1           0        1.123621   -1.594919   -0.882440
      5          6           0        0.463895    0.236809    0.000586
      6          8           0        0.819413    1.373516   -0.000162
      7         17           0       -1.294252   -0.155670   -0.000195
 ---------------------------------------------------------------------
 Rotational constants (GHZ):     10.1718017      4.8877120      3.3705524
 Basis read from rwf:  (5D, 7F)
 Pseudo-potential data read from rwf file.
 There are    78 symmetry adapted basis functions of A   symmetry.
 Integral buffers will be    262144 words long.
 Raffenetti 2 integral format.
 Two-electron integral symmetry is turned on.
    78 basis functions,   141 primitive gaussians,    82 cartesian basis functions
    20 alpha electrons       20 beta electrons
       nuclear repulsion energy       148.5978851759 Hartrees.
 NAtoms=    7 NActive=    7 NUniq=    7 SFac= 7.50D-01 NAtFMM=   80 NAOKFM=F Big=F
 One-electron integrals computed using PRISM.
   1 Symmetry operations used in ECPInt.
 ECPInt:  NShTT=     435 NPrTT=    2154 LenC2=     434 LenP2D=    1762.
 LDataN:  DoStor=T MaxTD1= 4 Len=   56
 NBasis=    78 RedAO= T  NBF=    78
 NBsUse=    78 1.00D-06 NBFU=    78
 Initial guess read from the read-write file.
 B after Tr=     0.000000    0.000000    0.000000
         Rot=    1.000000    0.000000    0.000000    0.000000 Ang=   0.00 deg.
 Initial guess orbital symmetries:
       Occupied  (A) (A) (A) (A) (A) (A) (A) (A) (A) (A) (A) (A)
                 (A) (A) (A) (A) (A) (A) (A) (A)
       Virtual   (A) (A) (A) (A) (A) (A) (A) (A) (A) (A) (A) (A)
                 (A) (A) (A) (A) (A) (A) (A) (A) (A) (A) (A) (A)
                 (A) (A) (A) (A) (A) (A) (A) (A) (A) (A) (A) (A)
                 (A) (A) (A) (A) (A) (A) (A) (A) (A) (A) (A) (A)
                 (A) (A) (A) (A) (A) (A) (A) (A) (A) (A)
 Harris functional with IExCor=  402 diagonalized for initial guess.
 ExpMin= 4.38D-02 ExpMax= 5.48D+03 ExpMxC= 1.36D+03 IAcc=2 IRadAn=         0 AccDes= 0.00D+00
 HarFok:  IExCor=  402 AccDes= 0.00D+00 IRadAn=         0 IDoV= 1
 ScaDFX=  1.000000  1.000000  1.000000  1.000000
 FoFCou: FMM=F IPFlag=           0 FMFlag=      100000 FMFlg1=           0
         NFxFlg=           0 DoJE=T BraDBF=F KetDBF=T FulRan=T
         Omega=  0.000000  0.000000  1.000000  0.000000  0.000000 ICntrl=     500 IOpCl=  0
         NMat0=    1 NMatS0=    1 NMatT0=    0 NMatD0=    1 NMtDS0=    0 NMtDT0=    0
         I1Cent=           4 NGrid=           0.
 Petite list used in FoFCou.
 Requested convergence on RMS density matrix=1.00D-08 within 128 cycles.
 Requested convergence on MAX density matrix=1.00D-06.
 Requested convergence on             energy=1.00D-06.
 No special actions if energy rises.
 Keep R1 ints in memory in canonical form, NReq=6787120.
 SCF Done:  E(RB3LYP) =  -611.298398959     A.U. after    9 cycles
             Convg  =    0.5050D-08             -V/T =  2.0062
   1 Symmetry operations used in ECPInt.
 ECPInt:  NShTT=     435 NPrTT=    2154 LenC2=     434 LenP2D=    1762.
 LDataN:  DoStor=T MaxTD1= 5 Len=  102
 Calling FoFJK, ICntrl=      2127 FMM=F ISym2X=0 I1Cent= 0 IOpClX= 0 NMat=1 NMatS=1 NMatT=0.
 ***** Axes restored to original set *****
 -------------------------------------------------------------------
 Center     Atomic                   Forces (Hartrees/Bohr)
 Number     Number              X              Y              Z
 -------------------------------------------------------------------
      1        6           0.000120423   -0.000412197    0.000070031
      2        1           0.000030836   -0.000087650    0.000102907
      3        1           0.000350451    0.000042852    0.000003828
      4        1           0.000018036   -0.000065179   -0.000103401
      5        6          -0.002062231   -0.000091038   -0.000198395
      6        8           0.000331119    0.000393924    0.000076438
      7       17           0.001211367    0.000219289    0.000048592
 -------------------------------------------------------------------
 Cartesian Forces:  Max     0.002062231 RMS     0.000553664

 GradGradGradGradGradGradGradGradGradGradGradGradGradGradGradGradGradGrad
 Berny optimization.
 Using GEDIIS/GDIIS optimizer.
 Internal  Forces:  Max     0.001232435 RMS     0.000349331
 Search for a local minimum.
 Step number   3 out of a maximum of   31
 All quantities printed in internal units (Hartrees-Bohrs-Radians)
 Mixed Optimization -- En-DIIS/RFO-DIIS
 Update second derivatives using D2CorX and points    1    2    3
 DE= -1.11D-04 DEPred=-1.02D-04 R= 1.09D+00
 SS=  1.41D+00  RLast= 3.73D-02 DXNew= 5.0454D-01 1.1194D-01
 Trust test= 1.09D+00 RLast= 3.73D-02 DXMaxT set to 3.00D-01
 Use linear search instead of GDIIS.
     Eigenvalues ---    0.01036   0.01039   0.07628   0.07702   0.12670
     Eigenvalues ---    0.16002   0.16268   0.22582   0.25035   0.28516
     Eigenvalues ---    0.32244   0.33186   0.33602   0.34838   1.10253
     Eigenvalues --- 1000.000001000.000001000.000001000.000001000.00000
     Eigenvalues --- 1000.00000
 RFO step:  Lambda=-9.66323751D-06 EMin= 1.03642612D-02
 Quartic linear search produced a step of  0.09450.
 Iteration  1 RMS(Cart)=  0.00238827 RMS(Int)=  0.00001084
 Iteration  2 RMS(Cart)=  0.00000897 RMS(Int)=  0.00000655
 Iteration  3 RMS(Cart)=  0.00000000 RMS(Int)=  0.00000655
 Variable       Old X    -DE/DX   Delta X   Delta X   Delta X     New X
                                 (Linear)    (Quad)   (Total)
    R1        2.06937   0.00013  -0.00009   0.00026   0.00017   2.06954
    R2        2.06316   0.00035  -0.00048   0.00121   0.00072   2.06388
    R3        2.06936   0.00012  -0.00009   0.00023   0.00014   2.06950
    R4        2.83657   0.00072   0.00126   0.00188   0.00314   2.83971
    R5        2.25068   0.00048   0.00007   0.00046   0.00054   2.25121
    R6        3.40420  -0.00123  -0.00078  -0.00440  -0.00518   3.39902
    A1        1.92376  -0.00006   0.00132  -0.00086   0.00046   1.92422
    A2        1.87568  -0.00002   0.00068  -0.00014   0.00054   1.87622
    A3        1.91760   0.00006  -0.00062   0.00048  -0.00015   1.91745
    A4        1.92382  -0.00005   0.00132  -0.00082   0.00050   1.92432
    A5        1.90514   0.00005  -0.00201   0.00115  -0.00087   1.90427
    A6        1.91777   0.00002  -0.00061   0.00016  -0.00046   1.91731
    A7        2.21664  -0.00027  -0.00081  -0.00124  -0.00207   2.21457
    A8        1.97299   0.00011   0.00069   0.00051   0.00119   1.97418
    A9        2.09355   0.00016   0.00012   0.00075   0.00086   2.09441
    D1        2.11169  -0.00006   0.00005  -0.00496  -0.00490   2.10679
    D2       -1.03151   0.00004  -0.00013   0.00521   0.00508  -1.02643
    D3        0.00029  -0.00005   0.00010  -0.00492  -0.00482  -0.00454
    D4        3.14027   0.00005  -0.00009   0.00525   0.00516  -3.13776
    D5       -2.11130  -0.00003   0.00014  -0.00474  -0.00460  -2.11590
    D6        1.02869   0.00007  -0.00005   0.00543   0.00538   1.03407
         Item               Value     Threshold  Converged?
 Maximum Force            0.001232     0.000450     NO 
 RMS     Force            0.000349     0.000300     NO 
 Maximum Displacement     0.006114     0.001800     NO 
 RMS     Displacement     0.002386     0.001200     NO 
 Predicted change in Energy=-5.686111D-06
 GradGradGradGradGradGradGradGradGradGradGradGradGradGradGradGradGradGrad

                          Input orientation:                          
 ---------------------------------------------------------------------
 Center     Atomic      Atomic             Coordinates (Angstroms)
 Number     Number       Type             X           Y           Z
 ---------------------------------------------------------------------
      1          6           0        1.307524   -1.016491   -0.000439
      2          1           0        1.078351   -1.621529    0.883174
      3          1           0        2.361542   -0.730381    0.000334
      4          1           0        1.080067   -1.623428   -0.883163
      5          6           0        0.460852    0.224992   -0.002731
      6          8           0        0.845170    1.352582    0.000714
      7         17           0       -1.303685   -0.123782    0.002169
 ---------------------------------------------------------------------
                    Distance matrix (angstroms):
                    1          2          3          4          5
     1  C    0.000000
     2  H    1.095155   0.000000
     3  H    1.092160   1.794472   0.000000
     4  H    1.095130   1.766340   1.794514   0.000000
     5  C    1.502710   2.139105   2.127292   2.138982   0.000000
     6  O    2.413769   3.111020   2.576455   3.113367   1.191290
     7  Cl   2.759592   2.948476   3.715085   2.952122   1.798682
                    6          7
     6  O    0.000000
     7  Cl   2.607150   0.000000
 Stoichiometry    C2H3ClO
 Framework group  C1[X(C2H3ClO)]
 Deg. of freedom    15
 Full point group                 C1      NOp   1
 Largest Abelian subgroup         C1      NOp   1
 Largest concise Abelian subgroup C1      NOp   1
                         Standard orientation:                         
 ---------------------------------------------------------------------
 Center     Atomic      Atomic             Coordinates (Angstroms)
 Number     Number       Type             X           Y           Z
 ---------------------------------------------------------------------
      1          6           0        1.339986   -0.982178    0.000446
      2          1           0        1.125515   -1.592831    0.883888
      3          1           0        2.386301   -0.669074    0.002287
      4          1           0        1.129125   -1.594835   -0.882447
      5          6           0        0.461690    0.237135   -0.002866
      6          8           0        0.816898    1.374230    0.000854
      7         17           0       -1.293305   -0.156873    0.000233
 ---------------------------------------------------------------------
 Rotational constants (GHZ):     10.1697615      4.8925366      3.3726650
 Basis read from rwf:  (5D, 7F)
 Pseudo-potential data read from rwf file.
 There are    78 symmetry adapted basis functions of A   symmetry.
 Integral buffers will be    262144 words long.
 Raffenetti 2 integral format.
 Two-electron integral symmetry is turned on.
    78 basis functions,   141 primitive gaussians,    82 cartesian basis functions
    20 alpha electrons       20 beta electrons
       nuclear repulsion energy       148.6342928459 Hartrees.
 NAtoms=    7 NActive=    7 NUniq=    7 SFac= 7.50D-01 NAtFMM=   80 NAOKFM=F Big=F
 One-electron integrals computed using PRISM.
   1 Symmetry operations used in ECPInt.
 ECPInt:  NShTT=     435 NPrTT=    2154 LenC2=     434 LenP2D=    1762.
 LDataN:  DoStor=T MaxTD1= 4 Len=   56
 NBasis=    78 RedAO= T  NBF=    78
 NBsUse=    78 1.00D-06 NBFU=    78
 Initial guess read from the read-write file.
 B after Tr=     0.000000    0.000000    0.000000
         Rot=    1.000000    0.000000    0.000000    0.000000 Ang=   0.00 deg.
 Initial guess orbital symmetries:
       Occupied  (A) (A) (A) (A) (A) (A) (A) (A) (A) (A) (A) (A)
                 (A) (A) (A) (A) (A) (A) (A) (A)
       Virtual   (A) (A) (A) (A) (A) (A) (A) (A) (A) (A) (A) (A)
                 (A) (A) (A) (A) (A) (A) (A) (A) (A) (A) (A) (A)
                 (A) (A) (A) (A) (A) (A) (A) (A) (A) (A) (A) (A)
                 (A) (A) (A) (A) (A) (A) (A) (A) (A) (A) (A) (A)
                 (A) (A) (A) (A) (A) (A) (A) (A) (A) (A)
 Requested convergence on RMS density matrix=1.00D-08 within 128 cycles.
 Requested convergence on MAX density matrix=1.00D-06.
 Requested convergence on             energy=1.00D-06.
 No special actions if energy rises.
 Keep R1 ints in memory in canonical form, NReq=6787120.
 SCF Done:  E(RB3LYP) =  -611.298402691     A.U. after   10 cycles
             Convg  =    0.1401D-08             -V/T =  2.0062
   1 Symmetry operations used in ECPInt.
 ECPInt:  NShTT=     435 NPrTT=    2154 LenC2=     434 LenP2D=    1762.
 LDataN:  DoStor=T MaxTD1= 5 Len=  102
 Calling FoFJK, ICntrl=      2127 FMM=F ISym2X=0 I1Cent= 0 IOpClX= 0 NMat=1 NMatS=1 NMatT=0.
 ***** Axes restored to original set *****
 -------------------------------------------------------------------
 Center     Atomic                   Forces (Hartrees/Bohr)
 Number     Number              X              Y              Z
 -------------------------------------------------------------------
      1        6          -0.000188263    0.000251993   -0.000339782
      2        1           0.000034045   -0.000005069    0.000043513
      3        1           0.000087222   -0.000080173   -0.000019861
      4        1           0.000098931   -0.000114013   -0.000050252
      5        6          -0.000795434   -0.000417991    0.000995562
      6        8           0.000199622    0.000287859   -0.000388588
      7       17           0.000563876    0.000077394   -0.000240592
 -------------------------------------------------------------------
 Cartesian Forces:  Max     0.000995562 RMS     0.000359320

 GradGradGradGradGradGradGradGradGradGradGradGradGradGradGradGradGradGrad
 Berny optimization.
 Using GEDIIS/GDIIS optimizer.
 Internal  Forces:  Max     0.000570388 RMS     0.000206607
 Search for a local minimum.
 Step number   4 out of a maximum of   31
 All quantities printed in internal units (Hartrees-Bohrs-Radians)
 Mixed Optimization -- En-DIIS/RFO-DIIS
 Swaping is turned off.
 Update second derivatives using D2CorX and points    1    2    3    4
 DE= -3.73D-06 DEPred=-5.69D-06 R= 6.56D-01
 SS=  1.41D+00  RLast= 1.40D-02 DXNew= 5.0454D-01 4.1948D-02
 Trust test= 6.56D-01 RLast= 1.40D-02 DXMaxT set to 3.00D-01
     Eigenvalues ---    0.01036   0.02449   0.07584   0.07666   0.09394
     Eigenvalues ---    0.16209   0.16339   0.17347   0.25002   0.26712
     Eigenvalues ---    0.32950   0.33183   0.33661   0.33923   1.09062
     Eigenvalues --- 1000.000001000.000001000.000001000.000001000.00000
     Eigenvalues --- 1000.00000
 En-DIIS/RFO-DIIS IScMMF=        0 using points:     4    3
 RFO step:  Lambda=-3.74793396D-06.
 DIIS coeffs:      0.73584      0.26416
 Iteration  1 RMS(Cart)=  0.00475223 RMS(Int)=  0.00004111
 Iteration  2 RMS(Cart)=  0.00003733 RMS(Int)=  0.00001911
 Iteration  3 RMS(Cart)=  0.00000000 RMS(Int)=  0.00001911
 Variable       Old X    -DE/DX   Delta X   Delta X   Delta X     New X
                                  (DIIS)     (GDIIS)  (Total)
    R1        2.06954   0.00003  -0.00004   0.00013   0.00009   2.06963
    R2        2.06388   0.00006  -0.00019   0.00092   0.00073   2.06462
    R3        2.06950   0.00008  -0.00004   0.00020   0.00016   2.06966
    R4        2.83971  -0.00003  -0.00083   0.00686   0.00603   2.84574
    R5        2.25121   0.00034  -0.00014   0.00128   0.00114   2.25235
    R6        3.39902  -0.00057   0.00137  -0.01141  -0.01004   3.38897
    A1        1.92422  -0.00007  -0.00012   0.00167   0.00155   1.92577
    A2        1.87622  -0.00004  -0.00014   0.00157   0.00143   1.87765
    A3        1.91745  -0.00003   0.00004  -0.00118  -0.00115   1.91631
    A4        1.92432  -0.00014  -0.00013   0.00158   0.00145   1.92577
    A5        1.90427   0.00011   0.00023  -0.00288  -0.00265   1.90161
    A6        1.91731   0.00017   0.00012  -0.00070  -0.00058   1.91672
    A7        2.21457  -0.00011   0.00055  -0.00512  -0.00463   2.20994
    A8        1.97418   0.00001  -0.00031   0.00313   0.00276   1.97694
    A9        2.09441   0.00011  -0.00023   0.00212   0.00184   2.09625
    D1        2.10679   0.00021   0.00129   0.00789   0.00918   2.11598
    D2       -1.02643  -0.00027  -0.00134  -0.00904  -0.01038  -1.03681
    D3       -0.00454   0.00025   0.00127   0.00838   0.00965   0.00511
    D4       -3.13776  -0.00023  -0.00136  -0.00856  -0.00992   3.13551
    D5       -2.11590   0.00024   0.00122   0.00868   0.00989  -2.10601
    D6        1.03407  -0.00024  -0.00142  -0.00825  -0.00968   1.02439
         Item               Value     Threshold  Converged?
 Maximum Force            0.000570     0.000450     NO 
 RMS     Force            0.000207     0.000300     YES
 Maximum Displacement     0.011961     0.001800     NO 
 RMS     Displacement     0.004745     0.001200     NO 
 Predicted change in Energy=-1.013442D-05
 GradGradGradGradGradGradGradGradGradGradGradGradGradGradGradGradGradGrad

                          Input orientation:                          
 ---------------------------------------------------------------------
 Center     Atomic      Atomic             Coordinates (Angstroms)
 Number     Number       Type             X           Y           Z
 ---------------------------------------------------------------------
      1          6           0        1.307858   -1.018209    0.000543
      2          1           0        1.082131   -1.624257    0.884410
      3          1           0        2.361046   -0.727605   -0.001752
      4          1           0        1.078002   -1.623263   -0.882957
      5          6           0        0.457509    0.224625    0.003599
      6          8           0        0.845520    1.351583   -0.001308
      7         17           0       -1.302245   -0.120911   -0.002476
 ---------------------------------------------------------------------
                    Distance matrix (angstroms):
                    1          2          3          4          5
     1  C    0.000000
     2  H    1.095202   0.000000
     3  H    1.092548   1.795799   0.000000
     4  H    1.095215   1.767373   1.795808   0.000000
     5  C    1.505902   2.141108   2.128432   2.141421   0.000000
     6  O    2.414472   3.113857   2.572906   3.111441   1.191895
     7  Cl   2.760035   2.954973   3.713190   2.949218   1.793367
                    6          7
     6  O    0.000000
     7  Cl   2.604062   0.000000
 Stoichiometry    C2H3ClO
 Framework group  C1[X(C2H3ClO)]
 Deg. of freedom    15
 Full point group                 C1      NOp   1
 Largest Abelian subgroup         C1      NOp   1
 Largest concise Abelian subgroup C1      NOp   1
                         Standard orientation:                         
 ---------------------------------------------------------------------
 Center     Atomic      Atomic             Coordinates (Angstroms)
 Number     Number       Type             X           Y           Z
 ---------------------------------------------------------------------
      1          6           0       -1.343435   -0.980081    0.000621
      2          1           0       -1.136455   -1.592700   -0.883305
      3          1           0       -2.387726   -0.658980    0.004039
      4          1           0       -1.130234   -1.591296    0.884056
      5          6           0       -0.457318    0.237505   -0.003836
      6          8           0       -0.812396    1.375269    0.001144
      7         17           0        1.291653   -0.159043    0.000315
 ---------------------------------------------------------------------
 Rotational constants (GHZ):     10.1697759      4.9005401      3.3765550
 Basis read from rwf:  (5D, 7F)
 Pseudo-potential data read from rwf file.
 There are    78 symmetry adapted basis functions of A   symmetry.
 Integral buffers will be    262144 words long.
 Raffenetti 2 integral format.
 Two-electron integral symmetry is turned on.
    78 basis functions,   141 primitive gaussians,    82 cartesian basis functions
    20 alpha electrons       20 beta electrons
       nuclear repulsion energy       148.7056165103 Hartrees.
 NAtoms=    7 NActive=    7 NUniq=    7 SFac= 7.50D-01 NAtFMM=   80 NAOKFM=F Big=F
 One-electron integrals computed using PRISM.
   1 Symmetry operations used in ECPInt.
 ECPInt:  NShTT=     435 NPrTT=    2154 LenC2=     434 LenP2D=    1762.
 LDataN:  DoStor=T MaxTD1= 4 Len=   56
 NBasis=    78 RedAO= T  NBF=    78
 NBsUse=    78 1.00D-06 NBFU=    78
 Initial guess read from the read-write file.
 B after Tr=     0.000000    0.000000    0.000000
         Rot=    1.000000    0.000000    0.000000    0.000000 Ang=   0.00 deg.
 Initial guess orbital symmetries:
       Occupied  (A) (A) (A) (A) (A) (A) (A) (A) (A) (A) (A) (A)
                 (A) (A) (A) (A) (A) (A) (A) (A)
       Virtual   (A) (A) (A) (A) (A) (A) (A) (A) (A) (A) (A) (A)
                 (A) (A) (A) (A) (A) (A) (A) (A) (A) (A) (A) (A)
                 (A) (A) (A) (A) (A) (A) (A) (A) (A) (A) (A) (A)
                 (A) (A) (A) (A) (A) (A) (A) (A) (A) (A) (A) (A)
                 (A) (A) (A) (A) (A) (A) (A) (A) (A) (A)
 Requested convergence on RMS density matrix=1.00D-08 within 128 cycles.
 Requested convergence on MAX density matrix=1.00D-06.
 Requested convergence on             energy=1.00D-06.
 No special actions if energy rises.
 Keep R1 ints in memory in canonical form, NReq=6787120.
 SCF Done:  E(RB3LYP) =  -611.298393377     A.U. after   13 cycles
             Convg  =    0.2370D-08             -V/T =  2.0062
   1 Symmetry operations used in ECPInt.
 ECPInt:  NShTT=     435 NPrTT=    2154 LenC2=     434 LenP2D=    1762.
 LDataN:  DoStor=T MaxTD1= 5 Len=  102
 Calling FoFJK, ICntrl=      2127 FMM=F ISym2X=0 I1Cent= 0 IOpClX= 0 NMat=1 NMatS=1 NMatT=0.
 ***** Axes restored to original set *****
 -------------------------------------------------------------------
 Center     Atomic                   Forces (Hartrees/Bohr)
 Number     Number              X              Y              Z
 -------------------------------------------------------------------
      1        6          -0.001064905    0.001603588    0.000466588
      2        1           0.000218832   -0.000165032   -0.000027732
      3        1          -0.000178603   -0.000355181    0.000026754
      4        1           0.000131189   -0.000016586    0.000033074
      5        6           0.001728227   -0.000920026   -0.001346925
      6        8          -0.000150469    0.000051068    0.000525302
      7       17          -0.000684272   -0.000197831    0.000322939
 -------------------------------------------------------------------
 Cartesian Forces:  Max     0.001728227 RMS     0.000715033

 GradGradGradGradGradGradGradGradGradGradGradGradGradGradGradGradGradGrad
 Berny optimization.
 Using GEDIIS/GDIIS optimizer.
 Internal  Forces:  Max     0.001385206 RMS     0.000418921
 Search for a local minimum.
 Step number   5 out of a maximum of   31
 All quantities printed in internal units (Hartrees-Bohrs-Radians)
 Mixed Optimization -- En-DIIS/RFO-DIIS
 Swaping is turned off.
 Update second derivatives using D2CorX and points    1    2    3    4    5
 DE=  9.31D-06 DEPred=-1.01D-05 R=-9.19D-01
 Trust test=-9.19D-01 RLast= 2.76D-02 DXMaxT set to 1.50D-01
     Eigenvalues ---    0.01036   0.04483   0.07641   0.07659   0.08933
     Eigenvalues ---    0.14589   0.16420   0.16468   0.24622   0.25901
     Eigenvalues ---    0.31593   0.33206   0.33961   0.36160   1.08784
     Eigenvalues --- 1000.000001000.000001000.000001000.000001000.00000
     Eigenvalues --- 1000.00000
 En-DIIS/RFO-DIIS IScMMF=        0 using points:     5    4    3
 RFO step:  Lambda=-9.93874886D-06.
 DIIS coeffs:      0.32216      0.41965      0.25818
 Iteration  1 RMS(Cart)=  0.00321958 RMS(Int)=  0.00001659
 Iteration  2 RMS(Cart)=  0.00001740 RMS(Int)=  0.00000412
 Iteration  3 RMS(Cart)=  0.00000000 RMS(Int)=  0.00000412
 Variable       Old X    -DE/DX   Delta X   Delta X   Delta X     New X
                                  (DIIS)     (GDIIS)  (Total)
    R1        2.06963   0.00002  -0.00010   0.00036   0.00026   2.06989
    R2        2.06462  -0.00027  -0.00068   0.00045  -0.00024   2.06438
    R3        2.06966  -0.00004  -0.00014   0.00036   0.00022   2.06988
    R4        2.84574  -0.00139  -0.00490  -0.00106  -0.00596   2.83979
    R5        2.25235   0.00000  -0.00091   0.00025  -0.00066   2.25169
    R6        3.38897   0.00071   0.00815  -0.00178   0.00636   3.39534
    A1        1.92577  -0.00032  -0.00117  -0.00157  -0.00274   1.92303
    A2        1.87765  -0.00015  -0.00111  -0.00061  -0.00173   1.87593
    A3        1.91631   0.00032   0.00081   0.00106   0.00187   1.91817
    A4        1.92577  -0.00023  -0.00111  -0.00158  -0.00269   1.92308
    A5        1.90161   0.00034   0.00203   0.00164   0.00367   1.90528
    A6        1.91672   0.00003   0.00051   0.00105   0.00156   1.91828
    A7        2.20994   0.00030   0.00367   0.00036   0.00404   2.21398
    A8        1.97694  -0.00025  -0.00218  -0.00061  -0.00277   1.97417
    A9        2.09625  -0.00005  -0.00147   0.00025  -0.00121   2.09504
    D1        2.11598  -0.00032  -0.00496  -0.00012  -0.00508   2.11089
    D2       -1.03681   0.00034   0.00573  -0.00032   0.00540  -1.03141
    D3        0.00511  -0.00034  -0.00530   0.00013  -0.00517  -0.00006
    D4        3.13551   0.00032   0.00539  -0.00007   0.00532   3.14083
    D5       -2.10601  -0.00029  -0.00552   0.00039  -0.00513  -2.11113
    D6        1.02439   0.00036   0.00517   0.00019   0.00536   1.02975
         Item               Value     Threshold  Converged?
 Maximum Force            0.001385     0.000450     NO 
 RMS     Force            0.000419     0.000300     NO 
 Maximum Displacement     0.006412     0.001800     NO 
 RMS     Displacement     0.003226     0.001200     NO 
 Predicted change in Energy=-1.459165D-05
 GradGradGradGradGradGradGradGradGradGradGradGradGradGradGradGradGradGrad

                          Input orientation:                          
 ---------------------------------------------------------------------
 Center     Atomic      Atomic             Coordinates (Angstroms)
 Number     Number       Type             X           Y           Z
 ---------------------------------------------------------------------
      1          6           0        1.306935   -1.016161    0.000019
      2          1           0        1.080066   -1.622488    0.883571
      3          1           0        2.361441   -0.730849   -0.000639
      4          1           0        1.079064   -1.623040   -0.882887
      5          6           0        0.460004    0.225195    0.000205
      6          8           0        0.844865    1.352876   -0.000219
      7         17           0       -1.302556   -0.123571    0.000008
 ---------------------------------------------------------------------
                    Distance matrix (angstroms):
                    1          2          3          4          5
     1  C    0.000000
     2  H    1.095338   0.000000
     3  H    1.092422   1.794093   0.000000
     4  H    1.095332   1.766459   1.794118   0.000000
     5  C    1.502750   2.139800   2.128258   2.139874   0.000000
     6  O    2.413679   3.112747   2.577191   3.112881   1.191546
     7  Cl   2.757927   2.950309   3.713982   2.949580   1.796735
                    6          7
     6  O    0.000000
     7  Cl   2.606015   0.000000
 Stoichiometry    C2H3ClO
 Framework group  C1[X(C2H3ClO)]
 Deg. of freedom    15
 Full point group                 C1      NOp   1
 Largest Abelian subgroup         C1      NOp   1
 Largest concise Abelian subgroup C1      NOp   1
                         Standard orientation:                         
 ---------------------------------------------------------------------
 Center     Atomic      Atomic             Coordinates (Angstroms)
 Number     Number       Type             X           Y           Z
 ---------------------------------------------------------------------
      1          6           0        1.339444   -0.981706    0.000025
      2          1           0        1.128399   -1.593720    0.883577
      3          1           0        2.386183   -0.669100   -0.000633
      4          1           0        1.127412   -1.594298   -0.882882
      5          6           0        0.460556    0.237235    0.000211
      6          8           0        0.815997    1.374531   -0.000213
      7         17           0       -1.292351   -0.157194    0.000013
 ---------------------------------------------------------------------
 Rotational constants (GHZ):     10.1686767      4.8989586      3.3756006
 Basis read from rwf:  (5D, 7F)
 Pseudo-potential data read from rwf file.
 There are    78 symmetry adapted basis functions of A   symmetry.
 Integral buffers will be    262144 words long.
 Raffenetti 2 integral format.
 Two-electron integral symmetry is turned on.
    78 basis functions,   141 primitive gaussians,    82 cartesian basis functions
    20 alpha electrons       20 beta electrons
       nuclear repulsion energy       148.6831750521 Hartrees.
 NAtoms=    7 NActive=    7 NUniq=    7 SFac= 7.50D-01 NAtFMM=   80 NAOKFM=F Big=F
 One-electron integrals computed using PRISM.
   1 Symmetry operations used in ECPInt.
 ECPInt:  NShTT=     435 NPrTT=    2154 LenC2=     434 LenP2D=    1762.
 LDataN:  DoStor=T MaxTD1= 4 Len=   56
 NBasis=    78 RedAO= T  NBF=    78
 NBsUse=    78 1.00D-06 NBFU=    78
 Initial guess read from the read-write file.
 B after Tr=     0.000000    0.000000    0.000000
         Rot=    1.000000    0.000000    0.000000    0.000000 Ang=   0.00 deg.
 Initial guess orbital symmetries:
       Occupied  (A) (A) (A) (A) (A) (A) (A) (A) (A) (A) (A) (A)
                 (A) (A) (A) (A) (A) (A) (A) (A)
       Virtual   (A) (A) (A) (A) (A) (A) (A) (A) (A) (A) (A) (A)
                 (A) (A) (A) (A) (A) (A) (A) (A) (A) (A) (A) (A)
                 (A) (A) (A) (A) (A) (A) (A) (A) (A) (A) (A) (A)
                 (A) (A) (A) (A) (A) (A) (A) (A) (A) (A) (A) (A)
                 (A) (A) (A) (A) (A) (A) (A) (A) (A) (A)
 Requested convergence on RMS density matrix=1.00D-08 within 128 cycles.
 Requested convergence on MAX density matrix=1.00D-06.
 Requested convergence on             energy=1.00D-06.
 No special actions if energy rises.
 Keep R1 ints in memory in canonical form, NReq=6787120.
 SCF Done:  E(RB3LYP) =  -611.298407238     A.U. after   13 cycles
             Convg  =    0.2416D-08             -V/T =  2.0062
   1 Symmetry operations used in ECPInt.
 ECPInt:  NShTT=     435 NPrTT=    2154 LenC2=     434 LenP2D=    1762.
 LDataN:  DoStor=T MaxTD1= 5 Len=  102
 Calling FoFJK, ICntrl=      2127 FMM=F ISym2X=0 I1Cent= 0 IOpClX= 0 NMat=1 NMatS=1 NMatT=0.
 ***** Axes restored to original set *****
 -------------------------------------------------------------------
 Center     Atomic                   Forces (Hartrees/Bohr)
 Number     Number              X              Y              Z
 -------------------------------------------------------------------
      1        6           0.000160869    0.000008851    0.000031303
      2        1          -0.000003639    0.000040804   -0.000039512
      3        1          -0.000098577    0.000008300    0.000001982
      4        1          -0.000008803    0.000051234    0.000039365
      5        6          -0.000199209   -0.000253767   -0.000089583
      6        8           0.000123610    0.000116712    0.000034415
      7       17           0.000025748    0.000027866    0.000022029
 -------------------------------------------------------------------
 Cartesian Forces:  Max     0.000253767 RMS     0.000094702

 GradGradGradGradGradGradGradGradGradGradGradGradGradGradGradGradGradGrad
 Berny optimization.
 Using GEDIIS/GDIIS optimizer.
 Internal  Forces:  Max     0.000153969 RMS     0.000065503
 Search for a local minimum.
 Step number   6 out of a maximum of   31
 All quantities printed in internal units (Hartrees-Bohrs-Radians)
 Mixed Optimization -- En-DIIS/RFO-DIIS
 Swaping is turned off.
 Update second derivatives using D2CorX and points    1    2    3    4    5
                                                      6
 DE= -1.39D-05 DEPred=-1.46D-05 R= 9.50D-01
 SS=  1.41D+00  RLast= 1.74D-02 DXNew= 2.5227D-01 5.2323D-02
 Trust test= 9.50D-01 RLast= 1.74D-02 DXMaxT set to 1.50D-01
     Eigenvalues ---    0.01036   0.05572   0.07566   0.07681   0.12619
     Eigenvalues ---    0.13194   0.16415   0.16455   0.24968   0.27042
     Eigenvalues ---    0.31517   0.33207   0.33884   0.36683   1.08144
     Eigenvalues --- 1000.000001000.000001000.000001000.000001000.00000
     Eigenvalues --- 1000.00000
 En-DIIS/RFO-DIIS IScMMF=        0 using points:     6    5    4    3
 RFO step:  Lambda=-1.65785775D-07.
 DIIS coeffs:      0.86602      0.04938      0.13238     -0.04777
 Iteration  1 RMS(Cart)=  0.00040815 RMS(Int)=  0.00000087
 Iteration  2 RMS(Cart)=  0.00000020 RMS(Int)=  0.00000085
 Variable       Old X    -DE/DX   Delta X   Delta X   Delta X     New X
                                  (DIIS)     (GDIIS)  (Total)
    R1        2.06989  -0.00005  -0.00003  -0.00010  -0.00014   2.06975
    R2        2.06438  -0.00009   0.00000  -0.00026  -0.00026   2.06412
    R3        2.06988  -0.00006  -0.00004  -0.00010  -0.00014   2.06974
    R4        2.83979  -0.00006   0.00044  -0.00038   0.00006   2.83984
    R5        2.25169   0.00015   0.00002   0.00015   0.00017   2.25187
    R6        3.39534  -0.00003  -0.00025  -0.00028  -0.00053   3.39481
    A1        1.92303   0.00003   0.00026  -0.00001   0.00025   1.92328
    A2        1.87593   0.00002   0.00014   0.00005   0.00019   1.87611
    A3        1.91817  -0.00002  -0.00016   0.00001  -0.00015   1.91802
    A4        1.92308   0.00003   0.00026  -0.00001   0.00025   1.92333
    A5        1.90528  -0.00003  -0.00031  -0.00004  -0.00034   1.90494
    A6        1.91828  -0.00003  -0.00018   0.00000  -0.00018   1.91810
    A7        2.21398  -0.00015  -0.00025  -0.00048  -0.00072   2.21326
    A8        1.97417   0.00012   0.00019   0.00034   0.00054   1.97470
    A9        2.09504   0.00003   0.00005   0.00014   0.00019   2.09523
    D1        2.11089  -0.00002  -0.00033  -0.00002  -0.00035   2.11054
    D2       -1.03141   0.00002   0.00040   0.00004   0.00043  -1.03098
    D3       -0.00006  -0.00002  -0.00035   0.00001  -0.00035  -0.00041
    D4        3.14083   0.00002   0.00037   0.00006   0.00044   3.14126
    D5       -2.11113  -0.00002  -0.00037   0.00004  -0.00033  -2.11146
    D6        1.02975   0.00002   0.00036   0.00010   0.00046   1.03021
         Item               Value     Threshold  Converged?
 Maximum Force            0.000154     0.000450     YES
 RMS     Force            0.000066     0.000300     YES
 Maximum Displacement     0.000896     0.001800     YES
 RMS     Displacement     0.000408     0.001200     YES
 Predicted change in Energy=-1.798369D-07
 Optimization completed.
    -- Stationary point found.
                           ----------------------------
                           !   Optimized Parameters   !
                           ! (Angstroms and Degrees)  !
 --------------------------                            --------------------------
 ! Name  Definition              Value          Derivative Info.                !
 --------------------------------------------------------------------------------
 ! R1    R(1,2)                  1.0953         -DE/DX =   -0.0001              !
 ! R2    R(1,3)                  1.0924         -DE/DX =   -0.0001              !
 ! R3    R(1,4)                  1.0953         -DE/DX =   -0.0001              !
 ! R4    R(1,5)                  1.5028         -DE/DX =   -0.0001              !
 ! R5    R(5,6)                  1.1915         -DE/DX =    0.0002              !
 ! R6    R(5,7)                  1.7967         -DE/DX =    0.0                 !
 ! A1    A(2,1,3)              110.1814         -DE/DX =    0.0                 !
 ! A2    A(2,1,4)              107.4827         -DE/DX =    0.0                 !
 ! A3    A(2,1,5)              109.9033         -DE/DX =    0.0                 !
 ! A4    A(3,1,4)              110.1841         -DE/DX =    0.0                 !
 ! A5    A(3,1,5)              109.1645         -DE/DX =    0.0                 !
 ! A6    A(4,1,5)              109.9095         -DE/DX =    0.0                 !
 ! A7    A(1,5,6)              126.8517         -DE/DX =   -0.0002              !
 ! A8    A(1,5,7)              113.1114         -DE/DX =    0.0001              !
 ! A9    A(6,5,7)              120.0368         -DE/DX =    0.0                 !
 ! D1    D(2,1,5,6)            120.9453         -DE/DX =    0.0                 !
 ! D2    D(2,1,5,7)            -59.0954         -DE/DX =    0.0                 !
 ! D3    D(3,1,5,6)             -0.0033         -DE/DX =    0.0                 !
 ! D4    D(3,1,5,7)            179.956          -DE/DX =    0.0                 !
 ! D5    D(4,1,5,6)           -120.9591         -DE/DX =    0.0                 !
 ! D6    D(4,1,5,7)             59.0002         -DE/DX =    0.0                 !
 --------------------------------------------------------------------------------
 GradGradGradGradGradGradGradGradGradGradGradGradGradGradGradGradGradGrad

                          Input orientation:                          
 ---------------------------------------------------------------------
 Center     Atomic      Atomic             Coordinates (Angstroms)
 Number     Number       Type             X           Y           Z
 ---------------------------------------------------------------------
      1          6           0        1.306935   -1.016161    0.000019
      2          1           0        1.080066   -1.622488    0.883571
      3          1           0        2.361441   -0.730849   -0.000639
      4          1           0        1.079064   -1.623040   -0.882887
      5          6           0        0.460004    0.225195    0.000205
      6          8           0        0.844865    1.352876   -0.000219
      7         17           0       -1.302556   -0.123571    0.000008
 ---------------------------------------------------------------------
                    Distance matrix (angstroms):
                    1          2          3          4          5
     1  C    0.000000
     2  H    1.095338   0.000000
     3  H    1.092422   1.794093   0.000000
     4  H    1.095332   1.766459   1.794118   0.000000
     5  C    1.502750   2.139800   2.128258   2.139874   0.000000
     6  O    2.413679   3.112747   2.577191   3.112881   1.191546
     7  Cl   2.757927   2.950309   3.713982   2.949580   1.796735
                    6          7
     6  O    0.000000
     7  Cl   2.606015   0.000000
 Stoichiometry    C2H3ClO
 Framework group  C1[X(C2H3ClO)]
 Deg. of freedom    15
 Full point group                 C1      NOp   1
 Largest Abelian subgroup         C1      NOp   1
 Largest concise Abelian subgroup C1      NOp   1
                         Standard orientation:                         
 ---------------------------------------------------------------------
 Center     Atomic      Atomic             Coordinates (Angstroms)
 Number     Number       Type             X           Y           Z
 ---------------------------------------------------------------------
      1          6           0        1.339444   -0.981706    0.000025
      2          1           0        1.128399   -1.593720    0.883577
      3          1           0        2.386183   -0.669100   -0.000633
      4          1           0        1.127412   -1.594298   -0.882882
      5          6           0        0.460556    0.237235    0.000211
      6          8           0        0.815997    1.374531   -0.000213
      7         17           0       -1.292351   -0.157194    0.000013
 ---------------------------------------------------------------------
 Rotational constants (GHZ):     10.1686767      4.8989586      3.3756006

 **********************************************************************

            Population analysis using the SCF density.

 **********************************************************************

 Orbital symmetries:
       Occupied  (A) (A) (A) (A) (A) (A) (A) (A) (A) (A) (A) (A)
                 (A) (A) (A) (A) (A) (A) (A) (A)
       Virtual   (A) (A) (A) (A) (A) (A) (A) (A) (A) (A) (A) (A)
                 (A) (A) (A) (A) (A) (A) (A) (A) (A) (A) (A) (A)
                 (A) (A) (A) (A) (A) (A) (A) (A) (A) (A) (A) (A)
                 (A) (A) (A) (A) (A) (A) (A) (A) (A) (A) (A) (A)
                 (A) (A) (A) (A) (A) (A) (A) (A) (A) (A)
[...]
     1   6     0.00   0.00   0.01     0.30   0.04   0.00     0.05   0.24   0.00
     2   1    -0.38  -0.34  -0.32     0.55  -0.03   0.01     0.05   0.25   0.00
     3   1     0.00   0.00   0.54     0.17   0.45   0.00     0.04   0.29   0.00
     4   1     0.37   0.34  -0.32     0.55  -0.03  -0.01     0.05   0.25   0.00
     5   6     0.00   0.00   0.01    -0.02  -0.16   0.00     0.14   0.24   0.00
     6   8     0.00   0.00  -0.05    -0.05  -0.16   0.00     0.68   0.05   0.00
     7  17     0.00   0.00   0.02    -0.11   0.10   0.00    -0.38  -0.21   0.00
                     4                      5                      6
                     A                      A                      A
 Frequencies --   538.4613               627.3403               979.2144
 Red. masses --     2.9698                 4.5123                 2.5139
 Frc consts  --     0.5073                 1.0463                 1.4202
 IR Inten    --     2.4193               103.2351                55.5394
  Atom  AN      X      Y      Z        X      Y      Z        X      Y      Z
     1   6     0.00   0.00   0.01     0.19  -0.25   0.00    -0.01   0.24   0.00
     2   1    -0.38   0.39   0.20    -0.12  -0.16  -0.01    -0.51   0.32  -0.06
     3   1     0.00   0.00   0.40     0.34  -0.73   0.00     0.15  -0.34   0.00
     4   1     0.38  -0.39   0.20    -0.12  -0.16   0.01    -0.51   0.32   0.06
     5   6     0.00   0.00  -0.38     0.32   0.07   0.00     0.19  -0.12   0.00
     6   8     0.00   0.00   0.14    -0.13   0.20   0.00    -0.06  -0.13   0.00
     7  17     0.00   0.00   0.04    -0.11   0.00   0.00    -0.01   0.01   0.00
                     7                      8                      9
                     A                      A                      A
 Frequencies --  1057.3297              1140.8568              1419.0886
 Red. masses --     1.6159                 2.1388                 1.2501
 Frc consts  --     1.0644                 1.6401                 1.4833
 IR Inten    --     3.4267               141.5815                26.0941
  Atom  AN      X      Y      Z        X      Y      Z        X      Y      Z
     1   6     0.00   0.00   0.16    -0.18  -0.02   0.00    -0.08   0.12   0.00
     2   1     0.32  -0.53  -0.15     0.30   0.00   0.12     0.35  -0.43  -0.26
     3   1     0.00   0.00  -0.37    -0.40   0.73   0.00     0.10  -0.47   0.00
     4   1    -0.32   0.53  -0.15     0.30   0.00  -0.12     0.35  -0.43   0.26
     5   6     0.00   0.00  -0.17     0.25  -0.06   0.00     0.03  -0.01   0.00
     6   8     0.00   0.00   0.03    -0.04   0.02   0.00     0.00   0.00   0.00
     7  17     0.00   0.00   0.01    -0.01   0.00   0.00     0.00   0.00   0.00
                    10                     11                     12
                     A                      A                      A
 Frequencies --  1483.6106              1490.0043              1884.0173
 Red. masses --     1.0489                 1.0437                12.0387
 Frc consts  --     1.3603                 1.3652                25.1768
 IR Inten    --    15.4774                14.1789               313.5232
  Atom  AN      X      Y      Z        X      Y      Z        X      Y      Z
     1   6     0.05   0.01   0.00     0.00   0.00  -0.05     0.02  -0.06   0.00
     2   1    -0.35  -0.38  -0.35     0.49  -0.03   0.05     0.05  -0.16  -0.08
     3   1    -0.10   0.46   0.00     0.00   0.00   0.72    -0.03   0.17   0.00
     4   1    -0.35  -0.38   0.35    -0.49   0.04   0.05     0.05  -0.16   0.08
     5   6     0.01  -0.01   0.00     0.00   0.00  -0.02     0.15   0.76   0.00
     6   8     0.00   0.02   0.00     0.00   0.00   0.00    -0.16  -0.51   0.00
     7  17     0.00   0.00   0.00     0.00   0.00   0.00     0.01   0.00   0.00
                    13                     14                     15
                     A                      A                      A
 Frequencies --  3067.5009              3134.9701              3168.2634
 Red. masses --     1.0346                 1.1006                 1.1053
 Frc consts  --     5.7360                 6.3732                 6.5369
 IR Inten    --     0.3754                 0.6530                 4.7805
  Atom  AN      X      Y      Z        X      Y      Z        X      Y      Z
     1   6    -0.02   0.05   0.00     0.00   0.00   0.09    -0.08  -0.05   0.00
     2   1    -0.12  -0.34   0.50     0.14   0.40  -0.56     0.05   0.18  -0.28
     3   1     0.46   0.14   0.00     0.00   0.00   0.02     0.84   0.25   0.00
     4   1    -0.12  -0.34  -0.50    -0.14  -0.40  -0.56     0.05   0.18   0.28
     5   6     0.00   0.00   0.00     0.00   0.00   0.00     0.00   0.00   0.00
     6   8     0.00   0.00   0.00     0.00   0.00   0.00     0.00   0.00   0.00
     7  17     0.00   0.00   0.00     0.00   0.00   0.00     0.00   0.00   0.00

 -------------------
 - Thermochemistry -
 -------------------
 Temperature   298.150 Kelvin.  Pressure   1.00000 Atm.
 Atom     1 has atomic number  6 and mass  12.00000
 Atom     2 has atomic number  1 and mass   1.00783
 Atom     3 has atomic number  1 and mass   1.00783
 Atom     4 has atomic number  1 and mass   1.00783
 Atom     5 has atomic number  6 and mass  12.00000
 Atom     6 has atomic number  8 and mass  15.99491
 Atom     7 has atomic number 17 and mass  34.96885
 Molecular mass:    77.98724 amu.
 Principal axes and moments of inertia in atomic units:
                           1         2         3
     Eigenvalues --   177.48044 368.39282 534.64300
           X            0.99440  -0.10569   0.00001
           Y            0.10569   0.99440   0.00010
           Z           -0.00002  -0.00010   1.00000
 This molecule is an asymmetric top.
 Rotational symmetry number  1.
 Rotational temperatures (Kelvin)      0.48802     0.23511     0.16200
 Rotational constants (GHZ):          10.16868     4.89896     3.37560
 Zero-point vibrational energy     125076.8 (Joules/Mol)
                                   29.89408 (Kcal/Mol)
 Warning -- explicit consideration of   4 degrees of freedom as
           vibrations may cause significant error
 Vibrational temperatures:    166.98   497.56   659.93   774.72   902.60
          (Kelvin)           1408.87  1521.26  1641.44  2041.75  2134.58
                             2143.78  2710.68  4413.44  4510.52  4558.42
 
 Zero-point correction=                           0.047639 (Hartree/Particle)
 Thermal correction to Energy=                    0.052250
 Thermal correction to Enthalpy=                  0.053194
 Thermal correction to Gibbs Free Energy=         0.019743
 Sum of electronic and zero-point Energies=           -611.250768
 Sum of electronic and thermal Energies=              -611.246157
 Sum of electronic and thermal Enthalpies=            -611.245213
 Sum of electronic and thermal Free Energies=         -611.278664
 
                     E (Thermal)             CV                S
                      KCal/Mol        Cal/Mol-Kelvin    Cal/Mol-Kelvin
 Total                   32.787             14.203             70.404
 Electronic               0.000              0.000              0.000
 Translational            0.889              2.981             38.977
 Rotational               0.889              2.981             25.061
 Vibrational             31.010              8.242              6.366
 Vibration     1          0.608              1.936              3.165
 Vibration     2          0.724              1.584              1.185
 Vibration     3          0.817              1.342              0.770
 Vibration     4          0.893              1.165              0.569
                       Q            Log10(Q)             Ln(Q)
 Total Bot       0.829674D-09         -9.081092        -20.909988
 Total V=0       0.678256D+13         12.831394         29.545376
 Vib (Bot)       0.457939D-21        -21.339192        -49.135306
 Vib (Bot)    1  0.176239D+01          0.246101          0.566669
 Vib (Bot)    2  0.534952D+00         -0.271686         -0.625579
 Vib (Bot)    3  0.371232D+00         -0.430355         -0.990929
 Vib (Bot)    4  0.294664D+00         -0.530672         -1.221918
 Vib (V=0)       0.374364D+01          0.573294          1.320058
 Vib (V=0)    1  0.233194D+01          0.367717          0.846701
 Vib (V=0)    2  0.123224D+01          0.090695          0.208832
 Vib (V=0)    3  0.112275D+01          0.050282          0.115778
 Vib (V=0)    4  0.108037D+01          0.033572          0.077302
 Electronic      0.100000D+01          0.000000          0.000000
 Translational   0.270701D+08          7.432491         17.113942
 Rotational      0.669282D+05          4.825609         11.111376
 ***** Axes restored to original set *****
 -------------------------------------------------------------------
 Center     Atomic                   Forces (Hartrees/Bohr)
 Number     Number              X              Y              Z
 -------------------------------------------------------------------
      1        6           0.000160867    0.000008852    0.000031304
      2        1          -0.000003638    0.000040806   -0.000039514
      3        1          -0.000098575    0.000008301    0.000001982
      4        1          -0.000008802    0.000051236    0.000039367
      5        6          -0.000199231   -0.000253797   -0.000089583
      6        8           0.000123617    0.000116729    0.000034415
      7       17           0.000025762    0.000027873    0.000022029
 -------------------------------------------------------------------
 Cartesian Forces:  Max     0.000253797 RMS     0.000094709

 GradGradGradGradGradGradGradGradGradGradGradGradGradGradGradGradGradGrad
 Berny optimization.
 Internal  Forces:  Max     0.000153975 RMS     0.000065507
 Search for a local minimum.
 Step number   1 out of a maximum of    2
 All quantities printed in internal units (Hartrees-Bohrs-Radians)
 Second derivative matrix not updated -- analytic derivatives used.
     Eigenvalues ---    0.00089   0.05338   0.05752   0.05855   0.11883
     Eigenvalues ---    0.12901   0.14406   0.15066   0.22075   0.25726
     Eigenvalues ---    0.31303   0.34217   0.34721   0.35285   0.94638
     Eigenvalues --- 1000.000001000.000001000.000001000.000001000.00000
     Eigenvalues --- 1000.00000
 Angle between quadratic step and forces=  45.32 degrees.
 Linear search not attempted -- first point.
 Iteration  1 RMS(Cart)=  0.00058538 RMS(Int)=  0.00000028
 Iteration  2 RMS(Cart)=  0.00000030 RMS(Int)=  0.00000003
 Variable       Old X    -DE/DX   Delta X   Delta X   Delta X     New X
                                 (Linear)    (Quad)   (Total)
    R1        2.06989  -0.00005   0.00000  -0.00015  -0.00015   2.06974
    R2        2.06438  -0.00009   0.00000  -0.00031  -0.00031   2.06407
    R3        2.06988  -0.00006   0.00000  -0.00014  -0.00014   2.06974
    R4        2.83979  -0.00006   0.00000  -0.00011  -0.00011   2.83968
    R5        2.25169   0.00015   0.00000   0.00027   0.00027   2.25197
    R6        3.39534  -0.00003   0.00000  -0.00062  -0.00062   3.39471
    A1        1.92303   0.00003   0.00000   0.00026   0.00026   1.92329
    A2        1.87593   0.00002   0.00000   0.00008   0.00008   1.87601
    A3        1.91817  -0.00002   0.00000  -0.00004  -0.00004   1.91813
    A4        1.92308   0.00003   0.00000   0.00022   0.00022   1.92329
    A5        1.90528  -0.00003   0.00000  -0.00036  -0.00036   1.90492
    A6        1.91828  -0.00003   0.00000  -0.00015  -0.00015   1.91814
    A7        2.21398  -0.00015   0.00000  -0.00091  -0.00091   2.21307
    A8        1.97417   0.00012   0.00000   0.00078   0.00078   1.97495
    A9        2.09504   0.00003   0.00000   0.00012   0.00012   2.09516
    D1        2.11089  -0.00002   0.00000   0.00011   0.00011   2.11100
    D2       -1.03141   0.00002   0.00000   0.00082   0.00082  -1.03059
    D3       -0.00006  -0.00002   0.00000   0.00004   0.00004  -0.00002
    D4        3.14083   0.00002   0.00000   0.00075   0.00075   3.14158
    D5       -2.11113  -0.00002   0.00000   0.00009   0.00009  -2.11104
    D6        1.02975   0.00002   0.00000   0.00080   0.00080   1.03055
         Item               Value     Threshold  Converged?
 Maximum Force            0.000154     0.000450     YES
 RMS     Force            0.000066     0.000300     YES
 Maximum Displacement     0.001139     0.001800     YES
 RMS     Displacement     0.000585     0.001200     YES
 Predicted change in Energy=-2.170302D-07
 Optimization completed.
    -- Stationary point found.
                           ----------------------------
                           !   Optimized Parameters   !
                           ! (Angstroms and Degrees)  !
 --------------------------                            --------------------------
 ! Name  Definition              Value          Derivative Info.                !
 --------------------------------------------------------------------------------
 ! R1    R(1,2)                  1.0953         -DE/DX =   -0.0001              !
 ! R2    R(1,3)                  1.0924         -DE/DX =   -0.0001              !
 ! R3    R(1,4)                  1.0953         -DE/DX =   -0.0001              !
 ! R4    R(1,5)                  1.5028         -DE/DX =   -0.0001              !
 ! R5    R(5,6)                  1.1915         -DE/DX =    0.0002              !
 ! R6    R(5,7)                  1.7967         -DE/DX =    0.0                 !
 ! A1    A(2,1,3)              110.1814         -DE/DX =    0.0                 !
 ! A2    A(2,1,4)              107.4827         -DE/DX =    0.0                 !
 ! A3    A(2,1,5)              109.9033         -DE/DX =    0.0                 !
 ! A4    A(3,1,4)              110.1841         -DE/DX =    0.0                 !
 ! A5    A(3,1,5)              109.1645         -DE/DX =    0.0                 !
 ! A6    A(4,1,5)              109.9095         -DE/DX =    0.0                 !
 ! A7    A(1,5,6)              126.8517         -DE/DX =   -0.0002              !
 ! A8    A(1,5,7)              113.1114         -DE/DX =    0.0001              !
 ! A9    A(6,5,7)              120.0368         -DE/DX =    0.0                 !
 ! D1    D(2,1,5,6)            120.9453         -DE/DX =    0.0                 !
 ! D2    D(2,1,5,7)            -59.0954         -DE/DX =    0.0                 !
 ! D3    D(3,1,5,6)             -0.0033         -DE/DX =    0.0                 !
 ! D4    D(3,1,5,7)            179.956          -DE/DX =    0.0                 !
 ! D5    D(4,1,5,6)           -120.9591         -DE/DX =    0.0                 !
 ! D6    D(4,1,5,7)             59.0002         -DE/DX =    0.0                 !
 --------------------------------------------------------------------------------
 GradGradGradGradGradGradGradGradGradGradGradGradGradGradGradGradGradGrad

 1|1|UNPC-WST-PGHS-014|Freq|RB3LYP|Gen|C2H3Cl1O1|214584429|25-Feb-2015|
 0||#N Geom=AllCheck Guess=TCheck SCRF=Check GenChk RB3LYP/ChkBas Freq|
 |gen calculation ClAc-C H O=6-31+g(d)/Cl=midix||0,1|C,1.3069354417,-1.016161154,0.0000192676|H,
 1.080066344,-1.6224878221,0.8835708097|H,2.3614412195,-0.7308488648,-0
 .0006389799|H,1.0790638716,-1.6230399746,-0.8828873636|C,0.4600043066,
 0.2251953992,0.0002053479|O,0.8448649919,1.3528757885,-0.0002191258|Cl
 ,-1.3025561753,-0.1235713722,0.0000077441||Version=IA32W-G09RevA.02|St
 ate=1-A|HF=-611.2984072|RMSD=1.205e-009|RMSF=9.471e-005|ZeroPoint=0.04
 76392|Thermal=0.0522501|Dipole=0.5653973,-1.0361324,0.0002258|DipoleDe
 riv=-0.1215037,0.1327594,-0.0000592,0.084767,-0.234809,0.0000042,0.000
 003,-0.0000351,0.0572576,0.0531309,0.0072296,0.0581641,0.002935,0.0742
 344,0.0305101,0.0252096,0.0635282,0.0192713,-0.0762067,0.0058896,0.000
 0694,-0.0115997,0.0437592,0.000039,0.0001158,-0.0000198,0.1045789,0.05
 29914,0.0071782,-0.0581973,0.0028777,0.074194,-0.0305125,-0.0252458,-0
 .0635622,0.0194638,1.9347764,0.2003419,-0.0000287,0.5589585,1.3296998,
 -0.0000474,-0.0001215,-0.0001114,0.1948964,-0.7685103,-0.1966222,0.000
 0128,-0.5091853,-1.0756677,0.0000031,0.0002263,0.0002372,-0.2638607,-1
 .0746779,-0.1567765,0.0000388,-0.1287531,-0.2114108,0.0000036,-0.00018
 74,-0.000037,-0.1316073|Polar=45.0249315,2.2995956,38.5577075,-0.00041
 55,-0.0028289,26.6137634|PG=C01 [X(C2H3Cl1O1)]|NImag=0||0.57135270,0.0
 6272364,0.51372621,-0.00000769,0.00000544,0.54121330,-0.06189909,-0.03
 022646,0.04667233,0.06082409,-0.02991105,-0.12502833,0.12496610,0.0315
 9896,0.13804417,0.04556006,0.12292797,-0.22094937,-0.05097828,-0.13316
 892,0.23887740,-0.30510339,-0.06966773,0.00016107,-0.00312986,-0.00083
 102,-0.00015034,0.32957188,-0.07549124,-0.07064078,0.00004147,-0.01623
 372,-0.00404464,-0.00225609,0.07604023,0.07304750,0.00016338,0.0000387
 5,-0.05020034,0.02563595,0.00515789,0.00193189,-0.00017652,-0.00004783
 ,0.04667772,-0.06200810,-0.03040564,-0.04684699,0.00069098,0.00372754,
 0.00557847,-0.00315845,-0.01624324,-0.02561871,0.06095095,-0.03008413,
 -0.12518426,-0.12499812,0.00374343,0.01197247,0.01553295,-0.00083658,-
 0.00404595,-0.00515216,0.03178609,0.13820813,-0.04572523,-0.12296685,-
 0.22070553,-0.00560627,-0.01555571,-0.02118431,0.00015695,0.00227844,0
 .00196378,0.05117069,0.13319863,0.23860829,-0.12934142,0.06075957,0.00
 001973,0.00608665,-0.00915546,0.00078962,-0.01986177,0.02823710,-0.000
 00055,0.00610177,-0.00918295,-0.00079273,0.38466961,0.06675639,-0.1476
 8349,-0.00003697,0.00920964,-0.01943142,-0.00073435,-0.00621457,0.0059
 7672,0.00000374,0.00922147,-0.01944350,0.00074439,0.11286433,0.9892081
 1,-0.00000829,-0.00000269,-0.08737780,-0.01885542,0.02367899,0.0019010
 6,0.00001113,-0.00001878,-0.00140902,0.01884750,-0.02365574,0.00189179
 ,-0.00007214,-0.00024298,0.18819729,0.01598785,0.01438255,0.00000355,-
 0.00045000,0.00383858,-0.00035608,0.00373916,-0.00124088,-0.00000145,-
 0.00045233,0.00384347,0.00035328,-0.15687482,-0.22857617,0.00008136,0.
 18066491,-0.01042563,-0.04911219,0.00002756,0.00204917,-0.00255332,-0.
 00170830,-0.00080379,0.00158971,-0.00000179,0.00204964,-0.00254991,0.0
 0170570,-0.18884057,-0.77729587,0.00024328,0.25547039,0.84731267,0.000
 01392,0.00000501,0.02813636,0.00251677,-0.00355929,-0.00120365,-0.0000
 0294,0.00000119,-0.00069401,-0.00251915,0.00355465,-0.00120276,0.00006
 977,0.00026211,-0.06555843,-0.00009061,-0.00027030,0.02550283,-0.02898
 855,-0.00756593,-0.00000200,-0.00212277,0.00073246,-0.00044344,-0.0020
 5757,0.00493176,-0.00000208,-0.00212481,0.00073067,0.00044331,-0.09078
 003,0.03673890,-0.00000414,-0.04261476,-0.05949920,0.00001223,0.168688
 49,0.01643202,0.00392283,-0.00000549,-0.00014102,0.00104107,-0.0005932
 7,0.00231346,-0.00188258,0.00000140,-0.00013585,0.00104301,0.00059539,
 0.00531798,-0.03133055,-0.00000207,-0.04771794,-0.01739110,0.00000663,
 0.02393135,0.04459731,0.00000386,-0.00000764,0.00988338,0.00061491,-0.
 00151906,0.00062699,0.00000065,0.00000160,0.00172998,-0.00061181,0.001
 51979,0.00062874,-0.00001370,0.00000407,-0.03764488,0.00000996,0.00000
 384,0.01501967,-0.00000387,-0.00000259,0.00975612||-0.00016087,-0.0000
 0885,-0.00003130,0.00000364,-0.00004081,0.00003951,0.00009858,-0.00000
 830,-0.00000198,0.00000880,-0.00005124,-0.00003937,0.00019923,0.000253
 80,0.00008958,-0.00012362,-0.00011673,-0.00003441,-0.00002576,-0.00002
 787,-0.00002203|||@


 THOSE WHO TRY TO PASS CHEMISTRY OFF AS A NEW SCIENCE
 SHOW HOW LITTLE KNOWLEDGE THEY HAVE OF THE CHARACTER
 AND LITERATURE OF THE ANCIENTS.
   -- NICOLAS LEFEVRE
 "COURS DE CHYMIE" J.-N.LELOUP, PARIS, 1751
 Job cpu time:  0 days  0 hours  1 minutes  0.0 seconds.
 File lengths (MBytes):  RWF=      9 Int=      0 D2E=      0 Chk=      1 Scr=      1
 Normal termination of Gaussian 09 at Wed Feb 25 12:44:15 2015.
