 Entering Link 1 = C:\G09W\l1.exe PID=      4868.
  
 Copyright (c) 1988,1990,1992,1993,1995,1998,2003,2009, Gaussian, Inc.
                  All Rights Reserved.
  
 This is part of the Gaussian(R) 09 program.  It is based on
 the Gaussian(R) 03 system (copyright 2003, Gaussian, Inc.),
 the Gaussian(R) 98 system (copyright 1998, Gaussian, Inc.),
 the Gaussian(R) 94 system (copyright 1995, Gaussian, Inc.),
 the Gaussian 92(TM) system (copyright 1992, Gaussian, Inc.),
 the Gaussian 90(TM) system (copyright 1990, Gaussian, Inc.),
 the Gaussian 88(TM) system (copyright 1988, Gaussian, Inc.),
 the Gaussian 86(TM) system (copyright 1986, Carnegie Mellon
 University), and the Gaussian 82(TM) system (copyright 1983,
 Carnegie Mellon University). Gaussian is a federally registered
 trademark of Gaussian, Inc.
  
 This software contains proprietary and confidential information,
 including trade secrets, belonging to Gaussian, Inc.
  
 This software is provided under written license and may be
 used, copied, transmitted, or stored only in accord with that
 written license.
  
 The following legend is applicable only to US Government
 contracts under FAR:
  
                    RESTRICTED RIGHTS LEGEND
  
 Use, reproduction and disclosure by the US Government is
 subject to restrictions as set forth in subparagraphs (a)
 and (c) of the Commercial Computer Software - Restricted
 Rights clause in FAR 52.227-19.
  
 Gaussian, Inc.
 340 Quinnipiac St., Bldg. 40, Wallingford CT 06492
  
  
 ---------------------------------------------------------------
 Warning -- This program may not be used in any manner that
 competes with the business of Gaussian, Inc. or will provide
 assistance to any competitor of Gaussian, Inc.  The licensee
 of this program is prohibited from giving any competitor of
 Gaussian, Inc. access to this program.  By using this program,
 the user acknowledges that Gaussian, Inc. is engaged in the
 business of creating and licensing software in the field of
 computational chemistry and represents and warrants to the
 licensee that it is not a competitor of Gaussian, Inc. and that
 it will not use this program in any manner prohibited above.
 ---------------------------------------------------------------
  

 Cite this work as:
 Gaussian 09, Revision A.02,
 M. J. Frisch, G. W. Trucks, H. B. Schlegel, G. E. Scuseria, 
 M. A. Robb, J. R. Cheeseman, G. Scalmani, V. Barone, B. Mennucci, 
 G. A. Petersson, H. Nakatsuji, M. Caricato, X. Li, H. P. Hratchian, 
 A. F. Izmaylov, J. Bloino, G. Zheng, J. L. Sonnenberg, M. Hada, 
 M. Ehara, K. Toyota, R. Fukuda, J. Hasegawa, M. Ishida, T. Nakajima, 
 Y. Honda, O. Kitao, H. Nakai, T. Vreven, J. A. Montgomery, Jr., 
 J. E. Peralta, F. Ogliaro, M. Bearpark, J. J. Heyd, E. Brothers, 
 K. N. Kudin, V. N. Staroverov, R. Kobayashi, J. Normand, 
 K. Raghavachari, A. Rendell, J. C. Burant, S. S. Iyengar, J. Tomasi, 
 M. Cossi, N. Rega, J. M. Millam, M. Klene, J. E. Knox, J. B. Cross, 
 V. Bakken, C. Adamo, J. Jaramillo, R. Gomperts, R. E. Stratmann, 
 O. Yazyev, A. J. Austin, R. Cammi, C. Pomelli, J. W. Ochterski, 
 R. L. Martin, K. Morokuma, V. G. Zakrzewski, G. A. Voth, 
 P. Salvador, J. J. Dannenberg, S. Dapprich, A. D. Daniels, 
 O. Farkas, J. B. Foresman, J. V. Ortiz, J. Cioslowski, 
 and D. J. Fox, Gaussian, Inc., Wallingford CT, 2009.
 
 ******************************************
 Gaussian 09:  IA32W-G09RevA.02 11-Jun-2009
                25-Mar-2015 
 ******************************************
 ----------------------------------------------
 # opt freq b3lyp/aug-cc-pvtz geom=connectivity
 ----------------------------------------------
 1/14=-1,18=20,19=15,26=3,38=1,57=2/1,3;
 2/9=110,12=2,17=6,18=5,40=1/2;
 3/5=16,6=1,7=10,11=2,16=1,25=1,30=1,71=1,74=-5/1,2,3;
 4//1;
 5/5=2,38=5/2;
 6/7=2,8=2,9=2,10=2,28=1/1;
 7//1,2,3,16;
 1/14=-1,18=20,19=15/3(2);
 2/9=110/2;
 99//99;
 2/9=110/2;
 3/5=16,6=1,7=10,11=2,16=1,25=1,30=1,71=1,74=-5/1,2,3;
 4/5=5,16=3/1;
 5/5=2,38=5/2;
 7//1,2,3,16;
 1/14=-1,18=20,19=15/3(-5);
 2/9=110/2;
 6/7=2,8=2,9=2,10=2,19=2,28=1/1;
 99/9=1/99;
 --------------
 ClAcaug-ccpvtz
 --------------
 Symbolic Z-matrix:
 Charge =  0 Multiplicity = 1
 C                     1.28806  -0.99417  -0.00001 
 H                     1.07567  -1.62374   0.88232 
 H                     2.36877  -0.77322  -0.00069 
 H                     1.07462  -1.6245   -0.88156 
 C                     0.47813   0.24402   0. 
 O                     0.81931   1.38314  0. 
 Cl                   -1.27475  -0.14958   0. 
 

 GradGradGradGradGradGradGradGradGradGradGradGradGradGradGradGradGradGrad
 Berny optimization.
 Initialization pass.
                           ----------------------------
                           !    Initial Parameters    !
                           ! (Angstroms and Degrees)  !
 --------------------------                            --------------------------
 ! Name  Definition              Value          Derivative Info.                !
 --------------------------------------------------------------------------------
 ! R1    R(1,2)                  1.1045         estimate D2E/DX2                !
 ! R2    R(1,3)                  1.1031         estimate D2E/DX2                !
 ! R3    R(1,4)                  1.1045         estimate D2E/DX2                !
 ! R4    R(1,5)                  1.4796         estimate D2E/DX2                !
 ! R5    R(5,6)                  1.1891         estimate D2E/DX2                !
 ! R6    R(5,7)                  1.7965         estimate D2E/DX2                !
 ! A1    A(2,1,3)              107.6416         estimate D2E/DX2                !
 ! A2    A(2,1,4)              105.9691         estimate D2E/DX2                !
 ! A3    A(2,1,5)              111.8226         estimate D2E/DX2                !
 ! A4    A(3,1,4)              107.6459         estimate D2E/DX2                !
 ! A5    A(3,1,5)              111.6354         estimate D2E/DX2                !
 ! A6    A(4,1,5)              111.8267         estimate D2E/DX2                !
 ! A7    A(1,5,6)              130.137          estimate D2E/DX2                !
 ! A8    A(1,5,7)              110.5346         estimate D2E/DX2                !
 ! A9    A(6,5,7)              119.3285         estimate D2E/DX2                !
 ! D1    D(2,1,5,6)            120.6281         estimate D2E/DX2                !
 ! D2    D(2,1,5,7)            -59.3725         estimate D2E/DX2                !
 ! D3    D(3,1,5,6)             -0.0375         estimate D2E/DX2                !
 ! D4    D(3,1,5,7)            179.9619         estimate D2E/DX2                !
 ! D5    D(4,1,5,6)           -120.7114         estimate D2E/DX2                !
 ! D6    D(4,1,5,7)             59.288          estimate D2E/DX2                !
 --------------------------------------------------------------------------------
 Trust Radius=3.00D-01 FncErr=1.00D-07 GrdErr=1.00D-06
 Number of steps in this run=  31 maximum allowed number of steps= 100.
 GradGradGradGradGradGradGradGradGradGradGradGradGradGradGradGradGradGrad

                          Input orientation:                          
 ---------------------------------------------------------------------
 Center     Atomic      Atomic             Coordinates (Angstroms)
 Number     Number       Type             X           Y           Z
 ---------------------------------------------------------------------
      1          6           0        1.288062   -0.994165   -0.000010
      2          1           0        1.075666   -1.623738    0.882319
      3          1           0        2.368774   -0.773222   -0.000692
      4          1           0        1.074625   -1.624495   -0.881557
      5          6           0        0.478133    0.244015    0.000000
      6          8           0        0.819307    1.383143   -0.000002
      7         17           0       -1.274747   -0.149576    0.000000
 ---------------------------------------------------------------------
                    Distance matrix (angstroms):
                    1          2          3          4          5
     1  C    0.000000
     2  H    1.104526   0.000000
     3  H    1.103066   1.781913   0.000000
     4  H    1.104534   1.763876   1.781968   0.000000
     5  C    1.479552   2.150357   2.146927   2.150413   0.000000
     6  O    2.423082   3.144128   2.655326   3.144553   1.189122
     7  Cl   2.698392   2.911371   3.696509   2.910683   1.796525
                    6          7
     6  O    0.000000
     7  Cl   2.595051   0.000000
 Stoichiometry    C2H3ClO
 Framework group  C1[X(C2H3ClO)]
 Deg. of freedom    15
 Full point group                 C1      NOp   1
 Largest Abelian subgroup         C1      NOp   1
 Largest concise Abelian subgroup C1      NOp   1
                         Standard orientation:                         
 ---------------------------------------------------------------------
 Center     Atomic      Atomic             Coordinates (Angstroms)
 Number     Number       Type             X           Y           Z
 ---------------------------------------------------------------------
      1          6           0        1.288062   -0.994165   -0.000010
      2          1           0        1.075666   -1.623738    0.882319
      3          1           0        2.368774   -0.773223   -0.000692
      4          1           0        1.074625   -1.624495   -0.881557
      5          6           0        0.478133    0.244015    0.000000
      6          8           0        0.819308    1.383143   -0.000002
      7         17           0       -1.274747   -0.149575    0.000000
 ---------------------------------------------------------------------
 Rotational constants (GHZ):      9.9919059      5.0526701      3.4271023
 Standard basis: Aug-CC-pVTZ (5D, 7F)
 There are   257 symmetry adapted basis functions of A   symmetry.
 Integral buffers will be    262144 words long.
 Raffenetti 2 integral format.
 Two-electron integral symmetry is turned on.
   257 basis functions,   411 primitive gaussians,   299 cartesian basis functions
    20 alpha electrons       20 beta electrons
       nuclear repulsion energy       149.3545439844 Hartrees.
 NAtoms=    7 NActive=    7 NUniq=    7 SFac= 7.50D-01 NAtFMM=   80 NAOKFM=F Big=F
 One-electron integrals computed using PRISM.
 NBasis=   257 RedAO= T  NBF=   257
 NBsUse=   257 1.00D-06 NBFU=   257
 Harris functional with IExCor=  402 diagonalized for initial guess.
 ExpMin= 2.53D-02 ExpMax= 4.56D+05 ExpMxC= 1.44D+03 IAcc=3 IRadAn=         0 AccDes= 0.00D+00
 HarFok:  IExCor=  402 AccDes= 0.00D+00 IRadAn=         0 IDoV= 1
 ScaDFX=  1.000000  1.000000  1.000000  1.000000
 FoFCou: FMM=F IPFlag=           0 FMFlag=      100000 FMFlg1=           0
         NFxFlg=           0 DoJE=T BraDBF=F KetDBF=T FulRan=T
         Omega=  0.000000  0.000000  1.000000  0.000000  0.000000 ICntrl=     500 IOpCl=  0
         NMat0=    1 NMatS0=    1 NMatT0=    0 NMatD0=    1 NMtDS0=    0 NMtDT0=    0
         I1Cent=           4 NGrid=           0.
 Petite list used in FoFCou.
 Initial guess orbital symmetries:
       Occupied  (A) (A) (A) (A) (A) (A) (A) (A) (A) (A) (A) (A)
                 (A) (A) (A) (A) (A) (A) (A) (A)
       Virtual   (A) (A) (A) (A) (A) (A) (A) (A) (A) (A) (A) (A)
                 (A) (A) (A) (A) (A) (A) (A) (A) (A) (A) (A) (A)
                 (A) (A) (A) (A) (A) (A) (A) (A) (A) (A) (A) (A)
                 (A) (A) (A) (A) (A) (A) (A) (A) (A) (A) (A) (A)
                 (A) (A) (A) (A) (A) (A) (A) (A) (A) (A) (A) (A)
                 (A) (A) (A) (A) (A) (A) (A) (A) (A) (A) (A) (A)
                 (A) (A) (A) (A) (A) (A) (A) (A) (A) (A) (A) (A)
                 (A) (A) (A) (A) (A) (A) (A) (A) (A) (A) (A) (A)
                 (A) (A) (A) (A) (A) (A) (A) (A) (A) (A) (A) (A)
                 (A) (A) (A) (A) (A) (A) (A) (A) (A) (A) (A) (A)
                 (A) (A) (A) (A) (A) (A) (A) (A) (A) (A) (A) (A)
                 (A) (A) (A) (A) (A) (A) (A) (A) (A) (A) (A) (A)
                 (A) (A) (A) (A) (A) (A) (A) (A) (A) (A) (A) (A)
                 (A) (A) (A) (A) (A) (A) (A) (A) (A) (A) (A) (A)
                 (A) (A) (A) (A) (A) (A) (A) (A) (A) (A) (A) (A)
                 (A) (A) (A) (A) (A) (A) (A) (A) (A) (A) (A) (A)
                 (A) (A) (A) (A) (A) (A) (A) (A) (A) (A) (A) (A)
                 (A) (A) (A) (A) (A) (A) (A) (A) (A) (A) (A) (A)
                 (A) (A) (A) (A) (A) (A) (A) (A) (A) (A) (A) (A)
                 (A) (A) (A) (A) (A) (A) (A) (A) (A)
 The electronic state of the initial guess is 1-A.
 Requested convergence on RMS density matrix=1.00D-08 within 128 cycles.
 Requested convergence on MAX density matrix=1.00D-06.
 Requested convergence on             energy=1.00D-06.
 No special actions if energy rises.
 SCF Done:  E(RB3LYP) =  -613.547232758     A.U. after   11 cycles
             Convg  =    0.7873D-08             -V/T =  2.0037

 **********************************************************************

            Population analysis using the SCF density.

 **********************************************************************

 Orbital symmetries:
       Occupied  (A) (A) (A) (A) (A) (A) (A) (A) (A) (A) (A) (A)
                 (A) (A) (A) (A) (A) (A) (A) (A)
       Virtual   (A) (A) (A) (A) (A) (A) (A) (A) (A) (A) (A) (A)
                 (A) (A) (A) (A) (A) (A) (A) (A) (A) (A) (A) (A)
                 (A) (A) (A) (A) (A) (A) (A) (A) (A) (A) (A) (A)
                 (A) (A) (A) (A) (A) (A) (A) (A) (A) (A) (A) (A)
                 (A) (A) (A) (A) (A) (A) (A) (A) (A) (A) (A) (A)
                 (A) (A) (A) (A) (A) (A) (A) (A) (A) (A) (A) (A)
                 (A) (A) (A) (A) (A) (A) (A) (A) (A) (A) (A) (A)
                 (A) (A) (A) (A) (A) (A) (A) (A) (A) (A) (A) (A)
                 (A) (A) (A) (A) (A) (A) (A) (A) (A) (A) (A) (A)
                 (A) (A) (A) (A) (A) (A) (A) (A) (A) (A) (A) (A)
                 (A) (A) (A) (A) (A) (A) (A) (A) (A) (A) (A) (A)
                 (A) (A) (A) (A) (A) (A) (A) (A) (A) (A) (A) (A)
                 (A) (A) (A) (A) (A) (A) (A) (A) (A) (A) (A) (A)
                 (A) (A) (A) (A) (A) (A) (A) (A) (A) (A) (A) (A)
                 (A) (A) (A) (A) (A) (A) (A) (A) (A) (A) (A) (A)
                 (A) (A) (A) (A) (A) (A) (A) (A) (A) (A) (A) (A)
                 (A) (A) (A) (A) (A) (A) (A) (A) (A) (A) (A) (A)
                 (A) (A) (A) (A) (A) (A) (A) (A) (A) (A) (A) (A)
                 (A) (A) (A) (A) (A) (A) (A) (A) (A) (A) (A) (A)
                 (A) (A) (A) (A) (A) (A) (A) (A) (A)
 The electronic state is 1-A.
 Alpha  occ. eigenvalues -- -101.56838 -19.17000 -10.33807 -10.21760  -9.47379
 Alpha  occ. eigenvalues --   -7.23586  -7.22903  -7.22772  -1.10397  -0.86311
 Alpha  occ. eigenvalues --   -0.77425  -0.57589  -0.50345  -0.48858  -0.48596
 Alpha  occ. eigenvalues --   -0.42532  -0.40871  -0.33451  -0.33099  -0.30837
 Alpha virt. eigenvalues --   -0.05609  -0.01956   0.00570   0.01578   0.01683
 Alpha virt. eigenvalues --    0.02315   0.05445   0.06035   0.06641   0.06782
 Alpha virt. eigenvalues --    0.07219   0.07787   0.09800   0.10227   0.10795
 Alpha virt. eigenvalues --    0.11099   0.11535   0.13262   0.16956   0.17401
 Alpha virt. eigenvalues --    0.17422   0.18894   0.19228   0.19983   0.20526
 Alpha virt. eigenvalues --    0.24038   0.25092   0.25689   0.25840   0.26662
 Alpha virt. eigenvalues --    0.27441   0.27653   0.30115   0.30442   0.31501
 Alpha virt. eigenvalues --    0.32244   0.33192   0.33803   0.35011   0.35271
 Alpha virt. eigenvalues --    0.36091   0.37845   0.38930   0.41734   0.41767
 Alpha virt. eigenvalues --    0.43573   0.44858   0.45599   0.48104   0.51452
 Alpha virt. eigenvalues --    0.52271   0.55145   0.57435   0.57969   0.58678
 Alpha virt. eigenvalues --    0.60220   0.61589   0.65243   0.65753   0.66675
 Alpha virt. eigenvalues --    0.67482   0.69857   0.72388   0.72994   0.73139
 Alpha virt. eigenvalues --    0.73853   0.75591   0.75965   0.77050   0.77930
 Alpha virt. eigenvalues --    0.78209   0.82188   0.82751   0.83428   0.83505
 Alpha virt. eigenvalues --    0.84739   0.85071   0.87596   0.88449   0.89986
 Alpha virt. eigenvalues --    0.92750   0.94345   0.96533   0.97089   0.98166
 Alpha virt. eigenvalues --    1.01057   1.02301   1.05035   1.06856   1.07777
 Alpha virt. eigenvalues --    1.09018   1.10316   1.11441   1.12631   1.13812
 Alpha virt. eigenvalues --    1.20786   1.23361   1.25177   1.26235   1.29323
 Alpha virt. eigenvalues --    1.30503   1.32672   1.33388   1.35823   1.36657
 Alpha virt. eigenvalues --    1.39865   1.41774   1.43938   1.45740   1.47913
 Alpha virt. eigenvalues --    1.48464   1.50740   1.50946   1.55177   1.55720
 Alpha virt. eigenvalues --    1.55728   1.58779   1.65046   1.65142   1.66078
 Alpha virt. eigenvalues --    1.66352   1.70489   1.73796   1.79707   1.84323
 Alpha virt. eigenvalues --    1.88390   1.89560   1.91946   1.96324   1.97424
 Alpha virt. eigenvalues --    2.02809   2.09024   2.10968   2.17770   2.19141
 Alpha virt. eigenvalues --    2.21144   2.22788   2.26275   2.27854   2.30354
 Alpha virt. eigenvalues --    2.33778   2.35686   2.39001   2.41647   2.47129
 Alpha virt. eigenvalues --    2.47273   2.52023   2.55179   2.64779   2.65234
 Alpha virt. eigenvalues --    2.70009   2.70567   2.75598   2.75790   2.78854
 Alpha virt. eigenvalues --    2.79643   2.80321   2.84508   2.86452   2.88542
 Alpha virt. eigenvalues --    2.94825   2.99173   3.03596   3.04685   3.10498
 Alpha virt. eigenvalues --    3.16793   3.20196   3.20252   3.27140   3.27427
 Alpha virt. eigenvalues --    3.30205   3.32694   3.36411   3.44970   3.45357
 Alpha virt. eigenvalues --    3.49928   3.50830   3.50856   3.54693   3.56257
 Alpha virt. eigenvalues --    3.59699   3.62572   3.70354   3.72756   3.78832
 Alpha virt. eigenvalues --    3.81332   3.82273   3.84366   3.93813   3.95147
 Alpha virt. eigenvalues --    3.96681   4.03266   4.15934   4.24237   4.26587
 Alpha virt. eigenvalues --    4.29684   4.30680   4.37438   4.40233   4.41062
 Alpha virt. eigenvalues --    4.45736   4.56521   4.57234   4.67978   4.74477
 Alpha virt. eigenvalues --    4.76192   4.85719   4.96079   4.97275   5.05337
 Alpha virt. eigenvalues --    5.11389   5.17249   5.26751   5.29581   5.38795
 Alpha virt. eigenvalues --    5.51370   5.70576   5.73175   5.83790   6.15170
 Alpha virt. eigenvalues --    6.18507   6.26645   6.28933   6.46746   6.51288
 Alpha virt. eigenvalues --    6.72956   6.74294   6.78339   6.85975   6.99330
 Alpha virt. eigenvalues --    7.08678   7.11528   7.21850   7.29958  14.24376
 Alpha virt. eigenvalues --   15.36781  17.28202
          Condensed to atoms (all electrons):
              1          2          3          4          5          6
     1  C    5.239770   0.386584   0.374128   0.386642   0.213317  -0.069913
     2  H    0.386584   0.395506  -0.025119   0.016969  -0.005786  -0.000021
     3  H    0.374128  -0.025119   0.445091  -0.025139  -0.024129   0.011459
     4  H    0.386642   0.016969  -0.025139   0.395514  -0.005822  -0.000031
     5  C    0.213317  -0.005786  -0.024129  -0.005822   4.801082   0.393550
     6  O   -0.069913  -0.000021   0.011459  -0.000031   0.393550   8.221610
     7  Cl  -0.012903  -0.024689   0.019668  -0.024742   0.191558  -0.079325
              7
     1  C   -0.012903
     2  H   -0.024689
     3  H    0.019668
     4  H   -0.024742
     5  C    0.191558
     6  O   -0.079325
     7  Cl  17.108916
 Mulliken atomic charges:
              1
     1  C   -0.517624
     2  H    0.256556
     3  H    0.224041
     4  H    0.256608
     5  C    0.436230
     6  O   -0.477329
     7  Cl  -0.178483
 Sum of Mulliken atomic charges =   0.00000
 Mulliken charges with hydrogens summed into heavy atoms:
              1
     1  C    0.219582
     5  C    0.436230
     6  O   -0.477329
     7  Cl  -0.178483
 Sum of Mulliken charges with hydrogens summed into heavy atoms =   0.00000
 Electronic spatial extent (au):  <R**2>=            360.0989
 Charge=              0.0000 electrons
 Dipole moment (field-independent basis, Debye):
    X=              1.3970    Y=             -2.5642    Z=              0.0001  Tot=              2.9200
 Quadrupole moment (field-independent basis, Debye-Ang):
   XX=            -30.0049   YY=            -32.5000   ZZ=            -29.6804
   XY=             -3.0808   XZ=              0.0003   YZ=             -0.0001
 Traceless Quadrupole moment (field-independent basis, Debye-Ang):
   XX=              0.7235   YY=             -1.7715   ZZ=              1.0480
   XY=             -3.0808   XZ=              0.0003   YZ=             -0.0001
 Octapole moment (field-independent basis, Debye-Ang**2):
  XXX=             -0.3370  YYY=             -3.1851  ZZZ=              0.0017  XYY=             -1.0332
  XXY=             -2.5576  XXZ=             -0.0007  XZZ=              0.5577  YZZ=              0.3029
  YYZ=             -0.0005  XYZ=             -0.0009
 Hexadecapole moment (field-independent basis, Debye-Ang**3):
 XXXX=           -254.5250 YYYY=           -159.7850 ZZZZ=            -37.9294 XXXY=              0.7878
 XXXZ=             -0.0042 YYYX=             -2.5056 YYYZ=              0.0022 ZZZX=              0.0028
 ZZZY=             -0.0027 XXYY=            -73.6275 XXZZ=            -52.4896 YYZZ=            -29.6302
 XXYZ=             -0.0012 YYXZ=              0.0017 ZZXY=              0.2489
 N-N= 1.493545439844D+02 E-N=-1.750888008503D+03  KE= 6.113048190460D+02
 Calling FoFJK, ICntrl=      2127 FMM=F ISym2X=0 I1Cent= 0 IOpClX= 0 NMat=1 NMatS=1 NMatT=0.
 ***** Axes restored to original set *****
 -------------------------------------------------------------------
 Center     Atomic                   Forces (Hartrees/Bohr)
 Number     Number              X              Y              Z
 -------------------------------------------------------------------
      1        6           0.022135543   -0.019227256   -0.000010283
      2        1          -0.002077125    0.007635957   -0.006397255
      3        1          -0.009388341    0.002579762    0.000005591
      4        1          -0.002064837    0.007648471    0.006402345
      5        6          -0.000187318    0.015242120   -0.000004735
      6        8           0.002293589   -0.012449425    0.000001387
      7       17          -0.010711511   -0.001429630    0.000002949
 -------------------------------------------------------------------
 Cartesian Forces:  Max     0.022135543 RMS     0.008920688

 GradGradGradGradGradGradGradGradGradGradGradGradGradGradGradGradGradGrad
 Berny optimization.
 Internal  Forces:  Max     0.011268748 RMS     0.006119017
 Search for a local minimum.
 Step number   1 out of a maximum of   31
 All quantities printed in internal units (Hartrees-Bohrs-Radians)
 Mixed Optimization -- RFO/linear search
 Second derivative matrix not updated -- first step.
     Eigenvalues ---    0.01036   0.01036   0.07209   0.07279   0.16000
     Eigenvalues ---    0.16000   0.16000   0.25000   0.25000   0.26392
     Eigenvalues ---    0.33186   0.33186   0.33345   0.34621   1.10484
     Eigenvalues --- 1000.000001000.000001000.000001000.000001000.00000
     Eigenvalues --- 1000.00000
 RFO step:  Lambda=-2.71869149D-03 EMin= 1.03643270D-02
 Linear search not attempted -- first point.
 Iteration  1 RMS(Cart)=  0.02503200 RMS(Int)=  0.00043626
 Iteration  2 RMS(Cart)=  0.00037314 RMS(Int)=  0.00022087
 Iteration  3 RMS(Cart)=  0.00000008 RMS(Int)=  0.00022087
 Variable       Old X    -DE/DX   Delta X   Delta X   Delta X     New X
                                 (Linear)    (Quad)   (Total)
    R1        2.08725  -0.00906   0.00000  -0.02709  -0.02709   2.06016
    R2        2.08449  -0.00868   0.00000  -0.02582  -0.02582   2.05867
    R3        2.08727  -0.00908   0.00000  -0.02713  -0.02713   2.06014
    R4        2.79595   0.00585   0.00000   0.01677   0.01677   2.81272
    R5        2.24712  -0.01127   0.00000  -0.01017  -0.01017   2.23694
    R6        3.39494   0.01077   0.00000   0.04037   0.04037   3.43532
    A1        1.87870   0.00503   0.00000   0.03373   0.03352   1.91222
    A2        1.84951   0.00382   0.00000   0.01770   0.01707   1.86658
    A3        1.95167  -0.00458   0.00000  -0.02969  -0.03011   1.92156
    A4        1.87878   0.00503   0.00000   0.03373   0.03353   1.91230
    A5        1.94841  -0.00370   0.00000  -0.01967  -0.01989   1.92852
    A6        1.95174  -0.00458   0.00000  -0.02967  -0.03009   1.92165
    A7        2.27132  -0.00971   0.00000  -0.03843  -0.03843   2.23289
    A8        1.92919   0.00647   0.00000   0.02559   0.02559   1.95478
    A9        2.08267   0.00325   0.00000   0.01284   0.01284   2.09552
    D1        2.10536   0.00066   0.00000   0.00872   0.00855   2.11390
    D2       -1.03625   0.00067   0.00000   0.00902   0.00885  -1.02740
    D3       -0.00065   0.00000   0.00000  -0.00006  -0.00006  -0.00071
    D4        3.14093   0.00000   0.00000   0.00024   0.00024   3.14117
    D5       -2.10681  -0.00066   0.00000  -0.00885  -0.00868  -2.11549
    D6        1.03477  -0.00066   0.00000  -0.00855  -0.00837   1.02640
         Item               Value     Threshold  Converged?
 Maximum Force            0.011269     0.000450     NO 
 RMS     Force            0.006119     0.000300     NO 
 Maximum Displacement     0.056140     0.001800     NO 
 RMS     Displacement     0.025106     0.001200     NO 
 Predicted change in Energy=-1.373991D-03
 GradGradGradGradGradGradGradGradGradGradGradGradGradGradGradGradGradGrad

                          Input orientation:                          
 ---------------------------------------------------------------------
 Center     Atomic      Atomic             Coordinates (Angstroms)
 Number     Number       Type             X           Y           Z
 ---------------------------------------------------------------------
      1          6           0        1.304591   -1.004801   -0.000038
      2          1           0        1.074288   -1.610880    0.876400
      3          1           0        2.364300   -0.752189   -0.000616
      4          1           0        1.073438   -1.611652   -0.875704
      5          6           0        0.474347    0.230555   -0.000105
      6          8           0        0.843310    1.355324   -0.000015
      7         17           0       -1.304455   -0.144395    0.000136
 ---------------------------------------------------------------------
                    Distance matrix (angstroms):
                    1          2          3          4          5
     1  C    0.000000
     2  H    1.090191   0.000000
     3  H    1.089402   1.780629   0.000000
     4  H    1.090179   1.752105   1.780669   0.000000
     5  C    1.488425   2.125812   2.130189   2.125868   0.000000
     6  O    2.404780   3.101583   2.599042   3.102054   1.183738
     7  Cl   2.747257   2.928624   3.718760   2.928194   1.817891
                    6          7
     6  O    0.000000
     7  Cl   2.619551   0.000000
 Stoichiometry    C2H3ClO
 Framework group  C1[X(C2H3ClO)]
 Deg. of freedom    15
 Full point group                 C1      NOp   1
 Largest Abelian subgroup         C1      NOp   1
 Largest concise Abelian subgroup C1      NOp   1
                         Standard orientation:                         
 ---------------------------------------------------------------------
 Center     Atomic      Atomic             Coordinates (Angstroms)
 Number     Number       Type             X           Y           Z
 ---------------------------------------------------------------------
      1          6           0        1.314520   -0.993936   -0.000074
      2          1           0        1.086554   -1.600898    0.876365
      3          1           0        2.373248   -0.737243   -0.000651
      4          1           0        1.085707   -1.601673   -0.875740
      5          6           0        0.479523    0.238212   -0.000140
      6          8           0        0.844149    1.364394   -0.000050
      7         17           0       -1.297822   -0.143588    0.000100
 ---------------------------------------------------------------------
 Rotational constants (GHZ):     10.2058063      4.8799959      3.3695025
 Standard basis: Aug-CC-pVTZ (5D, 7F)
 There are   257 symmetry adapted basis functions of A   symmetry.
 Integral buffers will be    262144 words long.
 Raffenetti 2 integral format.
 Two-electron integral symmetry is turned on.
   257 basis functions,   411 primitive gaussians,   299 cartesian basis functions
    20 alpha electrons       20 beta electrons
       nuclear repulsion energy       148.6665462751 Hartrees.
 NAtoms=    7 NActive=    7 NUniq=    7 SFac= 7.50D-01 NAtFMM=   80 NAOKFM=F Big=F
 One-electron integrals computed using PRISM.
 NBasis=   257 RedAO= T  NBF=   257
 NBsUse=   257 1.00D-06 NBFU=   257
 Initial guess read from the read-write file.
 B after Tr=     0.000000    0.000000    0.000000
         Rot=    1.000000    0.000000    0.000000    0.000000 Ang=   0.00 deg.
 Initial guess orbital symmetries:
       Occupied  (A) (A) (A) (A) (A) (A) (A) (A) (A) (A) (A) (A)
                 (A) (A) (A) (A) (A) (A) (A) (A)
       Virtual   (A) (A) (A) (A) (A) (A) (A) (A) (A) (A) (A) (A)
                 (A) (A) (A) (A) (A) (A) (A) (A) (A) (A) (A) (A)
                 (A) (A) (A) (A) (A) (A) (A) (A) (A) (A) (A) (A)
                 (A) (A) (A) (A) (A) (A) (A) (A) (A) (A) (A) (A)
                 (A) (A) (A) (A) (A) (A) (A) (A) (A) (A) (A) (A)
                 (A) (A) (A) (A) (A) (A) (A) (A) (A) (A) (A) (A)
                 (A) (A) (A) (A) (A) (A) (A) (A) (A) (A) (A) (A)
                 (A) (A) (A) (A) (A) (A) (A) (A) (A) (A) (A) (A)
                 (A) (A) (A) (A) (A) (A) (A) (A) (A) (A) (A) (A)
                 (A) (A) (A) (A) (A) (A) (A) (A) (A) (A) (A) (A)
                 (A) (A) (A) (A) (A) (A) (A) (A) (A) (A) (A) (A)
                 (A) (A) (A) (A) (A) (A) (A) (A) (A) (A) (A) (A)
                 (A) (A) (A) (A) (A) (A) (A) (A) (A) (A) (A) (A)
                 (A) (A) (A) (A) (A) (A) (A) (A) (A) (A) (A) (A)
                 (A) (A) (A) (A) (A) (A) (A) (A) (A) (A) (A) (A)
                 (A) (A) (A) (A) (A) (A) (A) (A) (A) (A) (A) (A)
                 (A) (A) (A) (A) (A) (A) (A) (A) (A) (A) (A) (A)
                 (A) (A) (A) (A) (A) (A) (A) (A) (A) (A) (A) (A)
                 (A) (A) (A) (A) (A) (A) (A) (A) (A) (A) (A) (A)
                 (A) (A) (A) (A) (A) (A) (A) (A) (A)
 Harris functional with IExCor=  402 diagonalized for initial guess.
 ExpMin= 2.53D-02 ExpMax= 4.56D+05 ExpMxC= 1.44D+03 IAcc=3 IRadAn=         0 AccDes= 0.00D+00
 HarFok:  IExCor=  402 AccDes= 0.00D+00 IRadAn=         0 IDoV= 1
 ScaDFX=  1.000000  1.000000  1.000000  1.000000
 FoFCou: FMM=F IPFlag=           0 FMFlag=      100000 FMFlg1=           0
         NFxFlg=           0 DoJE=T BraDBF=F KetDBF=T FulRan=T
         Omega=  0.000000  0.000000  1.000000  0.000000  0.000000 ICntrl=     500 IOpCl=  0
         NMat0=    1 NMatS0=    1 NMatT0=    0 NMatD0=    1 NMtDS0=    0 NMtDT0=    0
         I1Cent=           4 NGrid=           0.
 Petite list used in FoFCou.
 Requested convergence on RMS density matrix=1.00D-08 within 128 cycles.
 Requested convergence on MAX density matrix=1.00D-06.
 Requested convergence on             energy=1.00D-06.
 No special actions if energy rises.
 SCF Done:  E(RB3LYP) =  -613.548827680     A.U. after   10 cycles
             Convg  =    0.2496D-08             -V/T =  2.0036
 Calling FoFJK, ICntrl=      2127 FMM=F ISym2X=0 I1Cent= 0 IOpClX= 0 NMat=1 NMatS=1 NMatT=0.
 ***** Axes restored to original set *****
 -------------------------------------------------------------------
 Center     Atomic                   Forces (Hartrees/Bohr)
 Number     Number              X              Y              Z
 -------------------------------------------------------------------
      1        6           0.005062195   -0.006571689   -0.000009303
      2        1          -0.001035371    0.000651525   -0.000100503
      3        1          -0.001814073    0.001868474   -0.000000184
      4        1          -0.001031427    0.000648330    0.000099618
      5        6           0.002768908    0.007795219    0.000027818
      6        8          -0.001503069   -0.003771998   -0.000012199
      7       17          -0.002447164   -0.000619861   -0.000005246
 -------------------------------------------------------------------
 Cartesian Forces:  Max     0.007795219 RMS     0.002844284

 GradGradGradGradGradGradGradGradGradGradGradGradGradGradGradGradGradGrad
 Berny optimization.
 Using GEDIIS/GDIIS optimizer.
 Internal  Forces:  Max     0.004052480 RMS     0.001596519
 Search for a local minimum.
 Step number   2 out of a maximum of   31
 All quantities printed in internal units (Hartrees-Bohrs-Radians)
 Mixed Optimization -- RFO/linear search
 Update second derivatives using D2CorX and points    1    2
 DE= -1.59D-03 DEPred=-1.37D-03 R= 1.16D+00
 SS=  1.41D+00  RLast= 1.07D-01 DXNew= 5.0454D-01 3.2160D-01
 Trust test= 1.16D+00 RLast= 1.07D-01 DXMaxT set to 3.22D-01
 Use linear search instead of GDIIS.
     Eigenvalues ---    0.01036   0.01036   0.07449   0.07617   0.13174
     Eigenvalues ---    0.16000   0.16192   0.24985   0.25176   0.26557
     Eigenvalues ---    0.32291   0.33186   0.33430   0.35986   1.08271
     Eigenvalues --- 1000.000001000.000001000.000001000.000001000.00000
     Eigenvalues --- 1000.00000
 RFO step:  Lambda=-1.48639009D-04 EMin= 1.03643214D-02
 Quartic linear search produced a step of  0.20410.
 Iteration  1 RMS(Cart)=  0.00714222 RMS(Int)=  0.00012034
 Iteration  2 RMS(Cart)=  0.00008132 RMS(Int)=  0.00008166
 Iteration  3 RMS(Cart)=  0.00000001 RMS(Int)=  0.00008166
 Variable       Old X    -DE/DX   Delta X   Delta X   Delta X     New X
                                 (Linear)    (Quad)   (Total)
    R1        2.06016  -0.00022  -0.00553   0.00332  -0.00221   2.05795
    R2        2.05867  -0.00133  -0.00527  -0.00087  -0.00614   2.05253
    R3        2.06014  -0.00022  -0.00554   0.00333  -0.00220   2.05794
    R4        2.81272   0.00348   0.00342   0.00956   0.01298   2.82569
    R5        2.23694  -0.00405  -0.00208  -0.00288  -0.00496   2.23198
    R6        3.43532   0.00252   0.00824   0.00531   0.01355   3.44887
    A1        1.91222   0.00188   0.00684   0.00921   0.01591   1.92813
    A2        1.86658   0.00081   0.00348   0.00307   0.00637   1.87294
    A3        1.92156  -0.00089  -0.00615  -0.00211  -0.00842   1.91315
    A4        1.91230   0.00188   0.00684   0.00919   0.01590   1.92820
    A5        1.92852  -0.00264  -0.00406  -0.01646  -0.02066   1.90786
    A6        1.92165  -0.00089  -0.00614  -0.00205  -0.00835   1.91330
    A7        2.23289   0.00049  -0.00784   0.00827   0.00042   2.23331
    A8        1.95478  -0.00042   0.00522  -0.00595  -0.00073   1.95405
    A9        2.09552  -0.00007   0.00262  -0.00232   0.00030   2.09582
    D1        2.11390   0.00005   0.00174   0.00019   0.00192   2.11582
    D2       -1.02740   0.00003   0.00181  -0.00136   0.00043  -1.02697
    D3       -0.00071   0.00001  -0.00001   0.00082   0.00081   0.00009
    D4        3.14117  -0.00001   0.00005  -0.00073  -0.00068   3.14049
    D5       -2.11549  -0.00003  -0.00177   0.00143  -0.00032  -2.11581
    D6        1.02640  -0.00005  -0.00171  -0.00012  -0.00181   1.02459
         Item               Value     Threshold  Converged?
 Maximum Force            0.004052     0.000450     NO 
 RMS     Force            0.001597     0.000300     NO 
 Maximum Displacement     0.022077     0.001800     NO 
 RMS     Displacement     0.007156     0.001200     NO 
 Predicted change in Energy=-1.226917D-04
 GradGradGradGradGradGradGradGradGradGradGradGradGradGradGradGradGradGrad

                          Input orientation:                          
 ---------------------------------------------------------------------
 Center     Atomic      Atomic             Coordinates (Angstroms)
 Number     Number       Type             X           Y           Z
 ---------------------------------------------------------------------
      1          6           0        1.309588   -1.012203    0.000034
      2          1           0        1.071687   -1.611626    0.877567
      3          1           0        2.361211   -0.740506   -0.000756
      4          1           0        1.070445   -1.612168   -0.876780
      5          6           0        0.477798    0.230386    0.000370
      6          8           0        0.847530    1.352137   -0.000199
      7         17           0       -1.308439   -0.144059   -0.000178
 ---------------------------------------------------------------------
                    Distance matrix (angstroms):
                    1          2          3          4          5
     1  C    0.000000
     2  H    1.089022   0.000000
     3  H    1.086154   1.786945   0.000000
     4  H    1.089013   1.754347   1.786977   0.000000
     5  C    1.495293   2.124896   2.118933   2.125000   0.000000
     6  O    2.409066   3.099130   2.582710   3.099224   1.181113
     7  Cl   2.758213   2.930731   3.717806   2.929653   1.825062
                    6          7
     6  O    0.000000
     7  Cl   2.624272   0.000000
 Stoichiometry    C2H3ClO
 Framework group  C1[X(C2H3ClO)]
 Deg. of freedom    15
 Full point group                 C1      NOp   1
 Largest Abelian subgroup         C1      NOp   1
 Largest concise Abelian subgroup C1      NOp   1
                         Standard orientation:                         
 ---------------------------------------------------------------------
 Center     Atomic      Atomic             Coordinates (Angstroms)
 Number     Number       Type             X           Y           Z
 ---------------------------------------------------------------------
      1          6           0        1.320041   -0.999023    0.000088
      2          1           0        1.084872   -1.599524    0.877621
      3          1           0        2.370415   -0.722540   -0.000702
      4          1           0        1.083633   -1.600072   -0.876725
      5          6           0        0.482600    0.239764    0.000424
      6          8           0        0.847219    1.363188   -0.000145
      7         17           0       -1.301913   -0.142812   -0.000124
 ---------------------------------------------------------------------
 Rotational constants (GHZ):     10.1932740      4.8504306      3.3542014
 Standard basis: Aug-CC-pVTZ (5D, 7F)
 There are   257 symmetry adapted basis functions of A   symmetry.
 Integral buffers will be    262144 words long.
 Raffenetti 2 integral format.
 Two-electron integral symmetry is turned on.
   257 basis functions,   411 primitive gaussians,   299 cartesian basis functions
    20 alpha electrons       20 beta electrons
       nuclear repulsion energy       148.4236916382 Hartrees.
 NAtoms=    7 NActive=    7 NUniq=    7 SFac= 7.50D-01 NAtFMM=   80 NAOKFM=F Big=F
 One-electron integrals computed using PRISM.
 NBasis=   257 RedAO= T  NBF=   257
 NBsUse=   257 1.00D-06 NBFU=   257
 Initial guess read from the read-write file.
 B after Tr=     0.000000    0.000000    0.000000
         Rot=    1.000000    0.000000    0.000000    0.000000 Ang=   0.00 deg.
 Initial guess orbital symmetries:
       Occupied  (A) (A) (A) (A) (A) (A) (A) (A) (A) (A) (A) (A)
                 (A) (A) (A) (A) (A) (A) (A) (A)
       Virtual   (A) (A) (A) (A) (A) (A) (A) (A) (A) (A) (A) (A)
                 (A) (A) (A) (A) (A) (A) (A) (A) (A) (A) (A) (A)
                 (A) (A) (A) (A) (A) (A) (A) (A) (A) (A) (A) (A)
                 (A) (A) (A) (A) (A) (A) (A) (A) (A) (A) (A) (A)
                 (A) (A) (A) (A) (A) (A) (A) (A) (A) (A) (A) (A)
                 (A) (A) (A) (A) (A) (A) (A) (A) (A) (A) (A) (A)
                 (A) (A) (A) (A) (A) (A) (A) (A) (A) (A) (A) (A)
                 (A) (A) (A) (A) (A) (A) (A) (A) (A) (A) (A) (A)
                 (A) (A) (A) (A) (A) (A) (A) (A) (A) (A) (A) (A)
                 (A) (A) (A) (A) (A) (A) (A) (A) (A) (A) (A) (A)
                 (A) (A) (A) (A) (A) (A) (A) (A) (A) (A) (A) (A)
                 (A) (A) (A) (A) (A) (A) (A) (A) (A) (A) (A) (A)
                 (A) (A) (A) (A) (A) (A) (A) (A) (A) (A) (A) (A)
                 (A) (A) (A) (A) (A) (A) (A) (A) (A) (A) (A) (A)
                 (A) (A) (A) (A) (A) (A) (A) (A) (A) (A) (A) (A)
                 (A) (A) (A) (A) (A) (A) (A) (A) (A) (A) (A) (A)
                 (A) (A) (A) (A) (A) (A) (A) (A) (A) (A) (A) (A)
                 (A) (A) (A) (A) (A) (A) (A) (A) (A) (A) (A) (A)
                 (A) (A) (A) (A) (A) (A) (A) (A) (A) (A) (A) (A)
                 (A) (A) (A) (A) (A) (A) (A) (A) (A)
 Harris functional with IExCor=  402 diagonalized for initial guess.
 ExpMin= 2.53D-02 ExpMax= 4.56D+05 ExpMxC= 1.44D+03 IAcc=3 IRadAn=         0 AccDes= 0.00D+00
 HarFok:  IExCor=  402 AccDes= 0.00D+00 IRadAn=         0 IDoV= 1
 ScaDFX=  1.000000  1.000000  1.000000  1.000000
 FoFCou: FMM=F IPFlag=           0 FMFlag=      100000 FMFlg1=           0
         NFxFlg=           0 DoJE=T BraDBF=F KetDBF=T FulRan=T
         Omega=  0.000000  0.000000  1.000000  0.000000  0.000000 ICntrl=     500 IOpCl=  0
         NMat0=    1 NMatS0=    1 NMatT0=    0 NMatD0=    1 NMtDS0=    0 NMtDT0=    0
         I1Cent=           4 NGrid=           0.
 Petite list used in FoFCou.
 Requested convergence on RMS density matrix=1.00D-08 within 128 cycles.
 Requested convergence on MAX density matrix=1.00D-06.
 Requested convergence on             energy=1.00D-06.
 No special actions if energy rises.
 SCF Done:  E(RB3LYP) =  -613.548964764     A.U. after    8 cycles
             Convg  =    0.9720D-08             -V/T =  2.0036
 Calling FoFJK, ICntrl=      2127 FMM=F ISym2X=0 I1Cent= 0 IOpClX= 0 NMat=1 NMatS=1 NMatT=0.
 ***** Axes restored to original set *****
 -------------------------------------------------------------------
 Center     Atomic                   Forces (Hartrees/Bohr)
 Number     Number              X              Y              Z
 -------------------------------------------------------------------
      1        6          -0.000212816   -0.000956051    0.000051637
      2        1          -0.000118188   -0.000068423    0.000263680
      3        1           0.000548604    0.000183003    0.000003244
      4        1          -0.000129523   -0.000049468   -0.000264082
      5        6           0.001545487    0.002093957   -0.000143672
      6        8          -0.000703162   -0.000866737    0.000055948
      7       17          -0.000930402   -0.000336282    0.000033246
 -------------------------------------------------------------------
 Cartesian Forces:  Max     0.002093957 RMS     0.000706974

 GradGradGradGradGradGradGradGradGradGradGradGradGradGradGradGradGradGrad
 Berny optimization.
 Using GEDIIS/GDIIS optimizer.
 Internal  Forces:  Max     0.001042843 RMS     0.000445620
 Search for a local minimum.
 Step number   3 out of a maximum of   31
 All quantities printed in internal units (Hartrees-Bohrs-Radians)
 Mixed Optimization -- En-DIIS/RFO-DIIS
 Update second derivatives using D2CorX and points    1    2    3
 DE= -1.37D-04 DEPred=-1.23D-04 R= 1.12D+00
 SS=  1.41D+00  RLast= 3.93D-02 DXNew= 5.4086D-01 1.1800D-01
 Trust test= 1.12D+00 RLast= 3.93D-02 DXMaxT set to 3.22D-01
 Use linear search instead of GDIIS.
     Eigenvalues ---    0.01036   0.01037   0.07617   0.07711   0.12326
     Eigenvalues ---    0.16001   0.16361   0.23627   0.25011   0.26962
     Eigenvalues ---    0.32720   0.33186   0.33636   0.36541   1.06077
     Eigenvalues --- 1000.000001000.000001000.000001000.000001000.00000
     Eigenvalues --- 1000.00000
 RFO step:  Lambda=-1.14630384D-05 EMin= 1.03642544D-02
 Quartic linear search produced a step of  0.14114.
 Iteration  1 RMS(Cart)=  0.00233893 RMS(Int)=  0.00001134
 Iteration  2 RMS(Cart)=  0.00000936 RMS(Int)=  0.00000735
 Iteration  3 RMS(Cart)=  0.00000000 RMS(Int)=  0.00000735
 Variable       Old X    -DE/DX   Delta X   Delta X   Delta X     New X
                                 (Linear)    (Quad)   (Total)
    R1        2.05795   0.00028  -0.00031   0.00074   0.00043   2.05838
    R2        2.05253   0.00058  -0.00087   0.00214   0.00128   2.05381
    R3        2.05794   0.00027  -0.00031   0.00071   0.00040   2.05834
    R4        2.82569   0.00079   0.00183   0.00156   0.00340   2.82909
    R5        2.23198  -0.00104  -0.00070  -0.00074  -0.00144   2.23054
    R6        3.44887   0.00098   0.00191   0.00347   0.00538   3.45425
    A1        1.92813   0.00007   0.00225  -0.00050   0.00173   1.92986
    A2        1.87294   0.00013   0.00090   0.00052   0.00141   1.87435
    A3        1.91315  -0.00012  -0.00119  -0.00051  -0.00170   1.91144
    A4        1.92820   0.00008   0.00224  -0.00047   0.00176   1.92996
    A5        1.90786   0.00000  -0.00292   0.00170  -0.00123   1.90663
    A6        1.91330  -0.00016  -0.00118  -0.00079  -0.00198   1.91132
    A7        2.23331   0.00074   0.00006   0.00273   0.00278   2.23609
    A8        1.95405  -0.00061  -0.00010  -0.00227  -0.00238   1.95167
    A9        2.09582  -0.00014   0.00004  -0.00045  -0.00041   2.09541
    D1        2.11582  -0.00003   0.00027  -0.00351  -0.00323   2.11259
    D2       -1.02697   0.00004   0.00006   0.00404   0.00411  -1.02287
    D3        0.00009  -0.00004   0.00011  -0.00364  -0.00352  -0.00343
    D4        3.14049   0.00003  -0.00010   0.00391   0.00382  -3.13888
    D5       -2.11581  -0.00003  -0.00005  -0.00364  -0.00369  -2.11949
    D6        1.02459   0.00003  -0.00026   0.00391   0.00366   1.02824
         Item               Value     Threshold  Converged?
 Maximum Force            0.001043     0.000450     NO 
 RMS     Force            0.000446     0.000300     NO 
 Maximum Displacement     0.004509     0.001800     NO 
 RMS     Displacement     0.002341     0.001200     NO 
 Predicted change in Energy=-7.866511D-06
 GradGradGradGradGradGradGradGradGradGradGradGradGradGradGradGradGradGrad

                          Input orientation:                          
 ---------------------------------------------------------------------
 Center     Atomic      Atomic             Coordinates (Angstroms)
 Number     Number       Type             X           Y           Z
 ---------------------------------------------------------------------
      1          6           0        1.310597   -1.013266   -0.000320
      2          1           0        1.069301   -1.610802    0.877852
      3          1           0        2.362844   -0.741281    0.000170
      4          1           0        1.070402   -1.612285   -0.877756
      5          6           0        0.479200    0.231746   -0.002007
      6          8           0        0.846822    1.353387    0.000434
      7         17           0       -1.309346   -0.145538    0.001686
 ---------------------------------------------------------------------
                    Distance matrix (angstroms):
                    1          2          3          4          5
     1  C    0.000000
     2  H    1.089248   0.000000
     3  H    1.086830   1.788756   0.000000
     4  H    1.089225   1.755609   1.788800   0.000000
     5  C    1.497090   2.125407   2.120118   2.125301   0.000000
     6  O    2.411666   3.099319   2.585721   3.101035   1.180353
     7  Cl   2.759901   2.927904   3.720200   2.930523   1.827909
                    6          7
     6  O    0.000000
     7  Cl   2.625993   0.000000
 Stoichiometry    C2H3ClO
 Framework group  C1[X(C2H3ClO)]
 Deg. of freedom    15
 Full point group                 C1      NOp   1
 Largest Abelian subgroup         C1      NOp   1
 Largest concise Abelian subgroup C1      NOp   1
                         Standard orientation:                         
 ---------------------------------------------------------------------
 Center     Atomic      Atomic             Coordinates (Angstroms)
 Number     Number       Type             X           Y           Z
 ---------------------------------------------------------------------
      1          6           0        1.320177   -1.001146    0.000325
      2          1           0        1.080252   -1.599499    0.878317
      3          1           0        2.371466   -0.725487    0.001666
      4          1           0        1.082793   -1.601024   -0.877289
      5          6           0        0.484437    0.240953   -0.002079
      6          8           0        0.848137    1.363872    0.000630
      7         17           0       -1.302782   -0.142577    0.000164
 ---------------------------------------------------------------------
 Rotational constants (GHZ):     10.1738109      4.8446063      3.3494101
 Standard basis: Aug-CC-pVTZ (5D, 7F)
 There are   257 symmetry adapted basis functions of A   symmetry.
 Integral buffers will be    262144 words long.
 Raffenetti 2 integral format.
 Two-electron integral symmetry is turned on.
   257 basis functions,   411 primitive gaussians,   299 cartesian basis functions
    20 alpha electrons       20 beta electrons
       nuclear repulsion energy       148.3273698275 Hartrees.
 NAtoms=    7 NActive=    7 NUniq=    7 SFac= 7.50D-01 NAtFMM=   80 NAOKFM=F Big=F
 One-electron integrals computed using PRISM.
 NBasis=   257 RedAO= T  NBF=   257
 NBsUse=   257 1.00D-06 NBFU=   257
 Initial guess read from the read-write file.
 B after Tr=     0.000000    0.000000    0.000000
         Rot=    1.000000    0.000000    0.000000    0.000000 Ang=   0.00 deg.
 Initial guess orbital symmetries:
       Occupied  (A) (A) (A) (A) (A) (A) (A) (A) (A) (A) (A) (A)
                 (A) (A) (A) (A) (A) (A) (A) (A)
       Virtual   (A) (A) (A) (A) (A) (A) (A) (A) (A) (A) (A) (A)
                 (A) (A) (A) (A) (A) (A) (A) (A) (A) (A) (A) (A)
                 (A) (A) (A) (A) (A) (A) (A) (A) (A) (A) (A) (A)
                 (A) (A) (A) (A) (A) (A) (A) (A) (A) (A) (A) (A)
                 (A) (A) (A) (A) (A) (A) (A) (A) (A) (A) (A) (A)
                 (A) (A) (A) (A) (A) (A) (A) (A) (A) (A) (A) (A)
                 (A) (A) (A) (A) (A) (A) (A) (A) (A) (A) (A) (A)
                 (A) (A) (A) (A) (A) (A) (A) (A) (A) (A) (A) (A)
                 (A) (A) (A) (A) (A) (A) (A) (A) (A) (A) (A) (A)
                 (A) (A) (A) (A) (A) (A) (A) (A) (A) (A) (A) (A)
                 (A) (A) (A) (A) (A) (A) (A) (A) (A) (A) (A) (A)
                 (A) (A) (A) (A) (A) (A) (A) (A) (A) (A) (A) (A)
                 (A) (A) (A) (A) (A) (A) (A) (A) (A) (A) (A) (A)
                 (A) (A) (A) (A) (A) (A) (A) (A) (A) (A) (A) (A)
                 (A) (A) (A) (A) (A) (A) (A) (A) (A) (A) (A) (A)
                 (A) (A) (A) (A) (A) (A) (A) (A) (A) (A) (A) (A)
                 (A) (A) (A) (A) (A) (A) (A) (A) (A) (A) (A) (A)
                 (A) (A) (A) (A) (A) (A) (A) (A) (A) (A) (A) (A)
                 (A) (A) (A) (A) (A) (A) (A) (A) (A) (A) (A) (A)
                 (A) (A) (A) (A) (A) (A) (A) (A) (A)
 Requested convergence on RMS density matrix=1.00D-08 within 128 cycles.
 Requested convergence on MAX density matrix=1.00D-06.
 Requested convergence on             energy=1.00D-06.
 No special actions if energy rises.
 SCF Done:  E(RB3LYP) =  -613.548972957     A.U. after    8 cycles
             Convg  =    0.5393D-08             -V/T =  2.0036
 Calling FoFJK, ICntrl=      2127 FMM=F ISym2X=0 I1Cent= 0 IOpClX= 0 NMat=1 NMatS=1 NMatT=0.
 ***** Axes restored to original set *****
 -------------------------------------------------------------------
 Center     Atomic                   Forces (Hartrees/Bohr)
 Number     Number              X              Y              Z
 -------------------------------------------------------------------
      1        6          -0.000492751    0.000116421   -0.000238324
      2        1           0.000016558    0.000015422    0.000071912
      3        1           0.000150702   -0.000089069   -0.000017111
      4        1           0.000072823   -0.000073327   -0.000079617
      5        6           0.001026976    0.000525288    0.000697491
      6        8          -0.000330153   -0.000308301   -0.000275926
      7       17          -0.000444155   -0.000186434   -0.000158425
 -------------------------------------------------------------------
 Cartesian Forces:  Max     0.001026976 RMS     0.000359974

 GradGradGradGradGradGradGradGradGradGradGradGradGradGradGradGradGradGrad
 Berny optimization.
 Using GEDIIS/GDIIS optimizer.
 Internal  Forces:  Max     0.000471884 RMS     0.000213802
 Search for a local minimum.
 Step number   4 out of a maximum of   31
 All quantities printed in internal units (Hartrees-Bohrs-Radians)
 Mixed Optimization -- En-DIIS/RFO-DIIS
 Swaping is turned off.
 Update second derivatives using D2CorX and points    1    2    3    4
 DE= -8.19D-06 DEPred=-7.87D-06 R= 1.04D+00
 SS=  1.41D+00  RLast= 1.25D-02 DXNew= 5.4086D-01 3.7443D-02
 Trust test= 1.04D+00 RLast= 1.25D-02 DXMaxT set to 3.22D-01
     Eigenvalues ---    0.01036   0.01540   0.07622   0.07763   0.09972
     Eigenvalues ---    0.16190   0.16621   0.18549   0.25023   0.26238
     Eigenvalues ---    0.33087   0.33183   0.33761   0.36350   1.02620
     Eigenvalues --- 1000.000001000.000001000.000001000.000001000.00000
     Eigenvalues --- 1000.00000
 En-DIIS/RFO-DIIS IScMMF=        0 using points:     4    3
 RFO step:  Lambda=-3.55892213D-06.
 DIIS coeffs:      1.04953     -0.04953
 Iteration  1 RMS(Cart)=  0.00582587 RMS(Int)=  0.00006254
 Iteration  2 RMS(Cart)=  0.00006070 RMS(Int)=  0.00003279
 Iteration  3 RMS(Cart)=  0.00000000 RMS(Int)=  0.00003279
 Variable       Old X    -DE/DX   Delta X   Delta X   Delta X     New X
                                  (DIIS)     (GDIIS)  (Total)
    R1        2.05838   0.00005   0.00002   0.00029   0.00031   2.05869
    R2        2.05381   0.00012   0.00006   0.00129   0.00135   2.05516
    R3        2.05834   0.00009   0.00002   0.00040   0.00042   2.05875
    R4        2.82909  -0.00011   0.00017   0.00424   0.00441   2.83350
    R5        2.23054  -0.00040  -0.00007  -0.00231  -0.00238   2.22816
    R6        3.45425   0.00047   0.00027   0.00887   0.00914   3.46339
    A1        1.92986  -0.00007   0.00009   0.00241   0.00250   1.93236
    A2        1.87435   0.00001   0.00007   0.00219   0.00225   1.87661
    A3        1.91144  -0.00007  -0.00008  -0.00307  -0.00316   1.90828
    A4        1.92996  -0.00013   0.00009   0.00224   0.00233   1.93229
    A5        1.90663   0.00016  -0.00006  -0.00162  -0.00168   1.90495
    A6        1.91132   0.00010  -0.00010  -0.00219  -0.00229   1.90902
    A7        2.23609   0.00042   0.00014   0.00463   0.00468   2.24077
    A8        1.95167  -0.00036  -0.00012  -0.00396  -0.00416   1.94751
    A9        2.09541  -0.00006  -0.00002  -0.00054  -0.00065   2.09476
    D1        2.11259   0.00014  -0.00016   0.01244   0.01228   2.12486
    D2       -1.02287  -0.00019   0.00020  -0.01270  -0.01250  -1.03537
    D3       -0.00343   0.00017  -0.00017   0.01240   0.01222   0.00879
    D4       -3.13888  -0.00016   0.00019  -0.01275  -0.01256   3.13175
    D5       -2.11949   0.00017  -0.00018   0.01201   0.01183  -2.10766
    D6        1.02824  -0.00016   0.00018  -0.01313  -0.01295   1.01529
         Item               Value     Threshold  Converged?
 Maximum Force            0.000472     0.000450     NO 
 RMS     Force            0.000214     0.000300     YES
 Maximum Displacement     0.015091     0.001800     NO 
 RMS     Displacement     0.005844     0.001200     NO 
 Predicted change in Energy=-1.006792D-05
 GradGradGradGradGradGradGradGradGradGradGradGradGradGradGradGradGradGrad

                          Input orientation:                          
 ---------------------------------------------------------------------
 Center     Atomic      Atomic             Coordinates (Angstroms)
 Number     Number       Type             X           Y           Z
 ---------------------------------------------------------------------
      1          6           0        1.312013   -1.014701    0.000883
      2          1           0        1.071210   -1.611608    0.879825
      3          1           0        2.365017   -0.742810   -0.002804
      4          1           0        1.064632   -1.609741   -0.877536
      5          6           0        0.481754    0.233862    0.005979
      6          8           0        0.845862    1.355300   -0.001885
      7         17           0       -1.310667   -0.148339   -0.004404
 ---------------------------------------------------------------------
                    Distance matrix (angstroms):
                    1          2          3          4          5
     1  C    0.000000
     2  H    1.089414   0.000000
     3  H    1.087546   1.791027   0.000000
     4  H    1.089445   1.757374   1.791013   0.000000
     5  C    1.499422   2.125283   2.121473   2.125846   0.000000
     6  O    2.415411   3.103343   2.590347   3.099370   1.179093
     7  Cl   2.762076   2.931955   3.723447   2.922346   1.832746
                    6          7
     6  O    0.000000
     7  Cl   2.628984   0.000000
 Stoichiometry    C2H3ClO
 Framework group  C1[X(C2H3ClO)]
 Deg. of freedom    15
 Full point group                 C1      NOp   1
 Largest Abelian subgroup         C1      NOp   1
 Largest concise Abelian subgroup C1      NOp   1
                         Standard orientation:                         
 ---------------------------------------------------------------------
 Center     Atomic      Atomic             Coordinates (Angstroms)
 Number     Number       Type             X           Y           Z
 ---------------------------------------------------------------------
      1          6           0       -1.319562   -1.004817    0.001030
      2          1           0       -1.081356   -1.602364   -0.878184
      3          1           0       -2.372211   -0.731591    0.006817
      4          1           0       -1.071097   -1.599835    0.879158
      5          6           0       -0.487736    0.242691   -0.006282
      6          8           0       -0.850407    1.364592    0.001912
      7         17           0        1.304218   -0.141776    0.000496
 ---------------------------------------------------------------------
 Rotational constants (GHZ):     10.1452481      4.8355087      3.3421249
 Standard basis: Aug-CC-pVTZ (5D, 7F)
 There are   257 symmetry adapted basis functions of A   symmetry.
 Integral buffers will be    262144 words long.
 Raffenetti 2 integral format.
 Two-electron integral symmetry is turned on.
   257 basis functions,   411 primitive gaussians,   299 cartesian basis functions
    20 alpha electrons       20 beta electrons
       nuclear repulsion energy       148.1827519423 Hartrees.
 NAtoms=    7 NActive=    7 NUniq=    7 SFac= 7.50D-01 NAtFMM=   80 NAOKFM=F Big=F
 One-electron integrals computed using PRISM.
 NBasis=   257 RedAO= T  NBF=   257
 NBsUse=   257 1.00D-06 NBFU=   257
 Initial guess read from the read-write file.
 B after Tr=     0.000000    0.000000    0.000000
         Rot=    1.000000    0.000000    0.000000    0.000000 Ang=   0.00 deg.
 Initial guess orbital symmetries:
       Occupied  (A) (A) (A) (A) (A) (A) (A) (A) (A) (A) (A) (A)
                 (A) (A) (A) (A) (A) (A) (A) (A)
       Virtual   (A) (A) (A) (A) (A) (A) (A) (A) (A) (A) (A) (A)
                 (A) (A) (A) (A) (A) (A) (A) (A) (A) (A) (A) (A)
                 (A) (A) (A) (A) (A) (A) (A) (A) (A) (A) (A) (A)
                 (A) (A) (A) (A) (A) (A) (A) (A) (A) (A) (A) (A)
                 (A) (A) (A) (A) (A) (A) (A) (A) (A) (A) (A) (A)
                 (A) (A) (A) (A) (A) (A) (A) (A) (A) (A) (A) (A)
                 (A) (A) (A) (A) (A) (A) (A) (A) (A) (A) (A) (A)
                 (A) (A) (A) (A) (A) (A) (A) (A) (A) (A) (A) (A)
                 (A) (A) (A) (A) (A) (A) (A) (A) (A) (A) (A) (A)
                 (A) (A) (A) (A) (A) (A) (A) (A) (A) (A) (A) (A)
                 (A) (A) (A) (A) (A) (A) (A) (A) (A) (A) (A) (A)
                 (A) (A) (A) (A) (A) (A) (A) (A) (A) (A) (A) (A)
                 (A) (A) (A) (A) (A) (A) (A) (A) (A) (A) (A) (A)
                 (A) (A) (A) (A) (A) (A) (A) (A) (A) (A) (A) (A)
                 (A) (A) (A) (A) (A) (A) (A) (A) (A) (A) (A) (A)
                 (A) (A) (A) (A) (A) (A) (A) (A) (A) (A) (A) (A)
                 (A) (A) (A) (A) (A) (A) (A) (A) (A) (A) (A) (A)
                 (A) (A) (A) (A) (A) (A) (A) (A) (A) (A) (A) (A)
                 (A) (A) (A) (A) (A) (A) (A) (A) (A) (A) (A) (A)
                 (A) (A) (A) (A) (A) (A) (A) (A) (A)
 Requested convergence on RMS density matrix=1.00D-08 within 128 cycles.
 Requested convergence on MAX density matrix=1.00D-06.
 Requested convergence on             energy=1.00D-06.
 No special actions if energy rises.
 SCF Done:  E(RB3LYP) =  -613.548955971     A.U. after   12 cycles
             Convg  =    0.5902D-08             -V/T =  2.0036
 Calling FoFJK, ICntrl=      2127 FMM=F ISym2X=0 I1Cent= 0 IOpClX= 0 NMat=1 NMatS=1 NMatT=0.
 ***** Axes restored to original set *****
 -------------------------------------------------------------------
 Center     Atomic                   Forces (Hartrees/Bohr)
 Number     Number              X              Y              Z
 -------------------------------------------------------------------
      1        6          -0.000888911    0.001633254    0.000736465
      2        1           0.000345663   -0.000179392   -0.000137490
      3        1          -0.000246020   -0.000431269    0.000053778
      4        1           0.000177541    0.000095537    0.000154092
      5        6           0.000007294   -0.001871144   -0.002126334
      6        8           0.000270189    0.000666567    0.000831197
      7       17           0.000334244    0.000086446    0.000488292
 -------------------------------------------------------------------
 Cartesian Forces:  Max     0.002126334 RMS     0.000818616

 GradGradGradGradGradGradGradGradGradGradGradGradGradGradGradGradGradGrad
 Berny optimization.
 Using GEDIIS/GDIIS optimizer.
 Internal  Forces:  Max     0.001271882 RMS     0.000471310
 Search for a local minimum.
 Step number   5 out of a maximum of   31
 All quantities printed in internal units (Hartrees-Bohrs-Radians)
 Mixed Optimization -- En-DIIS/RFO-DIIS
 Swaping is turned off.
 Update second derivatives using D2CorX and points    1    2    3    4    5
 DE=  1.70D-05 DEPred=-1.01D-05 R=-1.69D+00
 Trust test=-1.69D+00 RLast= 3.33D-02 DXMaxT set to 1.61D-01
     Eigenvalues ---    0.01036   0.03537   0.07243   0.07726   0.08068
     Eigenvalues ---    0.14906   0.16561   0.16978   0.24892   0.25115
     Eigenvalues ---    0.31235   0.33212   0.33862   0.39952   1.01475
     Eigenvalues --- 1000.000001000.000001000.000001000.000001000.00000
     Eigenvalues --- 1000.00000
 En-DIIS/RFO-DIIS IScMMF=        0 using points:     5    4    3
 RFO step:  Lambda=-1.28492903D-05.
 DIIS coeffs:      0.27291      0.69421      0.03288
 Iteration  1 RMS(Cart)=  0.00408031 RMS(Int)=  0.00002389
 Iteration  2 RMS(Cart)=  0.00002644 RMS(Int)=  0.00000618
 Iteration  3 RMS(Cart)=  0.00000000 RMS(Int)=  0.00000618
 Variable       Old X    -DE/DX   Delta X   Delta X   Delta X     New X
                                  (DIIS)     (GDIIS)  (Total)
    R1        2.05869  -0.00009  -0.00024   0.00031   0.00007   2.05877
    R2        2.05516  -0.00035  -0.00103   0.00043  -0.00059   2.05457
    R3        2.05875  -0.00022  -0.00032   0.00032   0.00000   2.05875
    R4        2.83350  -0.00127  -0.00332  -0.00115  -0.00447   2.82903
    R5        2.22816   0.00071   0.00178  -0.00012   0.00166   2.22982
    R6        3.46339  -0.00035  -0.00682   0.00112  -0.00570   3.45769
    A1        1.93236  -0.00043  -0.00187  -0.00136  -0.00324   1.92912
    A2        1.87661  -0.00019  -0.00169  -0.00017  -0.00186   1.87475
    A3        1.90828   0.00050   0.00235   0.00064   0.00299   1.91127
    A4        1.93229  -0.00025  -0.00175  -0.00137  -0.00312   1.92917
    A5        1.90495   0.00039   0.00126   0.00165   0.00291   1.90785
    A6        1.90902  -0.00002   0.00173   0.00062   0.00235   1.91137
    A7        2.24077  -0.00009  -0.00349   0.00179  -0.00169   2.23908
    A8        1.94751   0.00009   0.00310  -0.00147   0.00165   1.94916
    A9        2.09476   0.00002   0.00048  -0.00031   0.00019   2.09495
    D1        2.12486  -0.00049  -0.00882  -0.00026  -0.00908   2.11578
    D2       -1.03537   0.00052   0.00895  -0.00013   0.00882  -1.02654
    D3        0.00879  -0.00052  -0.00877  -0.00001  -0.00878   0.00001
    D4        3.13175   0.00049   0.00900   0.00012   0.00912   3.14087
    D5       -2.10766  -0.00044  -0.00848   0.00026  -0.00822  -2.11588
    D6        1.01529   0.00057   0.00929   0.00039   0.00968   1.02498
         Item               Value     Threshold  Converged?
 Maximum Force            0.001272     0.000450     NO 
 RMS     Force            0.000471     0.000300     NO 
 Maximum Displacement     0.010912     0.001800     NO 
 RMS     Displacement     0.004077     0.001200     NO 
 Predicted change in Energy=-2.085309D-05
 GradGradGradGradGradGradGradGradGradGradGradGradGradGradGradGradGradGrad

                          Input orientation:                          
 ---------------------------------------------------------------------
 Center     Atomic      Atomic             Coordinates (Angstroms)
 Number     Number       Type             X           Y           Z
 ---------------------------------------------------------------------
      1          6           0        1.310523   -1.013025    0.000019
      2          1           0        1.069672   -1.610757    0.878434
      3          1           0        2.363789   -0.743390   -0.000617
      4          1           0        1.068694   -1.611266   -0.877773
      5          6           0        0.480515    0.232875    0.000204
      6          8           0        0.845905    1.354848   -0.000250
      7         17           0       -1.309278   -0.147323    0.000041
 ---------------------------------------------------------------------
                    Distance matrix (angstroms):
                    1          2          3          4          5
     1  C    0.000000
     2  H    1.089452   0.000000
     3  H    1.087231   1.788796   0.000000
     4  H    1.089445   1.756207   1.788821   0.000000
     5  C    1.497057   2.125411   2.121276   2.125477   0.000000
     6  O    2.413026   3.101124   2.589706   3.101212   1.179972
     7  Cl   2.759130   2.927903   3.721117   2.927189   1.829729
                    6          7
     6  O    0.000000
     7  Cl   2.627038   0.000000
 Stoichiometry    C2H3ClO
 Framework group  C1[X(C2H3ClO)]
 Deg. of freedom    15
 Full point group                 C1      NOp   1
 Largest Abelian subgroup         C1      NOp   1
 Largest concise Abelian subgroup C1      NOp   1
                         Standard orientation:                         
 ---------------------------------------------------------------------
 Center     Atomic      Atomic             Coordinates (Angstroms)
 Number     Number       Type             X           Y           Z
 ---------------------------------------------------------------------
      1          6           0        1.318445   -1.002772    0.000017
      2          1           0        1.078707   -1.600951    0.878432
      3          1           0        2.371206   -0.731176   -0.000619
      4          1           0        1.077729   -1.601462   -0.877774
      5          6           0        0.486119    0.241581    0.000202
      6          8           0        0.849419    1.364232   -0.000252
      7         17           0       -1.302963   -0.141948    0.000039
 ---------------------------------------------------------------------
 Rotational constants (GHZ):     10.1604533      4.8444217      3.3479173
 Standard basis: Aug-CC-pVTZ (5D, 7F)
 There are   257 symmetry adapted basis functions of A   symmetry.
 Integral buffers will be    262144 words long.
 Raffenetti 2 integral format.
 Two-electron integral symmetry is turned on.
   257 basis functions,   411 primitive gaussians,   299 cartesian basis functions
    20 alpha electrons       20 beta electrons
       nuclear repulsion energy       148.2900843851 Hartrees.
 NAtoms=    7 NActive=    7 NUniq=    7 SFac= 7.50D-01 NAtFMM=   80 NAOKFM=F Big=F
 One-electron integrals computed using PRISM.
 NBasis=   257 RedAO= T  NBF=   257
 NBsUse=   257 1.00D-06 NBFU=   257
 Initial guess read from the read-write file.
 B after Tr=     0.000000    0.000000    0.000000
         Rot=    1.000000    0.000000    0.000000    0.000000 Ang=   0.00 deg.
 Initial guess orbital symmetries:
       Occupied  (A) (A) (A) (A) (A) (A) (A) (A) (A) (A) (A) (A)
                 (A) (A) (A) (A) (A) (A) (A) (A)
       Virtual   (A) (A) (A) (A) (A) (A) (A) (A) (A) (A) (A) (A)
                 (A) (A) (A) (A) (A) (A) (A) (A) (A) (A) (A) (A)
                 (A) (A) (A) (A) (A) (A) (A) (A) (A) (A) (A) (A)
                 (A) (A) (A) (A) (A) (A) (A) (A) (A) (A) (A) (A)
                 (A) (A) (A) (A) (A) (A) (A) (A) (A) (A) (A) (A)
                 (A) (A) (A) (A) (A) (A) (A) (A) (A) (A) (A) (A)
                 (A) (A) (A) (A) (A) (A) (A) (A) (A) (A) (A) (A)
                 (A) (A) (A) (A) (A) (A) (A) (A) (A) (A) (A) (A)
                 (A) (A) (A) (A) (A) (A) (A) (A) (A) (A) (A) (A)
                 (A) (A) (A) (A) (A) (A) (A) (A) (A) (A) (A) (A)
                 (A) (A) (A) (A) (A) (A) (A) (A) (A) (A) (A) (A)
                 (A) (A) (A) (A) (A) (A) (A) (A) (A) (A) (A) (A)
                 (A) (A) (A) (A) (A) (A) (A) (A) (A) (A) (A) (A)
                 (A) (A) (A) (A) (A) (A) (A) (A) (A) (A) (A) (A)
                 (A) (A) (A) (A) (A) (A) (A) (A) (A) (A) (A) (A)
                 (A) (A) (A) (A) (A) (A) (A) (A) (A) (A) (A) (A)
                 (A) (A) (A) (A) (A) (A) (A) (A) (A) (A) (A) (A)
                 (A) (A) (A) (A) (A) (A) (A) (A) (A) (A) (A) (A)
                 (A) (A) (A) (A) (A) (A) (A) (A) (A) (A) (A) (A)
                 (A) (A) (A) (A) (A) (A) (A) (A) (A)
 Requested convergence on RMS density matrix=1.00D-08 within 128 cycles.
 Requested convergence on MAX density matrix=1.00D-06.
 Requested convergence on             energy=1.00D-06.
 No special actions if energy rises.
 SCF Done:  E(RB3LYP) =  -613.548977172     A.U. after   12 cycles
             Convg  =    0.5925D-08             -V/T =  2.0036
 Calling FoFJK, ICntrl=      2127 FMM=F ISym2X=0 I1Cent= 0 IOpClX= 0 NMat=1 NMatS=1 NMatT=0.
 ***** Axes restored to original set *****
 -------------------------------------------------------------------
 Center     Atomic                   Forces (Hartrees/Bohr)
 Number     Number              X              Y              Z
 -------------------------------------------------------------------
      1        6          -0.000062471    0.000116327    0.000031654
      2        1           0.000025560    0.000049848   -0.000068852
      3        1          -0.000088760   -0.000043788    0.000002168
      4        1           0.000019450    0.000061484    0.000068252
      5        6           0.000390227    0.000015121   -0.000087607
      6        8          -0.000058936   -0.000147118    0.000033857
      7       17          -0.000225070   -0.000051873    0.000020527
 -------------------------------------------------------------------
 Cartesian Forces:  Max     0.000390227 RMS     0.000116526

 GradGradGradGradGradGradGradGradGradGradGradGradGradGradGradGradGradGrad
 Berny optimization.
 Using GEDIIS/GDIIS optimizer.
 Internal  Forces:  Max     0.000229946 RMS     0.000085399
 Search for a local minimum.
 Step number   6 out of a maximum of   31
 All quantities printed in internal units (Hartrees-Bohrs-Radians)
 Mixed Optimization -- En-DIIS/RFO-DIIS
 Swaping is turned off.
 Update second derivatives using D2CorX and points    1    2    3    4    5
                                                      6
 DE= -2.12D-05 DEPred=-2.09D-05 R= 1.02D+00
 SS=  1.41D+00  RLast= 2.43D-02 DXNew= 2.7043D-01 7.2857D-02
 Trust test= 1.02D+00 RLast= 2.43D-02 DXMaxT set to 1.61D-01
     Eigenvalues ---    0.01036   0.05168   0.07675   0.07705   0.10283
     Eigenvalues ---    0.12735   0.16583   0.16717   0.25032   0.25852
     Eigenvalues ---    0.31482   0.33214   0.33854   0.39830   1.03397
     Eigenvalues --- 1000.000001000.000001000.000001000.000001000.00000
     Eigenvalues --- 1000.00000
 En-DIIS/RFO-DIIS IScMMF=        0 using points:     6    5    4    3
 RFO step:  Lambda=-2.88927290D-07.
 DIIS coeffs:      1.18160     -0.05575     -0.04169     -0.08416
 Iteration  1 RMS(Cart)=  0.00045380 RMS(Int)=  0.00000112
 Iteration  2 RMS(Cart)=  0.00000021 RMS(Int)=  0.00000110
 Variable       Old X    -DE/DX   Delta X   Delta X   Delta X     New X
                                  (DIIS)     (GDIIS)  (Total)
    R1        2.05877  -0.00009   0.00009  -0.00029  -0.00020   2.05857
    R2        2.05457  -0.00010   0.00017  -0.00033  -0.00016   2.05441
    R3        2.05875  -0.00009   0.00009  -0.00028  -0.00020   2.05856
    R4        2.82903  -0.00021   0.00003  -0.00054  -0.00051   2.82852
    R5        2.22982  -0.00016  -0.00012  -0.00018  -0.00030   2.22953
    R6        3.45769   0.00023   0.00057   0.00095   0.00152   3.45921
    A1        1.92912  -0.00001  -0.00013   0.00009  -0.00004   1.92908
    A2        1.87475   0.00001   0.00006   0.00006   0.00013   1.87488
    A3        1.91127   0.00000   0.00000  -0.00013  -0.00013   1.91114
    A4        1.92917  -0.00001  -0.00012   0.00008  -0.00004   1.92913
    A5        1.90785   0.00003   0.00021   0.00003   0.00025   1.90810
    A6        1.91137  -0.00002  -0.00003  -0.00014  -0.00017   1.91120
    A7        2.23908   0.00001   0.00052   0.00004   0.00055   2.23963
    A8        1.94916  -0.00001  -0.00043  -0.00001  -0.00044   1.94872
    A9        2.09495   0.00000  -0.00008  -0.00003  -0.00011   2.09483
    D1        2.11578  -0.00002  -0.00038   0.00004  -0.00033   2.11545
    D2       -1.02654   0.00002   0.00037   0.00014   0.00052  -1.02603
    D3        0.00001  -0.00002  -0.00035  -0.00001  -0.00036  -0.00035
    D4        3.14087   0.00002   0.00040   0.00009   0.00049   3.14136
    D5       -2.11588  -0.00002  -0.00031  -0.00004  -0.00036  -2.11624
    D6        1.02498   0.00002   0.00044   0.00006   0.00049   1.02547
         Item               Value     Threshold  Converged?
 Maximum Force            0.000230     0.000450     YES
 RMS     Force            0.000085     0.000300     YES
 Maximum Displacement     0.000944     0.001800     YES
 RMS     Displacement     0.000454     0.001200     YES
 Predicted change in Energy=-3.173522D-07
 Optimization completed.
    -- Stationary point found.
                           ----------------------------
                           !   Optimized Parameters   !
                           ! (Angstroms and Degrees)  !
 --------------------------                            --------------------------
 ! Name  Definition              Value          Derivative Info.                !
 --------------------------------------------------------------------------------
 ! R1    R(1,2)                  1.0895         -DE/DX =   -0.0001              !
 ! R2    R(1,3)                  1.0872         -DE/DX =   -0.0001              !
 ! R3    R(1,4)                  1.0894         -DE/DX =   -0.0001              !
 ! R4    R(1,5)                  1.4971         -DE/DX =   -0.0002              !
 ! R5    R(5,6)                  1.18           -DE/DX =   -0.0002              !
 ! R6    R(5,7)                  1.8297         -DE/DX =    0.0002              !
 ! A1    A(2,1,3)              110.5306         -DE/DX =    0.0                 !
 ! A2    A(2,1,4)              107.4153         -DE/DX =    0.0                 !
 ! A3    A(2,1,5)              109.5079         -DE/DX =    0.0                 !
 ! A4    A(3,1,4)              110.5334         -DE/DX =    0.0                 !
 ! A5    A(3,1,5)              109.3119         -DE/DX =    0.0                 !
 ! A6    A(4,1,5)              109.5136         -DE/DX =    0.0                 !
 ! A7    A(1,5,6)              128.2901         -DE/DX =    0.0                 !
 ! A8    A(1,5,7)              111.6784         -DE/DX =    0.0                 !
 ! A9    A(6,5,7)              120.0315         -DE/DX =    0.0                 !
 ! D1    D(2,1,5,6)            121.2255         -DE/DX =    0.0                 !
 ! D2    D(2,1,5,7)            -58.8165         -DE/DX =    0.0                 !
 ! D3    D(3,1,5,6)              0.0007         -DE/DX =    0.0                 !
 ! D4    D(3,1,5,7)            179.9587         -DE/DX =    0.0                 !
 ! D5    D(4,1,5,6)           -121.2311         -DE/DX =    0.0                 !
 ! D6    D(4,1,5,7)             58.7269         -DE/DX =    0.0                 !
 --------------------------------------------------------------------------------
 GradGradGradGradGradGradGradGradGradGradGradGradGradGradGradGradGradGrad

                          Input orientation:                          
 ---------------------------------------------------------------------
 Center     Atomic      Atomic             Coordinates (Angstroms)
 Number     Number       Type             X           Y           Z
 ---------------------------------------------------------------------
      1          6           0        1.310523   -1.013025    0.000019
      2          1           0        1.069672   -1.610757    0.878434
      3          1           0        2.363789   -0.743390   -0.000617
      4          1           0        1.068694   -1.611266   -0.877773
      5          6           0        0.480515    0.232875    0.000204
      6          8           0        0.845905    1.354848   -0.000250
      7         17           0       -1.309278   -0.147323    0.000041
 ---------------------------------------------------------------------
                    Distance matrix (angstroms):
                    1          2          3          4          5
     1  C    0.000000
     2  H    1.089452   0.000000
     3  H    1.087231   1.788796   0.000000
     4  H    1.089445   1.756207   1.788821   0.000000
     5  C    1.497057   2.125411   2.121276   2.125477   0.000000
     6  O    2.413026   3.101124   2.589706   3.101212   1.179972
     7  Cl   2.759130   2.927903   3.721117   2.927189   1.829729
                    6          7
     6  O    0.000000
     7  Cl   2.627038   0.000000
 Stoichiometry    C2H3ClO
 Framework group  C1[X(C2H3ClO)]
 Deg. of freedom    15
 Full point group                 C1      NOp   1
[...]
     1   6     0.00   0.00   0.01     0.30   0.03   0.00     0.09   0.20   0.00
     2   1    -0.39  -0.32  -0.32     0.55  -0.06   0.01     0.04   0.23   0.00
     3   1     0.00   0.00   0.53     0.19   0.44   0.00     0.10   0.17   0.00
     4   1     0.39   0.32  -0.32     0.55  -0.06  -0.01     0.04   0.23   0.00
     5   6     0.00   0.00   0.01    -0.02  -0.16   0.00     0.24   0.25   0.00
     6   8     0.00   0.00  -0.05    -0.06  -0.15   0.00     0.67   0.08   0.00
     7  17     0.00   0.00   0.02    -0.11   0.10   0.00    -0.43  -0.21   0.00
                     4                      5                      6
                     A                      A                      A
 Frequencies --   521.2521               595.7950               955.0684
 Red. masses --     2.9514                 4.4514                 2.9021
 Frc consts  --     0.4725                 0.9310                 1.5597
 IR Inten    --     1.8477               129.9700                73.1770
  Atom  AN      X      Y      Z        X      Y      Z        X      Y      Z
     1   6     0.00   0.00   0.01     0.16  -0.25   0.00    -0.03   0.26   0.00
     2   1    -0.37   0.41   0.20    -0.15  -0.14  -0.01    -0.50   0.36  -0.06
     3   1     0.00   0.00   0.39     0.29  -0.75   0.00     0.10  -0.26   0.00
     4   1     0.37  -0.41   0.20    -0.15  -0.14   0.01    -0.50   0.36   0.06
     5   6     0.00   0.00  -0.38     0.33   0.04   0.00     0.21  -0.15   0.00
     6   8     0.00   0.00   0.14    -0.18   0.18   0.00    -0.07  -0.14   0.00
     7  17     0.00   0.00   0.04    -0.09   0.02   0.00    -0.01   0.01   0.00
                     7                      8                      9
                     A                      A                      A
 Frequencies --  1049.5683              1113.2046              1394.0828
 Red. masses --     1.6220                 1.9316                 1.2426
 Frc consts  --     1.0527                 1.4103                 1.4228
 IR Inten    --     2.8425               135.9993                22.2792
  Atom  AN      X      Y      Z        X      Y      Z        X      Y      Z
     1   6     0.00   0.00   0.16    -0.18  -0.03   0.00    -0.08   0.12   0.00
     2   1     0.29  -0.54  -0.15     0.33  -0.04   0.12     0.32  -0.45  -0.27
     3   1     0.00   0.00  -0.37    -0.36   0.73   0.00     0.08  -0.46   0.00
     4   1    -0.29   0.54  -0.15     0.33  -0.04  -0.12     0.32  -0.45   0.27
     5   6     0.00   0.00  -0.17     0.22  -0.05   0.00     0.02  -0.01   0.00
     6   8     0.00   0.00   0.03    -0.04   0.02   0.00     0.00   0.00   0.00
     7  17     0.00   0.00   0.01     0.00   0.00   0.00     0.00   0.00   0.00
                    10                     11                     12
                     A                      A                      A
 Frequencies --  1465.4763              1467.6097              1881.0230
 Red. masses --     1.0489                 1.0443                12.0875
 Frc consts  --     1.3273                 1.3253                25.1985
 IR Inten    --    12.2455                12.4334               336.0845
  Atom  AN      X      Y      Z        X      Y      Z        X      Y      Z
     1   6     0.06   0.00   0.00     0.00   0.00  -0.05     0.02  -0.06   0.00
     2   1    -0.36  -0.35  -0.35     0.48  -0.06   0.06     0.04  -0.16  -0.09
     3   1    -0.09   0.48   0.00     0.00   0.00   0.72    -0.01   0.16   0.00
     4   1    -0.36  -0.35   0.35    -0.48   0.06   0.06     0.04  -0.16   0.09
     5   6     0.01  -0.01   0.00     0.00   0.00  -0.02     0.15   0.77   0.00
     6   8     0.00   0.02   0.00     0.00   0.00   0.00    -0.16  -0.51   0.00
     7  17     0.00   0.00   0.00     0.00   0.00   0.00     0.01   0.00   0.00
                    13                     14                     15
                     A                      A                      A
 Frequencies --  3051.4282              3117.8727              3144.6339
 Red. masses --     1.0331                 1.0999                 1.1058
 Frc consts  --     5.6675                 6.2996                 6.4428
 IR Inten    --     0.4241                 0.1776                 5.4631
  Atom  AN      X      Y      Z        X      Y      Z        X      Y      Z
     1   6    -0.02   0.04   0.00     0.00   0.00   0.09    -0.08  -0.05   0.00
     2   1    -0.13  -0.32   0.49     0.16   0.40  -0.56     0.07   0.20  -0.31
     3   1     0.51   0.14   0.00     0.00   0.00   0.02     0.82   0.21   0.00
     4   1    -0.13  -0.32  -0.49    -0.16  -0.40  -0.56     0.07   0.20   0.31
     5   6     0.00   0.00   0.00     0.00   0.00   0.00     0.00   0.00   0.00
     6   8     0.00   0.00   0.00     0.00   0.00   0.00     0.00   0.00   0.00
     7  17     0.00   0.00   0.00     0.00   0.00   0.00     0.00   0.00   0.00

 -------------------
 - Thermochemistry -
 -------------------
 Temperature   298.150 Kelvin.  Pressure   1.00000 Atm.
 Atom     1 has atomic number  6 and mass  12.00000
 Atom     2 has atomic number  1 and mass   1.00783
 Atom     3 has atomic number  1 and mass   1.00783
 Atom     4 has atomic number  1 and mass   1.00783
 Atom     5 has atomic number  6 and mass  12.00000
 Atom     6 has atomic number  8 and mass  15.99491
 Atom     7 has atomic number 17 and mass  34.96885
 Molecular mass:    77.98724 amu.
 Principal axes and moments of inertia in atomic units:
                           1         2         3
     Eigenvalues --   177.62408 372.54007 539.06386
           X            0.99467  -0.10309   0.00003
           Y            0.10309   0.99467   0.00011
           Z           -0.00004  -0.00011   1.00000
 This molecule is an asymmetric top.
 Rotational symmetry number  1.
 Rotational temperatures (Kelvin)      0.48762     0.23250     0.16067
 Rotational constants (GHZ):          10.16045     4.84442     3.34792
 Zero-point vibrational energy     123588.0 (Joules/Mol)
                                   29.53823 (Kcal/Mol)
 Warning -- explicit consideration of   5 degrees of freedom as
           vibrations may cause significant error
 Vibrational temperatures:    197.00   491.63   613.87   749.96   857.21
          (Kelvin)           1374.13  1510.09  1601.65  2005.77  2108.49
                             2111.56  2706.37  4390.32  4485.92  4524.42
 
 Zero-point correction=                           0.047072 (Hartree/Particle)
 Thermal correction to Energy=                    0.051715
 Thermal correction to Enthalpy=                  0.052659
 Thermal correction to Gibbs Free Energy=         0.019239
 Sum of electronic and zero-point Energies=           -613.501905
 Sum of electronic and thermal Energies=              -613.497262
 Sum of electronic and thermal Enthalpies=            -613.496318
 Sum of electronic and thermal Free Energies=         -613.529738
 
                     E (Thermal)             CV                S
                      KCal/Mol        Cal/Mol-Kelvin    Cal/Mol-Kelvin
 Total                   32.452             14.446             70.338
 Electronic               0.000              0.000              0.000
 Translational            0.889              2.981             38.977
 Rotational               0.889              2.981             25.082
 Vibrational             30.674              8.484              6.280
 Vibration     1          0.614              1.916              2.846
 Vibration     2          0.721              1.592              1.204
 Vibration     3          0.788              1.412              0.870
 Vibration     4          0.876              1.203              0.607
 Vibration     5          0.954              1.041              0.457
                       Q            Log10(Q)             Ln(Q)
 Total Bot       0.141474D-08         -8.849324        -20.376322
 Total V=0       0.634345D+13         12.802326         29.478444
 Vib (Bot)       0.773003D-21        -21.111819        -48.611759
 Vib (Bot)    1  0.148628D+01          0.172100          0.396276
 Vib (Bot)    2  0.542837D+00         -0.265331         -0.610947
 Vib (Bot)    3  0.409438D+00         -0.387812         -0.892971
 Vib (Bot)    4  0.309310D+00         -0.509606         -1.173411
 Vib (Bot)    5  0.251706D+00         -0.599106         -1.379493
 Vib (V=0)       0.346602D+01          0.539831          1.243007
 Vib (V=0)    1  0.206813D+01          0.315577          0.726644
 Vib (V=0)    2  0.123802D+01          0.092727          0.213512
 Vib (V=0)    3  0.114625D+01          0.059279          0.136496
 Vib (V=0)    4  0.108794D+01          0.036605          0.084285
 Vib (V=0)    5  0.105978D+01          0.025217          0.058063
 Electronic      0.100000D+01          0.000000          0.000000
 Translational   0.270701D+08          7.432491         17.113942
 Rotational      0.676089D+05          4.830004         11.121495
 ***** Axes restored to original set *****
 -------------------------------------------------------------------
 Center     Atomic                   Forces (Hartrees/Bohr)
 Number     Number              X              Y              Z
 -------------------------------------------------------------------
      1        6          -0.000062378    0.000116455    0.000031658
      2        1           0.000025540    0.000049799   -0.000068791
      3        1          -0.000088832   -0.000043805    0.000002168
      4        1           0.000019429    0.000061436    0.000068191
      5        6           0.000390252    0.000015173   -0.000087607
      6        8          -0.000058962   -0.000147162    0.000033856
      7       17          -0.000225049   -0.000051897    0.000020525
 -------------------------------------------------------------------
 Cartesian Forces:  Max     0.000390252 RMS     0.000116533

 GradGradGradGradGradGradGradGradGradGradGradGradGradGradGradGradGradGrad
 Berny optimization.
 Internal  Forces:  Max     0.000229927 RMS     0.000085400
 Search for a local minimum.
 Step number   1 out of a maximum of    2
 All quantities printed in internal units (Hartrees-Bohrs-Radians)
 Second derivative matrix not updated -- analytic derivatives used.
     Eigenvalues ---    0.00117   0.04991   0.05492   0.05549   0.09715
     Eigenvalues ---    0.12418   0.13923   0.14212   0.21747   0.24212
     Eigenvalues ---    0.30209   0.33881   0.34359   0.34822   0.94530
     Eigenvalues --- 1000.000001000.000001000.000001000.000001000.00000
     Eigenvalues --- 1000.00000
 Angle between quadratic step and forces=  38.34 degrees.
 Linear search not attempted -- first point.
 Iteration  1 RMS(Cart)=  0.00059799 RMS(Int)=  0.00000024
 Iteration  2 RMS(Cart)=  0.00000027 RMS(Int)=  0.00000003
 Variable       Old X    -DE/DX   Delta X   Delta X   Delta X     New X
                                 (Linear)    (Quad)   (Total)
    R1        2.05877  -0.00009   0.00000  -0.00026  -0.00026   2.05850
    R2        2.05457  -0.00010   0.00000  -0.00026  -0.00026   2.05431
    R3        2.05875  -0.00009   0.00000  -0.00025  -0.00025   2.05850
    R4        2.82903  -0.00021   0.00000  -0.00092  -0.00092   2.82811
    R5        2.22982  -0.00016   0.00000  -0.00035  -0.00035   2.22947
    R6        3.45769   0.00023   0.00000   0.00224   0.00224   3.45993
    A1        1.92912  -0.00001   0.00000  -0.00006  -0.00006   1.92906
    A2        1.87475   0.00001   0.00000  -0.00005  -0.00005   1.87470
    A3        1.91127   0.00000   0.00000  -0.00002  -0.00002   1.91126
    A4        1.92917  -0.00001   0.00000  -0.00011  -0.00011   1.92906
    A5        1.90785   0.00003   0.00000   0.00034   0.00034   1.90819
    A6        1.91137  -0.00002   0.00000  -0.00012  -0.00012   1.91126
    A7        2.23908   0.00001   0.00000   0.00070   0.00070   2.23979
    A8        1.94916  -0.00001   0.00000  -0.00043  -0.00043   1.94872
    A9        2.09495   0.00000   0.00000  -0.00027  -0.00027   2.09468
    D1        2.11578  -0.00002   0.00000   0.00013   0.00013   2.11591
    D2       -1.02654   0.00002   0.00000   0.00086   0.00086  -1.02568
    D3        0.00001  -0.00002   0.00000   0.00000   0.00000   0.00001
    D4        3.14087   0.00002   0.00000   0.00073   0.00073  -3.14158
    D5       -2.11588  -0.00002   0.00000   0.00000   0.00000  -2.11588
    D6        1.02498   0.00002   0.00000   0.00073   0.00073   1.02571
         Item               Value     Threshold  Converged?
 Maximum Force            0.000230     0.000450     YES
 RMS     Force            0.000085     0.000300     YES
 Maximum Displacement     0.001186     0.001800     YES
 RMS     Displacement     0.000598     0.001200     YES
 Predicted change in Energy=-4.585296D-07
 Optimization completed.
    -- Stationary point found.
                           ----------------------------
                           !   Optimized Parameters   !
                           ! (Angstroms and Degrees)  !
 --------------------------                            --------------------------
 ! Name  Definition              Value          Derivative Info.                !
 --------------------------------------------------------------------------------
 ! R1    R(1,2)                  1.0895         -DE/DX =   -0.0001              !
 ! R2    R(1,3)                  1.0872         -DE/DX =   -0.0001              !
 ! R3    R(1,4)                  1.0894         -DE/DX =   -0.0001              !
 ! R4    R(1,5)                  1.4971         -DE/DX =   -0.0002              !
 ! R5    R(5,6)                  1.18           -DE/DX =   -0.0002              !
 ! R6    R(5,7)                  1.8297         -DE/DX =    0.0002              !
 ! A1    A(2,1,3)              110.5306         -DE/DX =    0.0                 !
 ! A2    A(2,1,4)              107.4153         -DE/DX =    0.0                 !
 ! A3    A(2,1,5)              109.5079         -DE/DX =    0.0                 !
 ! A4    A(3,1,4)              110.5334         -DE/DX =    0.0                 !
 ! A5    A(3,1,5)              109.3119         -DE/DX =    0.0                 !
 ! A6    A(4,1,5)              109.5136         -DE/DX =    0.0                 !
 ! A7    A(1,5,6)              128.2901         -DE/DX =    0.0                 !
 ! A8    A(1,5,7)              111.6784         -DE/DX =    0.0                 !
 ! A9    A(6,5,7)              120.0315         -DE/DX =    0.0                 !
 ! D1    D(2,1,5,6)            121.2255         -DE/DX =    0.0                 !
 ! D2    D(2,1,5,7)            -58.8165         -DE/DX =    0.0                 !
 ! D3    D(3,1,5,6)              0.0007         -DE/DX =    0.0                 !
 ! D4    D(3,1,5,7)           -180.0413         -DE/DX =    0.0                 !
 ! D5    D(4,1,5,6)           -121.2311         -DE/DX =    0.0                 !
 ! D6    D(4,1,5,7)             58.7269         -DE/DX =    0.0                 !
 --------------------------------------------------------------------------------
 GradGradGradGradGradGradGradGradGradGradGradGradGradGradGradGradGradGrad

 1|1|UNPC-WST-PGHS-014|Freq|RB3LYP|Aug-CC-pVTZ|C2H3Cl1O1|214584429|25-M
 ar-2015|0||#N Geom=AllCheck Guess=TCheck SCRF=Check GenChk RB3LYP/Aug-
 CC-pVTZ Freq||ClAcaug-ccpvtz||0,1|C,1.3105233615,-1.0130251439,0.00001
 86951|H,1.069672277,-1.6107566831,0.8784339304|H,2.3637886095,-0.74339
 00785,-0.0006167542|H,1.0686935626,-1.6112660341,-0.8777725847|C,0.480
 5151303,0.2328746133,0.0002039518|O,0.8459046948,1.3548480659,-0.00025
 02779|Cl,-1.3092776357,-0.1473227395,0.0000407395||Version=IA32W-G09Re
 vA.02|State=1-A|HF=-613.5489772|RMSD=2.593e-009|RMSF=1.165e-004|ZeroPo
 int=0.0470722|Thermal=0.0517149|Dipole=0.6033412,-0.9574039,0.0002012|
 DipoleDeriv=-0.1143039,0.1195604,-0.0000485,0.0818734,-0.2336133,0.000
 0356,0.0000588,-0.000032,0.0508467,0.0440283,0.0114097,0.0518316,0.001
 4158,0.0766326,0.022706,0.0260381,0.0494899,0.0238935,-0.080928,0.0045
 998,0.0000651,-0.0016425,0.0436793,0.0000405,0.0001032,-0.000022,0.100
 4533,0.0438778,0.0113464,-0.0518703,0.0013526,0.0766052,-0.0227546,-0.
 0261064,-0.0495316,0.0239893,2.078543,0.2443306,0.0000352,0.6729801,1.
 3213417,0.0000123,-0.0001989,-0.0001201,0.1718901,-0.806668,-0.2037327
 ,-0.000022,-0.6105207,-1.0723877,-0.0000118,0.0002651,0.0002543,-0.238
 2999,-1.1645492,-0.1875142,0.0000088,-0.1454587,-0.2122577,-0.0000279,
 -0.0001597,-0.0000384,-0.1327729|Polar=56.0028835,2.0121579,45.2634699
 ,0.0010995,0.0009258,33.6318685|PG=C01 [X(C2H3Cl1O1)]|NImag=0||0.55909
 202,0.06383751,0.49866168,-0.00000520,0.00000245,0.53150936,-0.0613062
 9,-0.03137960,0.04931987,0.06067911,-0.03137029,-0.12088458,0.12257359
 ,0.03332837,0.13513249,0.04841269,0.12141764,-0.21752330,-0.05356753,-
 0.13124747,0.23598866,-0.30073984,-0.06487476,0.00015330,-0.00350983,-
 0.00082625,-0.00008910,0.32658710,-0.07031705,-0.06746056,0.00003709,-
 0.01589805,-0.00393479,-0.00234507,0.07076713,0.06922731,0.00015530,0.
 00003417,-0.04890800,0.02490003,0.00459909,0.00186130,-0.00016935,-0.0
 0004256,0.04554636,-0.06142096,-0.03155568,-0.04948799,0.00081882,0.00
 378168,0.00553729,-0.00353734,-0.01590589,-0.02488337,0.06080918,-0.03
 153900,-0.12102561,-0.12260100,0.00379696,0.01116553,0.01489966,-0.000
 83131,-0.00393517,-0.00459411,0.03351116,0.13527932,-0.04857166,-0.121
 45031,-0.21728742,-0.00556449,-0.01492041,-0.02116909,0.00009630,0.002
 36622,0.00189146,0.05375348,0.13127084,0.23572937,-0.12026105,0.056978
 33,0.00001732,0.00583430,-0.00917198,0.00041915,-0.02031533,0.02762437
 ,0.00000108,0.00585127,-0.00919797,-0.00042285,0.33200158,0.06447909,-
 0.14289368,-0.00003749,0.00824403,-0.02040409,-0.00015373,-0.00574014,
 0.00582736,0.00000391,0.00825694,-0.02041678,0.00016315,0.09892993,0.9
 9007956,-0.00000751,-0.00000278,-0.08470611,-0.01871856,0.02451387,0.0
 0137171,0.00001084,-0.00001874,-0.00161064,0.01870976,-0.02449053,0.00
 136263,-0.00007515,-0.00026501,0.18247948,0.01541631,0.01373648,0.0000
 0209,-0.00048559,0.00384178,-0.00026588,0.00379177,-0.00158832,-0.0000
 0157,-0.00048809,0.00384595,0.00026344,-0.14345248,-0.21863184,0.00008
 744,0.16705460,-0.01045327,-0.05068808,0.00002914,0.00199433,-0.002252
 47,-0.00193463,-0.00084709,0.00193530,-0.00000161,0.00199471,-0.002247
 65,0.00193197,-0.17374864,-0.78403180,0.00026784,0.24363813,0.85532357
 ,0.00001446,0.00000652,0.02781985,0.00278408,-0.00375955,-0.00114597,-
 0.00000260,0.00000113,-0.00066169,-0.00278643,0.00375565,-0.00114485,0
 .00006892,0.00028329,-0.06423210,-0.00009520,-0.00029626,0.02543320,-0
 .03078018,-0.00674227,0.00000061,-0.00203052,0.00041668,-0.00044661,-0
 .00227652,0.00531782,-0.00000212,-0.00203287,0.00041421,0.00044579,-0.
 05965829,0.04446198,-0.00000682,-0.04183652,-0.06257818,0.00001677,0.1
 3861491,0.01536302,0.00429082,-0.00000377,-0.00008605,0.00117790,-0.00
 063639,0.00235243,-0.00165945,0.00000111,-0.00008293,0.00118036,0.0006
 3853,0.00858596,-0.02816056,-0.00000465,-0.04484218,-0.01803887,0.0000
 0922,0.01870976,0.04120980,0.00000193,-0.00000769,0.00909562,0.0008466
 0,-0.00175913,0.00061668,0.00000062,0.00000192,0.00188121,-0.00084274,
 0.00175949,0.00061790,-0.00000848,0.00000588,-0.03466497,0.00000969,0.
 00000357,0.01393157,-0.00000761,-0.00000405,0.00852199||0.00006238,-0.
 00011645,-0.00003166,-0.00002554,-0.00004980,0.00006879,0.00008883,0.0
 0004381,-0.00000217,-0.00001943,-0.00006144,-0.00006819,-0.00039025,-0
 .00001517,0.00008761,0.00005896,0.00014716,-0.00003386,0.00022505,0.00
 005190,-0.00002052|||@


 A COMPUTER IS LIKE A HORSE, IT WILL SENSE WEAKNESS.
     -- GREG WETTSTEIN
 Job cpu time:  0 days  0 hours 47 minutes 42.0 seconds.
 File lengths (MBytes):  RWF=     50 Int=      0 D2E=      0 Chk=      5 Scr=      1
 Normal termination of Gaussian 09 at Wed Mar 25 13:56:55 2015.
