 Entering Link 1 = C:\G09W\l1.exe PID=      3824.
  
 Copyright (c) 1988,1990,1992,1993,1995,1998,2003,2009, Gaussian, Inc.
                  All Rights Reserved.
  
 This is part of the Gaussian(R) 09 program.  It is based on
 the Gaussian(R) 03 system (copyright 2003, Gaussian, Inc.),
 the Gaussian(R) 98 system (copyright 1998, Gaussian, Inc.),
 the Gaussian(R) 94 system (copyright 1995, Gaussian, Inc.),
 the Gaussian 92(TM) system (copyright 1992, Gaussian, Inc.),
 the Gaussian 90(TM) system (copyright 1990, Gaussian, Inc.),
 the Gaussian 88(TM) system (copyright 1988, Gaussian, Inc.),
 the Gaussian 86(TM) system (copyright 1986, Carnegie Mellon
 University), and the Gaussian 82(TM) system (copyright 1983,
 Carnegie Mellon University). Gaussian is a federally registered
 trademark of Gaussian, Inc.
  
 This software contains proprietary and confidential information,
 including trade secrets, belonging to Gaussian, Inc.
  
 This software is provided under written license and may be
 used, copied, transmitted, or stored only in accord with that
 written license.
  
 The following legend is applicable only to US Government
 contracts under FAR:
  
                    RESTRICTED RIGHTS LEGEND
  
 Use, reproduction and disclosure by the US Government is
 subject to restrictions as set forth in subparagraphs (a)
 and (c) of the Commercial Computer Software - Restricted
 Rights clause in FAR 52.227-19.
  
 Gaussian, Inc.
 340 Quinnipiac St., Bldg. 40, Wallingford CT 06492
  
  
 ---------------------------------------------------------------
 Warning -- This program may not be used in any manner that
 competes with the business of Gaussian, Inc. or will provide
 assistance to any competitor of Gaussian, Inc.  The licensee
 of this program is prohibited from giving any competitor of
 Gaussian, Inc. access to this program.  By using this program,
 the user acknowledges that Gaussian, Inc. is engaged in the
 business of creating and licensing software in the field of
 computational chemistry and represents and warrants to the
 licensee that it is not a competitor of Gaussian, Inc. and that
 it will not use this program in any manner prohibited above.
 ---------------------------------------------------------------
  

 Cite this work as:
 Gaussian 09, Revision A.02,
 M. J. Frisch, G. W. Trucks, H. B. Schlegel, G. E. Scuseria, 
 M. A. Robb, J. R. Cheeseman, G. Scalmani, V. Barone, B. Mennucci, 
 G. A. Petersson, H. Nakatsuji, M. Caricato, X. Li, H. P. Hratchian, 
 A. F. Izmaylov, J. Bloino, G. Zheng, J. L. Sonnenberg, M. Hada, 
 M. Ehara, K. Toyota, R. Fukuda, J. Hasegawa, M. Ishida, T. Nakajima, 
 Y. Honda, O. Kitao, H. Nakai, T. Vreven, J. A. Montgomery, Jr., 
 J. E. Peralta, F. Ogliaro, M. Bearpark, J. J. Heyd, E. Brothers, 
 K. N. Kudin, V. N. Staroverov, R. Kobayashi, J. Normand, 
 K. Raghavachari, A. Rendell, J. C. Burant, S. S. Iyengar, J. Tomasi, 
 M. Cossi, N. Rega, J. M. Millam, M. Klene, J. E. Knox, J. B. Cross, 
 V. Bakken, C. Adamo, J. Jaramillo, R. Gomperts, R. E. Stratmann, 
 O. Yazyev, A. J. Austin, R. Cammi, C. Pomelli, J. W. Ochterski, 
 R. L. Martin, K. Morokuma, V. G. Zakrzewski, G. A. Voth, 
 P. Salvador, J. J. Dannenberg, S. Dapprich, A. D. Daniels, 
 O. Farkas, J. B. Foresman, J. V. Ortiz, J. Cioslowski, 
 and D. J. Fox, Gaussian, Inc., Wallingford CT, 2009.
 
 ******************************************
 Gaussian 09:  IA32W-G09RevA.02 11-Jun-2009
                25-Feb-2015 
 ******************************************
 %chk=C:\Users\214584429\Dropbox\Ester(COOH)\claclan.chk
 ----------------------------------------------------------
 # opt freq b3lyp/gen geom=connectivity gfinput pseudo=read
 ----------------------------------------------------------
 1/14=-1,18=20,19=15,26=3,38=1,57=2/1,3;
 2/9=110,12=2,17=6,18=5,40=1/2;
 3/5=7,11=2,16=1,17=8,24=10,25=1,30=1,71=1,74=-5/1,2,3;
 4//1;
 5/5=2,38=5/2;
 6/7=2,8=2,9=2,10=2,28=1/1;
 7//1,2,3,16;
 1/14=-1,18=20,19=15/3(2);
 2/9=110/2;
 99//99;
 2/9=110/2;
 3/5=7,6=1,11=2,16=1,17=8,25=1,30=1,71=1,74=-5,82=7/1,2,3;
 4/5=5,16=3/1;
 5/5=2,38=5/2;
 7//1,2,3,16;
 1/14=-1,18=20,19=15/3(-5);
 2/9=110/2;
 6/7=2,8=2,9=2,10=2,19=2,28=1/1;
 99/9=1/99;
 ---------------------
 gen calculation ClAc-C H O=6-31+g(d)/Cl=dgdzvp
 ---------------------
 Symbolic Z-matrix:
 Charge =  0 Multiplicity = 1
 C                     1.28806  -0.99417  -0.00001 
 H                     1.07567  -1.62374   0.88232 
 H                     2.36877  -0.77322  -0.00069 
 H                     1.07462  -1.6245   -0.88156 
 C                     0.47813   0.24402   0. 
 O                     0.81931   1.38314  0. 
 Cl                   -1.27475  -0.14958   0. 
 

 GradGradGradGradGradGradGradGradGradGradGradGradGradGradGradGradGradGrad
 Berny optimization.
 Initialization pass.
                           ----------------------------
                           !    Initial Parameters    !
                           ! (Angstroms and Degrees)  !
 --------------------------                            --------------------------
 ! Name  Definition              Value          Derivative Info.                !
 --------------------------------------------------------------------------------
 ! R1    R(1,2)                  1.1045         estimate D2E/DX2                !
 ! R2    R(1,3)                  1.1031         estimate D2E/DX2                !
 ! R3    R(1,4)                  1.1045         estimate D2E/DX2                !
 ! R4    R(1,5)                  1.4796         estimate D2E/DX2                !
 ! R5    R(5,6)                  1.1891         estimate D2E/DX2                !
 ! R6    R(5,7)                  1.7965         estimate D2E/DX2                !
 ! A1    A(2,1,3)              107.6416         estimate D2E/DX2                !
 ! A2    A(2,1,4)              105.9691         estimate D2E/DX2                !
 ! A3    A(2,1,5)              111.8226         estimate D2E/DX2                !
 ! A4    A(3,1,4)              107.6459         estimate D2E/DX2                !
 ! A5    A(3,1,5)              111.6354         estimate D2E/DX2                !
 ! A6    A(4,1,5)              111.8267         estimate D2E/DX2                !
 ! A7    A(1,5,6)              130.137          estimate D2E/DX2                !
 ! A8    A(1,5,7)              110.5346         estimate D2E/DX2                !
 ! A9    A(6,5,7)              119.3285         estimate D2E/DX2                !
 ! D1    D(2,1,5,6)            120.6281         estimate D2E/DX2                !
 ! D2    D(2,1,5,7)            -59.3725         estimate D2E/DX2                !
 ! D3    D(3,1,5,6)             -0.0375         estimate D2E/DX2                !
 ! D4    D(3,1,5,7)            179.9619         estimate D2E/DX2                !
 ! D5    D(4,1,5,6)           -120.7114         estimate D2E/DX2                !
 ! D6    D(4,1,5,7)             59.288          estimate D2E/DX2                !
 --------------------------------------------------------------------------------
 Trust Radius=3.00D-01 FncErr=1.00D-07 GrdErr=1.00D-06
 Number of steps in this run=  31 maximum allowed number of steps= 100.
 GradGradGradGradGradGradGradGradGradGradGradGradGradGradGradGradGradGrad

                          Input orientation:                          
 ---------------------------------------------------------------------
 Center     Atomic      Atomic             Coordinates (Angstroms)
 Number     Number       Type             X           Y           Z
 ---------------------------------------------------------------------
      1          6           0        1.288062   -0.994165   -0.000010
      2          1           0        1.075666   -1.623738    0.882319
      3          1           0        2.368774   -0.773222   -0.000692
      4          1           0        1.074625   -1.624495   -0.881557
      5          6           0        0.478133    0.244015    0.000000
      6          8           0        0.819307    1.383143   -0.000002
      7         17           0       -1.274747   -0.149576    0.000000
 ---------------------------------------------------------------------
                    Distance matrix (angstroms):
                    1          2          3          4          5
     1  C    0.000000
     2  H    1.104526   0.000000
     3  H    1.103066   1.781913   0.000000
     4  H    1.104534   1.763876   1.781968   0.000000
     5  C    1.479552   2.150357   2.146927   2.150413   0.000000
     6  O    2.423082   3.144128   2.655326   3.144553   1.189122
     7  Cl   2.698392   2.911371   3.696509   2.910683   1.796525
                    6          7
     6  O    0.000000
     7  Cl   2.595051   0.000000
 Stoichiometry    C2H3ClO
 Framework group  C1[X(C2H3ClO)]
 Deg. of freedom    15
 Full point group                 C1      NOp   1
 Largest Abelian subgroup         C1      NOp   1
 Largest concise Abelian subgroup C1      NOp   1
                         Standard orientation:                         
 ---------------------------------------------------------------------
 Center     Atomic      Atomic             Coordinates (Angstroms)
 Number     Number       Type             X           Y           Z
 ---------------------------------------------------------------------
      1          6           0        1.288062   -0.994165   -0.000010
      2          1           0        1.075666   -1.623738    0.882319
      3          1           0        2.368774   -0.773223   -0.000692
      4          1           0        1.074625   -1.624495   -0.881557
      5          6           0        0.478133    0.244015    0.000000
      6          8           0        0.819308    1.383143   -0.000002
      7         17           0       -1.274747   -0.149575    0.000000
 ---------------------------------------------------------------------
 Rotational constants (GHZ):      9.9919059      5.0526701      3.4271023
 General basis read from cards:  (5D, 7F)
 AO basis set in the form of general basis input (Overlap normalization):
      1 0
 S   6 1.00       0.000000000000
      0.3047524880D+04  0.1834737132D-02
      0.4573695180D+03  0.1403732281D-01
      0.1039486850D+03  0.6884262226D-01
      0.2921015530D+02  0.2321844432D+00
      0.9286662960D+01  0.4679413484D+00
      0.3163926960D+01  0.3623119853D+00
 SP   3 1.00       0.000000000000
      0.7868272350D+01 -0.1193324198D+00  0.6899906659D-01
      0.1881288540D+01 -0.1608541517D+00  0.3164239610D+00
      0.5442492580D+00  0.1143456438D+01  0.7443082909D+00
 SP   1 1.00       0.000000000000
      0.1687144782D+00  0.1000000000D+01  0.1000000000D+01
 SP   1 1.00       0.000000000000
      0.4380000000D-01  0.1000000000D+01  0.1000000000D+01
 D   1 1.00       0.000000000000
      0.8000000000D+00  0.1000000000D+01
 ****
      2 0
 S   3 1.00       0.000000000000
      0.1873113696D+02  0.3349460434D-01
      0.2825394365D+01  0.2347269535D+00
      0.6401216923D+00  0.8137573261D+00
 S   1 1.00       0.000000000000
      0.1612777588D+00  0.1000000000D+01
 ****
      3 0
 S   3 1.00       0.000000000000
      0.1873113696D+02  0.3349460434D-01
      0.2825394365D+01  0.2347269535D+00
      0.6401216923D+00  0.8137573261D+00
 S   1 1.00       0.000000000000
      0.1612777588D+00  0.1000000000D+01
 ****
      4 0
 S   3 1.00       0.000000000000
      0.1873113696D+02  0.3349460434D-01
      0.2825394365D+01  0.2347269535D+00
      0.6401216923D+00  0.8137573261D+00
 S   1 1.00       0.000000000000
      0.1612777588D+00  0.1000000000D+01
 ****
      5 0
 S   6 1.00       0.000000000000
      0.3047524880D+04  0.1834737132D-02
      0.4573695180D+03  0.1403732281D-01
      0.1039486850D+03  0.6884262226D-01
      0.2921015530D+02  0.2321844432D+00
      0.9286662960D+01  0.4679413484D+00
      0.3163926960D+01  0.3623119853D+00
 SP   3 1.00       0.000000000000
      0.7868272350D+01 -0.1193324198D+00  0.6899906659D-01
      0.1881288540D+01 -0.1608541517D+00  0.3164239610D+00
      0.5442492580D+00  0.1143456438D+01  0.7443082909D+00
 SP   1 1.00       0.000000000000
      0.1687144782D+00  0.1000000000D+01  0.1000000000D+01
 SP   1 1.00       0.000000000000
      0.4380000000D-01  0.1000000000D+01  0.1000000000D+01
 D   1 1.00       0.000000000000
      0.8000000000D+00  0.1000000000D+01
 ****
      6 0
 S   6 1.00       0.000000000000
      0.5484671660D+04  0.1831074430D-02
      0.8252349460D+03  0.1395017220D-01
      0.1880469580D+03  0.6844507810D-01
      0.5296450000D+02  0.2327143360D+00
      0.1689757040D+02  0.4701928980D+00
      0.5799635340D+01  0.3585208530D+00
 SP   3 1.00       0.000000000000
      0.1553961625D+02 -0.1107775495D+00  0.7087426823D-01
      0.3599933586D+01 -0.1480262627D+00  0.3397528391D+00
      0.1013761750D+01  0.1130767015D+01  0.7271585773D+00
 SP   1 1.00       0.000000000000
      0.2700058226D+00  0.1000000000D+01  0.1000000000D+01
 SP   1 1.00       0.000000000000
      0.8450000000D-01  0.1000000000D+01  0.1000000000D+01
 D   1 1.00       0.000000000000
      0.8000000000D+00  0.1000000000D+01
 ****
      7 0
 S   6 1.00       0.000000000000
      0.2635145800D+05  0.1732429991D-02
      0.3945056700D+04  0.1331093993D-01
      0.8924383500D+03  0.6667482966D-01
      0.2494174300D+03  0.2300505688D+00
      0.7972157200D+02  0.4742306876D+00
      0.2683114500D+02  0.3595239882D+00
 S   3 1.00       0.000000000000
      0.5278530100D+02 -0.9562959024D-01
      0.5615642900D+01  0.5880840315D+00
      0.2105907600D+01  0.4866982312D+00
 S   2 1.00       0.000000000000
      0.3558614900D+01  0.2945274744D+00
      0.4847980700D+00 -0.1122243115D+01
 S   1 1.00       0.000000000000
      0.1733309800D+00  0.1000000000D+01
 P   5 1.00       0.000000000000
      0.2710782100D+03 -0.1092567000D-01
      0.6354720800D+02 -0.7759090999D-01
      0.1973710900D+02 -0.2775158500D+00
      0.6788993700D+01 -0.5031933099D+00
      0.2348030300D+01 -0.3348425899D+00
 P   2 1.00       0.000000000000
      0.1106686400D+01 -0.3596313011D+00
      0.3829680400D+00 -0.7109402424D+00
 P   1 1.00       0.000000000000
      0.1251133000D+00  0.1000000000D+01
 D   1 1.00       0.000000000000
      0.7500000000D+00  0.1000000000D+01
 ****

 ======================================================================================================
                                       Pseudopotential Parameters
 ======================================================================================================
  Center     Atomic      Valence      Angular      Power
  Number     Number     Electrons     Momentum     of R      Exponent        Coefficient   SO-Coeffient
 ======================================================================================================
    1          6
                                   No pseudopotential on this center.
    2          1
                                   No pseudopotential on this center.
    3          1
                                   No pseudopotential on this center.
    4          1
                                   No pseudopotential on this center.
    5          6
                                   No pseudopotential on this center.
    6          8
                                   No pseudopotential on this center.
    7         17
                                   No pseudopotential on this center.
 ======================================================================================================
 There are    78 symmetry adapted basis functions of A   symmetry.
 Integral buffers will be    262144 words long.
 Raffenetti 2 integral format.
 Two-electron integral symmetry is turned on.
    78 basis functions,   150 primitive gaussians,    82 cartesian basis functions
    20 alpha electrons       20 beta electrons
       nuclear repulsion energy       149.3545439844 Hartrees.
 NAtoms=    7 NActive=    7 NUniq=    7 SFac= 7.50D-01 NAtFMM=   80 NAOKFM=F Big=F
 One-electron integrals computed using PRISM.
   1 Symmetry operations used in ECPInt.
 ECPInt:  NShTT=     435 NPrTT=    2508 LenC2=     434 LenP2D=    1988.
 LDataN:  DoStor=T MaxTD1= 4 Len=   56
 NBasis=    78 RedAO= T  NBF=    78
 NBsUse=    78 1.00D-06 NBFU=    78
 Harris functional with IExCor=  402 diagonalized for initial guess.
 ExpMin= 4.38D-02 ExpMax= 2.64D+04 ExpMxC= 3.95D+03 IAcc=2 IRadAn=         0 AccDes= 0.00D+00
 HarFok:  IExCor=  402 AccDes= 0.00D+00 IRadAn=         0 IDoV= 1
 ScaDFX=  1.000000  1.000000  1.000000  1.000000
 FoFCou: FMM=F IPFlag=           0 FMFlag=      100000 FMFlg1=           0
         NFxFlg=           0 DoJE=T BraDBF=F KetDBF=T FulRan=T
         Omega=  0.000000  0.000000  1.000000  0.000000  0.000000 ICntrl=     500 IOpCl=  0
         NMat0=    1 NMatS0=    1 NMatT0=    0 NMatD0=    1 NMtDS0=    0 NMtDT0=    0
         I1Cent=           4 NGrid=           0.
 Petite list used in FoFCou.
 Initial guess orbital symmetries:
       Occupied  (A) (A) (A) (A) (A) (A) (A) (A) (A) (A) (A) (A)
                 (A) (A) (A) (A) (A) (A) (A) (A)
       Virtual   (A) (A) (A) (A) (A) (A) (A) (A) (A) (A) (A) (A)
                 (A) (A) (A) (A) (A) (A) (A) (A) (A) (A) (A) (A)
                 (A) (A) (A) (A) (A) (A) (A) (A) (A) (A) (A) (A)
                 (A) (A) (A) (A) (A) (A) (A) (A) (A) (A) (A) (A)
                 (A) (A) (A) (A) (A) (A) (A) (A) (A) (A)
 The electronic state of the initial guess is 1-A.
 Requested convergence on RMS density matrix=1.00D-08 within 128 cycles.
 Requested convergence on MAX density matrix=1.00D-06.
 Requested convergence on             energy=1.00D-06.
 No special actions if energy rises.
 Keep R1 ints in memory in canonical form, NReq=6787120.
 SCF Done:  E(RB3LYP) =  -613.418602383     A.U. after   12 cycles
             Convg  =    0.3071D-08             -V/T =  2.0055

 **********************************************************************

            Population analysis using the SCF density.

 **********************************************************************

 Orbital symmetries:
       Occupied  (A) (A) (A) (A) (A) (A) (A) (A) (A) (A) (A) (A)
                 (A) (A) (A) (A) (A) (A) (A) (A)
       Virtual   (A) (A) (A) (A) (A) (A) (A) (A) (A) (A) (A) (A)
                 (A) (A) (A) (A) (A) (A) (A) (A) (A) (A) (A) (A)
                 (A) (A) (A) (A) (A) (A) (A) (A) (A) (A) (A) (A)
                 (A) (A) (A) (A) (A) (A) (A) (A) (A) (A) (A) (A)
                 (A) (A) (A) (A) (A) (A) (A) (A) (A) (A)
 The electronic state is 1-A.
 Alpha  occ. eigenvalues -- -101.56791 -19.19680 -10.35226 -10.22581  -9.47239
 Alpha  occ. eigenvalues --   -7.24018  -7.23218  -7.23085  -1.10994  -0.86619
 Alpha  occ. eigenvalues --   -0.77681  -0.57791  -0.50541  -0.48951  -0.48818
 Alpha  occ. eigenvalues --   -0.42747  -0.41071  -0.33444  -0.33147  -0.30920
 Alpha virt. eigenvalues --   -0.05391  -0.00376   0.01415   0.03752   0.04597
 Alpha virt. eigenvalues --    0.05165   0.08136   0.08529   0.08810   0.12442
 Alpha virt. eigenvalues --    0.15868   0.16316   0.22609   0.24363   0.24778
 Alpha virt. eigenvalues --    0.26807   0.28022   0.28490   0.38639   0.40134
 Alpha virt. eigenvalues --    0.45189   0.51381   0.58219   0.59429   0.64092
 Alpha virt. eigenvalues --    0.64394   0.69463   0.76167   0.80931   0.85393
 Alpha virt. eigenvalues --    0.87429   0.87699   0.91954   0.95343   0.99608
 Alpha virt. eigenvalues --    1.05270   1.06130   1.09925   1.20305   1.24447
 Alpha virt. eigenvalues --    1.26762   1.37381   1.37777   1.53576   1.67256
 Alpha virt. eigenvalues --    1.72167   1.79336   1.80420   1.86266   2.01179
 Alpha virt. eigenvalues --    2.07357   2.15804   2.29630   2.38636   2.54939
 Alpha virt. eigenvalues --    2.58144   2.86558   3.09841
          Condensed to atoms (all electrons):
              1          2          3          4          5          6
     1  C    5.619083   0.373838   0.384662   0.373925   0.224274  -0.069141
     2  H    0.373838   0.459864  -0.024040  -0.023591  -0.032990   0.000199
     3  H    0.384662  -0.024040   0.465096  -0.024046  -0.049705   0.000697
     4  H    0.373925  -0.023591  -0.024046   0.459882  -0.033080   0.000214
     5  C    0.224274  -0.032990  -0.049705  -0.033080   4.802504   0.372644
     6  O   -0.069141   0.000199   0.000697   0.000214   0.372644   8.119409
     7  Cl  -0.088921  -0.002973   0.005284  -0.002977   0.287736  -0.125735
              7
     1  C   -0.088921
     2  H   -0.002973
     3  H    0.005284
     4  H   -0.002977
     5  C    0.287736
     6  O   -0.125735
     7  Cl  16.981612
 Mulliken atomic charges:
              1
     1  C   -0.817721
     2  H    0.249693
     3  H    0.242052
     4  H    0.249673
     5  C    0.428616
     6  O   -0.298288
     7  Cl  -0.054026
 Sum of Mulliken atomic charges =   0.00000
 Mulliken charges with hydrogens summed into heavy atoms:
              1
     1  C   -0.076303
     5  C    0.428616
     6  O   -0.298288
     7  Cl  -0.054026
 Sum of Mulliken charges with hydrogens summed into heavy atoms =   0.00000
 Electronic spatial extent (au):  <R**2>=            360.4771
 Charge=              0.0000 electrons
 Dipole moment (field-independent basis, Debye):
    X=              1.4798    Y=             -2.6856    Z=              0.0001  Tot=              3.0663
 Quadrupole moment (field-independent basis, Debye-Ang):
   XX=            -30.2690   YY=            -32.6573   ZZ=            -29.7677
   XY=             -3.0429   XZ=              0.0003   YZ=             -0.0002
 Traceless Quadrupole moment (field-independent basis, Debye-Ang):
   XX=              0.6290   YY=             -1.7593   ZZ=              1.1303
   XY=             -3.0429   XZ=              0.0003   YZ=             -0.0002
 Octapole moment (field-independent basis, Debye-Ang**2):
  XXX=             -0.1389  YYY=             -3.6479  ZZZ=              0.0018  XYY=             -1.2071
  XXY=             -2.7941  XXZ=             -0.0007  XZZ=              0.6180  YZZ=              0.2013
  YYZ=             -0.0004  XYZ=             -0.0010
 Hexadecapole moment (field-independent basis, Debye-Ang**3):
 XXXX=           -254.6046 YYYY=           -160.4739 ZZZZ=            -37.9084 XXXY=              0.9361
 XXXZ=             -0.0042 YYYX=             -2.4833 YYYZ=              0.0021 ZZZX=              0.0029
 ZZZY=             -0.0026 XXYY=            -73.7223 XXZZ=            -52.7323 YYZZ=            -29.7531
 XXYZ=             -0.0013 YYXZ=              0.0018 ZZXY=              0.2896
 N-N= 1.493545439844D+02 E-N=-1.749274036166D+03  KE= 6.100842330258D+02
   1 Symmetry operations used in ECPInt.
 ECPInt:  NShTT=     435 NPrTT=    2508 LenC2=     434 LenP2D=    1988.
 LDataN:  DoStor=T MaxTD1= 5 Len=  102
 Calling FoFJK, ICntrl=      2127 FMM=F ISym2X=0 I1Cent= 0 IOpClX= 0 NMat=1 NMatS=1 NMatT=0.
 ***** Axes restored to original set *****
 -------------------------------------------------------------------
 Center     Atomic                   Forces (Hartrees/Bohr)
 Number     Number              X              Y              Z
 -------------------------------------------------------------------
      1        6           0.022920398   -0.020298432   -0.000009704
      2        1          -0.002414648    0.005692705   -0.003688240
      3        1          -0.006184483    0.003205096    0.000003279
      4        1          -0.002404826    0.005703124    0.003695500
      5        6          -0.006237038    0.003343657   -0.000005964
      6        8           0.007440751    0.003929815    0.000001779
      7       17          -0.013120153   -0.001575964    0.000003350
 -------------------------------------------------------------------
 Cartesian Forces:  Max     0.022920398 RMS     0.008121719

 GradGradGradGradGradGradGradGradGradGradGradGradGradGradGradGradGradGrad
 Berny optimization.
 Internal  Forces:  Max     0.013148306 RMS     0.005850153
 Search for a local minimum.
 Step number   1 out of a maximum of   31
 All quantities printed in internal units (Hartrees-Bohrs-Radians)
 Mixed Optimization -- RFO/linear search
 Second derivative matrix not updated -- first step.
     Eigenvalues ---    0.01036   0.01036   0.07209   0.07279   0.16000
     Eigenvalues ---    0.16000   0.16000   0.25000   0.25000   0.26392
     Eigenvalues ---    0.33186   0.33186   0.33345   0.34621   1.10484
     Eigenvalues --- 1000.000001000.000001000.000001000.000001000.00000
     Eigenvalues --- 1000.00000
 RFO step:  Lambda=-2.73006345D-03 EMin= 1.03643270D-02
 Linear search not attempted -- first point.
 Iteration  1 RMS(Cart)=  0.02581646 RMS(Int)=  0.00046923
 Iteration  2 RMS(Cart)=  0.00041405 RMS(Int)=  0.00018749
 Iteration  3 RMS(Cart)=  0.00000009 RMS(Int)=  0.00018749
 Variable       Old X    -DE/DX   Delta X   Delta X   Delta X     New X
                                 (Linear)    (Quad)   (Total)
    R1        2.08725  -0.00573   0.00000  -0.01712  -0.01712   2.07013
    R2        2.08449  -0.00542   0.00000  -0.01611  -0.01611   2.06838
    R3        2.08727  -0.00574   0.00000  -0.01716  -0.01716   2.07011
    R4        2.79595   0.01129   0.00000   0.03236   0.03236   2.82830
    R5        2.24712   0.00590   0.00000   0.00533   0.00533   2.25244
    R6        3.39494   0.01315   0.00000   0.04931   0.04931   3.44425
    A1        1.87870   0.00483   0.00000   0.03178   0.03156   1.91026
    A2        1.84951   0.00375   0.00000   0.01870   0.01819   1.86770
    A3        1.95167  -0.00428   0.00000  -0.02743  -0.02780   1.92387
    A4        1.87878   0.00483   0.00000   0.03178   0.03156   1.91033
    A5        1.94841  -0.00387   0.00000  -0.02143  -0.02167   1.92674
    A6        1.95174  -0.00427   0.00000  -0.02741  -0.02778   1.92397
    A7        2.27132  -0.01049   0.00000  -0.04151  -0.04151   2.22980
    A8        1.92919   0.00751   0.00000   0.02971   0.02971   1.95890
    A9        2.08267   0.00298   0.00000   0.01181   0.01181   2.09448
    D1        2.10536   0.00050   0.00000   0.00655   0.00643   2.11178
    D2       -1.03625   0.00050   0.00000   0.00690   0.00678  -1.02947
    D3       -0.00065   0.00000   0.00000  -0.00008  -0.00008  -0.00073
    D4        3.14093   0.00000   0.00000   0.00027   0.00027   3.14120
    D5       -2.10681  -0.00050   0.00000  -0.00671  -0.00659  -2.11340
    D6        1.03477  -0.00050   0.00000  -0.00636  -0.00624   1.02853
         Item               Value     Threshold  Converged?
 Maximum Force            0.013148     0.000450     NO 
 RMS     Force            0.005850     0.000300     NO 
 Maximum Displacement     0.075912     0.001800     NO 
 RMS     Displacement     0.025881     0.001200     NO 
 Predicted change in Energy=-1.380364D-03
 GradGradGradGradGradGradGradGradGradGradGradGradGradGradGradGradGradGrad

                          Input orientation:                          
 ---------------------------------------------------------------------
 Center     Atomic      Atomic             Coordinates (Angstroms)
 Number     Number       Type             X           Y           Z
 ---------------------------------------------------------------------
      1          6           0        1.305919   -1.008440   -0.000040
      2          1           0        1.078447   -1.618411    0.881007
      3          1           0        2.369871   -0.751486   -0.000612
      4          1           0        1.077617   -1.619194   -0.880314
      5          6           0        0.469607    0.232775   -0.000121
      6          8           0        0.843277    1.364629   -0.000013
      7         17           0       -1.314918   -0.137911    0.000152
 ---------------------------------------------------------------------
                    Distance matrix (angstroms):
                    1          2          3          4          5
     1  C    0.000000
     2  H    1.095468   0.000000
     3  H    1.094541   1.787899   0.000000
     4  H    1.095456   1.761321   1.787935   0.000000
     5  C    1.496674   2.138682   2.140041   2.138739   0.000000
     6  O    2.417746   3.119299   2.609297   3.119783   1.191941
     7  Cl   2.761632   2.948895   3.735525   2.948499   1.822618
                    6          7
     6  O    0.000000
     7  Cl   2.629721   0.000000
 Stoichiometry    C2H3ClO
 Framework group  C1[X(C2H3ClO)]
 Deg. of freedom    15
 Full point group                 C1      NOp   1
 Largest Abelian subgroup         C1      NOp   1
 Largest concise Abelian subgroup C1      NOp   1
                         Standard orientation:                         
 ---------------------------------------------------------------------
 Center     Atomic      Atomic             Coordinates (Angstroms)
 Number     Number       Type             X           Y           Z
 ---------------------------------------------------------------------
      1          6           0        1.325072   -0.995534   -0.000080
      2          1           0        1.102754   -1.607402    0.880967
      3          1           0        2.386818   -0.729614   -0.000651
      4          1           0        1.101931   -1.608192   -0.880354
      5          6           0        0.478319    0.238582   -0.000161
      6          8           0        0.842427    1.373548   -0.000053
      7         17           0       -1.303016   -0.147145    0.000112
 ---------------------------------------------------------------------
 Rotational constants (GHZ):     10.1008229      4.8378903      3.3387086
 Basis read from rwf:  (5D, 7F)
 Pseudo-potential data read from rwf file.
 There are    78 symmetry adapted basis functions of A   symmetry.
 Integral buffers will be    262144 words long.
 Raffenetti 2 integral format.
 Two-electron integral symmetry is turned on.
    78 basis functions,   150 primitive gaussians,    82 cartesian basis functions
    20 alpha electrons       20 beta electrons
       nuclear repulsion energy       147.9605607872 Hartrees.
 NAtoms=    7 NActive=    7 NUniq=    7 SFac= 7.50D-01 NAtFMM=   80 NAOKFM=F Big=F
 One-electron integrals computed using PRISM.
   1 Symmetry operations used in ECPInt.
 ECPInt:  NShTT=     435 NPrTT=    2508 LenC2=     434 LenP2D=    1983.
 LDataN:  DoStor=T MaxTD1= 4 Len=   56
 NBasis=    78 RedAO= T  NBF=    78
 NBsUse=    78 1.00D-06 NBFU=    78
 Initial guess read from the read-write file.
 B after Tr=     0.000000    0.000000    0.000000
         Rot=    1.000000    0.000000    0.000000    0.000000 Ang=   0.00 deg.
 Initial guess orbital symmetries:
       Occupied  (A) (A) (A) (A) (A) (A) (A) (A) (A) (A) (A) (A)
                 (A) (A) (A) (A) (A) (A) (A) (A)
       Virtual   (A) (A) (A) (A) (A) (A) (A) (A) (A) (A) (A) (A)
                 (A) (A) (A) (A) (A) (A) (A) (A) (A) (A) (A) (A)
                 (A) (A) (A) (A) (A) (A) (A) (A) (A) (A) (A) (A)
                 (A) (A) (A) (A) (A) (A) (A) (A) (A) (A) (A) (A)
                 (A) (A) (A) (A) (A) (A) (A) (A) (A) (A)
 Harris functional with IExCor=  402 diagonalized for initial guess.
 ExpMin= 4.38D-02 ExpMax= 2.64D+04 ExpMxC= 3.95D+03 IAcc=2 IRadAn=         0 AccDes= 0.00D+00
 HarFok:  IExCor=  402 AccDes= 0.00D+00 IRadAn=         0 IDoV= 1
 ScaDFX=  1.000000  1.000000  1.000000  1.000000
 FoFCou: FMM=F IPFlag=           0 FMFlag=      100000 FMFlg1=           0
         NFxFlg=           0 DoJE=T BraDBF=F KetDBF=T FulRan=T
         Omega=  0.000000  0.000000  1.000000  0.000000  0.000000 ICntrl=     500 IOpCl=  0
         NMat0=    1 NMatS0=    1 NMatT0=    0 NMatD0=    1 NMtDS0=    0 NMtDT0=    0
         I1Cent=           4 NGrid=           0.
 Petite list used in FoFCou.
 Requested convergence on RMS density matrix=1.00D-08 within 128 cycles.
 Requested convergence on MAX density matrix=1.00D-06.
 Requested convergence on             energy=1.00D-06.
 No special actions if energy rises.
 Keep R1 ints in memory in canonical form, NReq=6787120.
 SCF Done:  E(RB3LYP) =  -613.420163978     A.U. after   10 cycles
             Convg  =    0.5403D-08             -V/T =  2.0055
   1 Symmetry operations used in ECPInt.
 ECPInt:  NShTT=     435 NPrTT=    2508 LenC2=     434 LenP2D=    1983.
 LDataN:  DoStor=T MaxTD1= 5 Len=  102
 Calling FoFJK, ICntrl=      2127 FMM=F ISym2X=0 I1Cent= 0 IOpClX= 0 NMat=1 NMatS=1 NMatT=0.
 ***** Axes restored to original set *****
 -------------------------------------------------------------------
 Center     Atomic                   Forces (Hartrees/Bohr)
 Number     Number              X              Y              Z
 -------------------------------------------------------------------
      1        6           0.004700046   -0.006123439   -0.000009705
      2        1          -0.001011290    0.000646045    0.000068055
      3        1          -0.001672703    0.001941544   -0.000000505
      4        1          -0.001007706    0.000642167   -0.000069445
      5        6           0.001260477    0.005063729    0.000031552
      6        8          -0.000720122   -0.001822916   -0.000013540
      7       17          -0.001548703   -0.000347130   -0.000006412
 -------------------------------------------------------------------
 Cartesian Forces:  Max     0.006123439 RMS     0.002210623

 GradGradGradGradGradGradGradGradGradGradGradGradGradGradGradGradGradGrad
 Berny optimization.
 Using GEDIIS/GDIIS optimizer.
 Internal  Forces:  Max     0.002962664 RMS     0.001267395
 Search for a local minimum.
 Step number   2 out of a maximum of   31
 All quantities printed in internal units (Hartrees-Bohrs-Radians)
 Mixed Optimization -- RFO/linear search
 Update second derivatives using D2CorX and points    1    2
 DE= -1.56D-03 DEPred=-1.38D-03 R= 1.13D+00
 SS=  1.41D+00  RLast= 1.08D-01 DXNew= 5.0454D-01 3.2319D-01
 Trust test= 1.13D+00 RLast= 1.08D-01 DXMaxT set to 3.23D-01
 Use linear search instead of GDIIS.
     Eigenvalues ---    0.01036   0.01036   0.07457   0.07610   0.13188
     Eigenvalues ---    0.16000   0.16156   0.25000   0.25670   0.26851
     Eigenvalues ---    0.32559   0.33186   0.33534   0.34068   1.11938
     Eigenvalues --- 1000.000001000.000001000.000001000.000001000.00000
     Eigenvalues --- 1000.00000
 RFO step:  Lambda=-1.20939348D-04 EMin= 1.03643212D-02
 Quartic linear search produced a step of  0.18732.
 Iteration  1 RMS(Cart)=  0.00756735 RMS(Int)=  0.00012523
 Iteration  2 RMS(Cart)=  0.00009035 RMS(Int)=  0.00007528
 Iteration  3 RMS(Cart)=  0.00000001 RMS(Int)=  0.00007528
 Variable       Old X    -DE/DX   Delta X   Delta X   Delta X     New X
                                 (Linear)    (Quad)   (Total)
    R1        2.07013  -0.00010  -0.00321   0.00208  -0.00113   2.06901
    R2        2.06838  -0.00117  -0.00302  -0.00189  -0.00490   2.06348
    R3        2.07011  -0.00009  -0.00321   0.00209  -0.00112   2.06899
    R4        2.82830   0.00296   0.00606   0.00558   0.01164   2.83995
    R5        2.25244  -0.00196   0.00100  -0.00287  -0.00187   2.25057
    R6        3.44425   0.00159   0.00924   0.00021   0.00944   3.45369
    A1        1.91026   0.00189   0.00591   0.00966   0.01543   1.92569
    A2        1.86770   0.00092   0.00341   0.00447   0.00774   1.87545
    A3        1.92387  -0.00090  -0.00521  -0.00279  -0.00814   1.91574
    A4        1.91033   0.00189   0.00591   0.00965   0.01542   1.92575
    A5        1.92674  -0.00274  -0.00406  -0.01732  -0.02152   1.90522
    A6        1.92397  -0.00089  -0.00520  -0.00273  -0.00808   1.91589
    A7        2.22980   0.00020  -0.00778   0.00680  -0.00098   2.22883
    A8        1.95890  -0.00015   0.00557  -0.00488   0.00068   1.95958
    A9        2.09448  -0.00005   0.00221  -0.00192   0.00029   2.09477
    D1        2.11178  -0.00001   0.00120  -0.00016   0.00105   2.11283
    D2       -1.02947  -0.00003   0.00127  -0.00188  -0.00061  -1.03008
    D3       -0.00073   0.00001  -0.00001   0.00091   0.00089   0.00016
    D4        3.14120  -0.00001   0.00005  -0.00082  -0.00076   3.14044
    D5       -2.11340   0.00003  -0.00123   0.00196   0.00072  -2.11268
    D6        1.02853   0.00001  -0.00117   0.00023  -0.00094   1.02759
         Item               Value     Threshold  Converged?
 Maximum Force            0.002963     0.000450     NO 
 RMS     Force            0.001267     0.000300     NO 
 Maximum Displacement     0.024802     0.001800     NO 
 RMS     Displacement     0.007586     0.001200     NO 
 Predicted change in Energy=-9.691675D-05
 GradGradGradGradGradGradGradGradGradGradGradGradGradGradGradGradGradGrad

                          Input orientation:                          
 ---------------------------------------------------------------------
 Center     Atomic      Atomic             Coordinates (Angstroms)
 Number     Number       Type             X           Y           Z
 ---------------------------------------------------------------------
      1          6           0        1.310218   -1.016078    0.000042
      2          1           0        1.076203   -1.619571    0.883091
      3          1           0        2.366257   -0.738362   -0.000765
      4          1           0        1.074933   -1.620095   -0.882301
      5          6           0        0.472132    0.231369    0.000409
      6          8           0        0.848109    1.361417   -0.000220
      7         17           0       -1.318032   -0.136717   -0.000199
 ---------------------------------------------------------------------
                    Distance matrix (angstroms):
                    1          2          3          4          5
     1  C    0.000000
     2  H    1.094871   0.000000
     3  H    1.091946   1.794986   0.000000
     4  H    1.094863   1.765393   1.795015   0.000000
     5  C    1.502835   2.137758   2.127931   2.137865   0.000000
     6  O    2.421988   3.117459   2.591109   3.117520   1.190952
     7  Cl   2.771457   2.951511   3.733090   2.950389   1.827615
                    6          7
     6  O    0.000000
     7  Cl   2.633738   0.000000
 Stoichiometry    C2H3ClO
 Framework group  C1[X(C2H3ClO)]
 Deg. of freedom    15
 Full point group                 C1      NOp   1
 Largest Abelian subgroup         C1      NOp   1
 Largest concise Abelian subgroup C1      NOp   1
                         Standard orientation:                         
 ---------------------------------------------------------------------
 Center     Atomic      Atomic             Coordinates (Angstroms)
 Number     Number       Type             X           Y           Z
 ---------------------------------------------------------------------
      1          6           0        1.330205   -1.000286    0.000103
      2          1           0        1.102035   -1.606013    0.883152
      3          1           0        2.383510   -0.712374   -0.000705
      4          1           0        1.100770   -1.606550   -0.882240
      5          6           0        0.480098    0.239000    0.000469
      6          8           0        0.845133    1.372630   -0.000160
      7         17           0       -1.306423   -0.146376   -0.000139
 ---------------------------------------------------------------------
 Rotational constants (GHZ):     10.0890201      4.8130493      3.3258944
 Basis read from rwf:  (5D, 7F)
 Pseudo-potential data read from rwf file.
 There are    78 symmetry adapted basis functions of A   symmetry.
 Integral buffers will be    262144 words long.
 Raffenetti 2 integral format.
 Two-electron integral symmetry is turned on.
    78 basis functions,   150 primitive gaussians,    82 cartesian basis functions
    20 alpha electrons       20 beta electrons
       nuclear repulsion energy       147.7424762732 Hartrees.
 NAtoms=    7 NActive=    7 NUniq=    7 SFac= 7.50D-01 NAtFMM=   80 NAOKFM=F Big=F
 One-electron integrals computed using PRISM.
   1 Symmetry operations used in ECPInt.
 ECPInt:  NShTT=     435 NPrTT=    2508 LenC2=     434 LenP2D=    1982.
 LDataN:  DoStor=T MaxTD1= 4 Len=   56
 NBasis=    78 RedAO= T  NBF=    78
 NBsUse=    78 1.00D-06 NBFU=    78
 Initial guess read from the read-write file.
 B after Tr=     0.000000    0.000000    0.000000
         Rot=    1.000000    0.000000    0.000000    0.000000 Ang=   0.00 deg.
 Initial guess orbital symmetries:
       Occupied  (A) (A) (A) (A) (A) (A) (A) (A) (A) (A) (A) (A)
                 (A) (A) (A) (A) (A) (A) (A) (A)
       Virtual   (A) (A) (A) (A) (A) (A) (A) (A) (A) (A) (A) (A)
                 (A) (A) (A) (A) (A) (A) (A) (A) (A) (A) (A) (A)
                 (A) (A) (A) (A) (A) (A) (A) (A) (A) (A) (A) (A)
                 (A) (A) (A) (A) (A) (A) (A) (A) (A) (A) (A) (A)
                 (A) (A) (A) (A) (A) (A) (A) (A) (A) (A)
 Harris functional with IExCor=  402 diagonalized for initial guess.
 ExpMin= 4.38D-02 ExpMax= 2.64D+04 ExpMxC= 3.95D+03 IAcc=2 IRadAn=         0 AccDes= 0.00D+00
 HarFok:  IExCor=  402 AccDes= 0.00D+00 IRadAn=         0 IDoV= 1
 ScaDFX=  1.000000  1.000000  1.000000  1.000000
 FoFCou: FMM=F IPFlag=           0 FMFlag=      100000 FMFlg1=           0
         NFxFlg=           0 DoJE=T BraDBF=F KetDBF=T FulRan=T
         Omega=  0.000000  0.000000  1.000000  0.000000  0.000000 ICntrl=     500 IOpCl=  0
         NMat0=    1 NMatS0=    1 NMatT0=    0 NMatD0=    1 NMtDS0=    0 NMtDT0=    0
         I1Cent=           4 NGrid=           0.
 Petite list used in FoFCou.
 Requested convergence on RMS density matrix=1.00D-08 within 128 cycles.
 Requested convergence on MAX density matrix=1.00D-06.
 Requested convergence on             energy=1.00D-06.
 No special actions if energy rises.
 Keep R1 ints in memory in canonical form, NReq=6787120.
 SCF Done:  E(RB3LYP) =  -613.420268342     A.U. after   10 cycles
             Convg  =    0.3276D-08             -V/T =  2.0056
   1 Symmetry operations used in ECPInt.
 ECPInt:  NShTT=     435 NPrTT=    2508 LenC2=     434 LenP2D=    1982.
 LDataN:  DoStor=T MaxTD1= 5 Len=  102
 Calling FoFJK, ICntrl=      2127 FMM=F ISym2X=0 I1Cent= 0 IOpClX= 0 NMat=1 NMatS=1 NMatT=0.
 ***** Axes restored to original set *****
 -------------------------------------------------------------------
 Center     Atomic                   Forces (Hartrees/Bohr)
 Number     Number              X              Y              Z
 -------------------------------------------------------------------
      1        6          -0.000128811   -0.000787687    0.000056190
      2        1          -0.000019808    0.000026625    0.000063843
      3        1           0.000331775    0.000047252    0.000003627
      4        1          -0.000031346    0.000047194   -0.000064970
      5        6           0.000821378    0.001910964   -0.000154910
      6        8          -0.000656888   -0.001111654    0.000059812
      7       17          -0.000316300   -0.000132695    0.000036408
 -------------------------------------------------------------------
 Cartesian Forces:  Max     0.001910964 RMS     0.000573436

 GradGradGradGradGradGradGradGradGradGradGradGradGradGradGradGradGradGrad
 Berny optimization.
 Using GEDIIS/GDIIS optimizer.
 Internal  Forces:  Max     0.001262782 RMS     0.000355426
 Search for a local minimum.
 Step number   3 out of a maximum of   31
 All quantities printed in internal units (Hartrees-Bohrs-Radians)
 Mixed Optimization -- En-DIIS/RFO-DIIS
 Update second derivatives using D2CorX and points    1    2    3
 DE= -1.04D-04 DEPred=-9.69D-05 R= 1.08D+00
 SS=  1.41D+00  RLast= 3.73D-02 DXNew= 5.4353D-01 1.1189D-01
 Trust test= 1.08D+00 RLast= 3.73D-02 DXMaxT set to 3.23D-01
 Use linear search instead of GDIIS.
     Eigenvalues ---    0.01036   0.01038   0.07632   0.07705   0.12673
     Eigenvalues ---    0.16001   0.16338   0.24979   0.25003   0.27210
     Eigenvalues ---    0.32040   0.33186   0.33629   0.34056   1.11375
     Eigenvalues --- 1000.000001000.000001000.000001000.000001000.00000
     Eigenvalues --- 1000.00000
 RFO step:  Lambda=-5.82920470D-06 EMin= 1.03642242D-02
 Quartic linear search produced a step of  0.05677.
 Iteration  1 RMS(Cart)=  0.00189253 RMS(Int)=  0.00000678
 Iteration  2 RMS(Cart)=  0.00000589 RMS(Int)=  0.00000400
 Iteration  3 RMS(Cart)=  0.00000000 RMS(Int)=  0.00000400
 Variable       Old X    -DE/DX   Delta X   Delta X   Delta X     New X
                                 (Linear)    (Quad)   (Total)
    R1        2.06901   0.00004  -0.00006   0.00006  -0.00001   2.06900
    R2        2.06348   0.00033  -0.00028   0.00111   0.00083   2.06431
    R3        2.06899   0.00003  -0.00006   0.00003  -0.00003   2.06896
    R4        2.83995   0.00064   0.00066   0.00176   0.00242   2.84236
    R5        2.25057  -0.00126  -0.00011  -0.00110  -0.00121   2.24936
    R6        3.45369   0.00034   0.00054   0.00135   0.00188   3.45557
    A1        1.92569   0.00000   0.00088  -0.00030   0.00057   1.92626
    A2        1.87545   0.00008   0.00044   0.00040   0.00083   1.87628
    A3        1.91574  -0.00006  -0.00046  -0.00033  -0.00079   1.91494
    A4        1.92575   0.00001   0.00088  -0.00026   0.00061   1.92636
    A5        1.90522   0.00008  -0.00122   0.00108  -0.00015   1.90506
    A6        1.91589  -0.00010  -0.00046  -0.00061  -0.00108   1.91482
    A7        2.22883   0.00049  -0.00006   0.00182   0.00176   2.23059
    A8        1.95958  -0.00036   0.00004  -0.00135  -0.00132   1.95826
    A9        2.09477  -0.00013   0.00002  -0.00046  -0.00046   2.09432
    D1        2.11283  -0.00003   0.00006  -0.00352  -0.00345   2.10938
    D2       -1.03008   0.00004  -0.00003   0.00404   0.00400  -1.02607
    D3        0.00016  -0.00004   0.00005  -0.00362  -0.00357  -0.00341
    D4        3.14044   0.00004  -0.00004   0.00393   0.00389  -3.13886
    D5       -2.11268  -0.00003   0.00004  -0.00359  -0.00355  -2.11624
    D6        1.02759   0.00004  -0.00005   0.00396   0.00391   1.03150
         Item               Value     Threshold  Converged?
 Maximum Force            0.001263     0.000450     NO 
 RMS     Force            0.000355     0.000300     NO 
 Maximum Displacement     0.004592     0.001800     NO 
 RMS     Displacement     0.001894     0.001200     NO 
 Predicted change in Energy=-3.217747D-06
 GradGradGradGradGradGradGradGradGradGradGradGradGradGradGradGradGradGrad

                          Input orientation:                          
 ---------------------------------------------------------------------
 Center     Atomic      Atomic             Coordinates (Angstroms)
 Number     Number       Type             X           Y           Z
 ---------------------------------------------------------------------
      1          6           0        1.310757   -1.016690   -0.000321
      2          1           0        1.074477   -1.618877    0.883012
      3          1           0        2.367341   -0.739324    0.000163
      4          1           0        1.075588   -1.620372   -0.882903
      5          6           0        0.472693    0.232312   -0.002021
      6          8           0        0.847138    1.362191    0.000434
      7         17           0       -1.318175   -0.137278    0.001695
 ---------------------------------------------------------------------
                    Distance matrix (angstroms):
                    1          2          3          4          5
     1  C    0.000000
     2  H    1.094867   0.000000
     3  H    1.092384   1.795699   0.000000
     4  H    1.094846   1.765916   1.795738   0.000000
     5  C    1.504114   2.138301   2.129266   2.138194   0.000000
     6  O    2.423637   3.117273   2.593720   3.118998   1.190311
     7  Cl   2.772120   2.949006   3.734366   2.951640   1.828611
                    6          7
     6  O    0.000000
     7  Cl   2.633817   0.000000
 Stoichiometry    C2H3ClO
 Framework group  C1[X(C2H3ClO)]
 Deg. of freedom    15
 Full point group                 C1      NOp   1
 Largest Abelian subgroup         C1      NOp   1
 Largest concise Abelian subgroup C1      NOp   1
                         Standard orientation:                         
 ---------------------------------------------------------------------
 Center     Atomic      Atomic             Coordinates (Angstroms)
 Number     Number       Type             X           Y           Z
 ---------------------------------------------------------------------
      1          6           0        1.330773   -1.000932    0.000327
      2          1           0        1.099565   -1.605340    0.883485
      3          1           0        2.384645   -0.713433    0.001667
      4          1           0        1.102134   -1.606863   -0.882429
      5          6           0        0.480757    0.239966   -0.002096
      6          8           0        0.844333    1.373388    0.000632
      7         17           0       -1.306482   -0.146804    0.000167
 ---------------------------------------------------------------------
 Rotational constants (GHZ):     10.0771132      4.8123929      3.3243295
 Basis read from rwf:  (5D, 7F)
 Pseudo-potential data read from rwf file.
 There are    78 symmetry adapted basis functions of A   symmetry.
 Integral buffers will be    262144 words long.
 Raffenetti 2 integral format.
 Two-electron integral symmetry is turned on.
    78 basis functions,   150 primitive gaussians,    82 cartesian basis functions
    20 alpha electrons       20 beta electrons
       nuclear repulsion energy       147.7097497723 Hartrees.
 NAtoms=    7 NActive=    7 NUniq=    7 SFac= 7.50D-01 NAtFMM=   80 NAOKFM=F Big=F
 One-electron integrals computed using PRISM.
   1 Symmetry operations used in ECPInt.
 ECPInt:  NShTT=     435 NPrTT=    2508 LenC2=     434 LenP2D=    1982.
 LDataN:  DoStor=T MaxTD1= 4 Len=   56
 NBasis=    78 RedAO= T  NBF=    78
 NBsUse=    78 1.00D-06 NBFU=    78
 Initial guess read from the read-write file.
 B after Tr=     0.000000    0.000000    0.000000
         Rot=    1.000000    0.000000    0.000000    0.000000 Ang=   0.00 deg.
 Initial guess orbital symmetries:
       Occupied  (A) (A) (A) (A) (A) (A) (A) (A) (A) (A) (A) (A)
                 (A) (A) (A) (A) (A) (A) (A) (A)
       Virtual   (A) (A) (A) (A) (A) (A) (A) (A) (A) (A) (A) (A)
                 (A) (A) (A) (A) (A) (A) (A) (A) (A) (A) (A) (A)
                 (A) (A) (A) (A) (A) (A) (A) (A) (A) (A) (A) (A)
                 (A) (A) (A) (A) (A) (A) (A) (A) (A) (A) (A) (A)
                 (A) (A) (A) (A) (A) (A) (A) (A) (A) (A)
 Requested convergence on RMS density matrix=1.00D-08 within 128 cycles.
 Requested convergence on MAX density matrix=1.00D-06.
 Requested convergence on             energy=1.00D-06.
 No special actions if energy rises.
 Keep R1 ints in memory in canonical form, NReq=6787120.
 SCF Done:  E(RB3LYP) =  -613.420270526     A.U. after    9 cycles
             Convg  =    0.8606D-08             -V/T =  2.0056
   1 Symmetry operations used in ECPInt.
 ECPInt:  NShTT=     435 NPrTT=    2508 LenC2=     434 LenP2D=    1982.
 LDataN:  DoStor=T MaxTD1= 5 Len=  102
 Calling FoFJK, ICntrl=      2127 FMM=F ISym2X=0 I1Cent= 0 IOpClX= 0 NMat=1 NMatS=1 NMatT=0.
 ***** Axes restored to original set *****
 -------------------------------------------------------------------
 Center     Atomic                   Forces (Hartrees/Bohr)
 Number     Number              X              Y              Z
 -------------------------------------------------------------------
      1        6          -0.000221251   -0.000036496   -0.000236509
      2        1          -0.000002619    0.000055940    0.000023284
      3        1           0.000057169   -0.000053016   -0.000016784
      4        1           0.000049991   -0.000030514   -0.000027929
      5        6           0.000559173    0.000563504    0.000685023
      6        8          -0.000224204   -0.000383808   -0.000268424
      7       17          -0.000218259   -0.000115610   -0.000158661
 -------------------------------------------------------------------
 Cartesian Forces:  Max     0.000685023 RMS     0.000273926

 GradGradGradGradGradGradGradGradGradGradGradGradGradGradGradGradGradGrad
 Berny optimization.
 Using GEDIIS/GDIIS optimizer.
 Internal  Forces:  Max     0.000435915 RMS     0.000160959
 Search for a local minimum.
 Step number   4 out of a maximum of   31
 All quantities printed in internal units (Hartrees-Bohrs-Radians)
 Mixed Optimization -- En-DIIS/RFO-DIIS
 Swaping is turned off.
 Update second derivatives using D2CorX and points    1    2    3    4
 DE= -2.18D-06 DEPred=-3.22D-06 R= 6.79D-01
 SS=  1.41D+00  RLast= 1.02D-02 DXNew= 5.4353D-01 3.0522D-02
 Trust test= 6.79D-01 RLast= 1.02D-02 DXMaxT set to 3.23D-01
     Eigenvalues ---    0.01036   0.02471   0.07632   0.07735   0.10041
     Eigenvalues ---    0.16242   0.16333   0.18666   0.25115   0.26718
     Eigenvalues ---    0.32693   0.33142   0.33564   0.33864   0.98193
     Eigenvalues --- 1000.000001000.000001000.000001000.000001000.00000
     Eigenvalues --- 1000.00000
 En-DIIS/RFO-DIIS IScMMF=        0 using points:     4    3
 RFO step:  Lambda=-1.93937114D-06.
 DIIS coeffs:      0.75737      0.24263
 Iteration  1 RMS(Cart)=  0.00336592 RMS(Int)=  0.00002047
 Iteration  2 RMS(Cart)=  0.00001981 RMS(Int)=  0.00000980
 Iteration  3 RMS(Cart)=  0.00000000 RMS(Int)=  0.00000980
 Variable       Old X    -DE/DX   Delta X   Delta X   Delta X     New X
                                  (DIIS)     (GDIIS)  (Total)
    R1        2.06900  -0.00001   0.00000  -0.00015  -0.00015   2.06885
    R2        2.06431   0.00004  -0.00020   0.00119   0.00099   2.06529
    R3        2.06896   0.00003   0.00001  -0.00010  -0.00009   2.06887
    R4        2.84236  -0.00001  -0.00059   0.00446   0.00387   2.84624
    R5        2.24936  -0.00044   0.00029  -0.00231  -0.00202   2.24734
    R6        3.45557   0.00024  -0.00046   0.00430   0.00384   3.45942
    A1        1.92626  -0.00002  -0.00014   0.00146   0.00132   1.92758
    A2        1.87628   0.00002  -0.00020   0.00188   0.00167   1.87796
    A3        1.91494  -0.00009   0.00019  -0.00218  -0.00199   1.91295
    A4        1.92636  -0.00007  -0.00015   0.00137   0.00123   1.92758
    A5        1.90506   0.00009   0.00004  -0.00076  -0.00072   1.90434
    A6        1.91482   0.00007   0.00026  -0.00178  -0.00152   1.91329
    A7        2.23059   0.00022  -0.00043   0.00335   0.00290   2.23349
    A8        1.95826  -0.00023   0.00032  -0.00267  -0.00238   1.95588
    A9        2.09432   0.00001   0.00011  -0.00061  -0.00053   2.09379
    D1        2.10938   0.00014   0.00084   0.00603   0.00687   2.11624
    D2       -1.02607  -0.00018  -0.00097  -0.00621  -0.00718  -1.03325
    D3       -0.00341   0.00017   0.00087   0.00607   0.00693   0.00352
    D4       -3.13886  -0.00016  -0.00094  -0.00617  -0.00712   3.13721
    D5       -2.11624   0.00016   0.00086   0.00596   0.00682  -2.10942
    D6        1.03150  -0.00017  -0.00095  -0.00628  -0.00723   1.02427
         Item               Value     Threshold  Converged?
 Maximum Force            0.000436     0.000450     YES
 RMS     Force            0.000161     0.000300     YES
 Maximum Displacement     0.008604     0.001800     NO 
 RMS     Displacement     0.003371     0.001200     NO 
 Predicted change in Energy=-4.925752D-06
 GradGradGradGradGradGradGradGradGradGradGradGradGradGradGradGradGradGrad

                          Input orientation:                          
 ---------------------------------------------------------------------
 Center     Atomic      Atomic             Coordinates (Angstroms)
 Number     Number       Type             X           Y           Z
 ---------------------------------------------------------------------
      1          6           0        1.311692   -1.017790    0.000375
      2          1           0        1.075637   -1.619360    0.884089
      3          1           0        2.368879   -0.740668   -0.001473
      4          1           0        1.072426   -1.618894   -0.882804
      5          6           0        0.473838    0.233819    0.002531
      6          8           0        0.845888    1.363362   -0.000932
      7         17           0       -1.318540   -0.138507   -0.001729
 ---------------------------------------------------------------------
                    Distance matrix (angstroms):
                    1          2          3          4          5
     1  C    0.000000
     2  H    1.094787   0.000000
     3  H    1.092906   1.796884   0.000000
     4  H    1.094796   1.766895   1.796891   0.000000
     5  C    1.506164   2.138592   2.130921   2.138848   0.000000
     6  O    2.426285   3.119723   2.597392   3.118151   1.189244
     7  Cl   2.773313   2.951217   3.736262   2.946957   1.830646
                    6          7
     6  O    0.000000
     7  Cl   2.634457   0.000000
 Stoichiometry    C2H3ClO
 Framework group  C1[X(C2H3ClO)]
 Deg. of freedom    15
 Full point group                 C1      NOp   1
 Largest Abelian subgroup         C1      NOp   1
 Largest concise Abelian subgroup C1      NOp   1
                         Standard orientation:                         
 ---------------------------------------------------------------------
 Center     Atomic      Atomic             Coordinates (Angstroms)
 Number     Number       Type             X           Y           Z
 ---------------------------------------------------------------------
      1          6           0       -1.331314   -1.002461    0.000441
      2          1           0       -1.101456   -1.606354   -0.883322
      3          1           0       -2.385935   -0.715735    0.003078
      4          1           0       -1.096809   -1.605515    0.883568
      5          6           0       -0.482113    0.241475   -0.002686
      6          8           0       -0.843871    1.374356    0.000813
      7         17           0        1.306808   -0.147137    0.000214
 ---------------------------------------------------------------------
 Rotational constants (GHZ):     10.0581346      4.8100322      3.3212140
 Basis read from rwf:  (5D, 7F)
 Pseudo-potential data read from rwf file.
 There are    78 symmetry adapted basis functions of A   symmetry.
 Integral buffers will be    262144 words long.
 Raffenetti 2 integral format.
 Two-electron integral symmetry is turned on.
    78 basis functions,   150 primitive gaussians,    82 cartesian basis functions
    20 alpha electrons       20 beta electrons
       nuclear repulsion energy       147.6473441368 Hartrees.
 NAtoms=    7 NActive=    7 NUniq=    7 SFac= 7.50D-01 NAtFMM=   80 NAOKFM=F Big=F
 One-electron integrals computed using PRISM.
   1 Symmetry operations used in ECPInt.
 ECPInt:  NShTT=     435 NPrTT=    2508 LenC2=     434 LenP2D=    1982.
 LDataN:  DoStor=T MaxTD1= 4 Len=   56
 NBasis=    78 RedAO= T  NBF=    78
 NBsUse=    78 1.00D-06 NBFU=    78
 Initial guess read from the read-write file.
 B after Tr=     0.000000    0.000000    0.000000
         Rot=    1.000000    0.000000    0.000000    0.000000 Ang=   0.00 deg.
 Initial guess orbital symmetries:
       Occupied  (A) (A) (A) (A) (A) (A) (A) (A) (A) (A) (A) (A)
                 (A) (A) (A) (A) (A) (A) (A) (A)
       Virtual   (A) (A) (A) (A) (A) (A) (A) (A) (A) (A) (A) (A)
                 (A) (A) (A) (A) (A) (A) (A) (A) (A) (A) (A) (A)
                 (A) (A) (A) (A) (A) (A) (A) (A) (A) (A) (A) (A)
                 (A) (A) (A) (A) (A) (A) (A) (A) (A) (A) (A) (A)
                 (A) (A) (A) (A) (A) (A) (A) (A) (A) (A)
 Requested convergence on RMS density matrix=1.00D-08 within 128 cycles.
 Requested convergence on MAX density matrix=1.00D-06.
 Requested convergence on             energy=1.00D-06.
 No special actions if energy rises.
 Keep R1 ints in memory in canonical form, NReq=6787120.
 SCF Done:  E(RB3LYP) =  -613.420266931     A.U. after   13 cycles
             Convg  =    0.4089D-08             -V/T =  2.0056
   1 Symmetry operations used in ECPInt.
 ECPInt:  NShTT=     435 NPrTT=    2508 LenC2=     434 LenP2D=    1982.
 LDataN:  DoStor=T MaxTD1= 5 Len=  102
 Calling FoFJK, ICntrl=      2127 FMM=F ISym2X=0 I1Cent= 0 IOpClX= 0 NMat=1 NMatS=1 NMatT=0.
 ***** Axes restored to original set *****
 -------------------------------------------------------------------
 Center     Atomic                   Forces (Hartrees/Bohr)
 Number     Number              X              Y              Z
 -------------------------------------------------------------------
      1        6          -0.000491358    0.001247523    0.000311389
      2        1           0.000152017   -0.000122389   -0.000026708
      3        1          -0.000253893   -0.000235749    0.000022524
      4        1           0.000085227   -0.000008374    0.000029497
      5        6           0.000049534   -0.001646598   -0.000888161
      6        8           0.000429918    0.000803886    0.000343658
      7       17           0.000028556   -0.000038298    0.000207801
 -------------------------------------------------------------------
 Cartesian Forces:  Max     0.001646598 RMS     0.000558887

 GradGradGradGradGradGradGradGradGradGradGradGradGradGradGradGradGradGrad
 Berny optimization.
 Using GEDIIS/GDIIS optimizer.
 Internal  Forces:  Max     0.001015487 RMS     0.000339807
 Search for a local minimum.
 Step number   5 out of a maximum of   31
 All quantities printed in internal units (Hartrees-Bohrs-Radians)
 Mixed Optimization -- En-DIIS/RFO-DIIS
 Swaping is turned off.
 Update second derivatives using D2CorX and points    1    2    3    4    5
 DE=  3.59D-06 DEPred=-4.93D-06 R=-7.30D-01
 Trust test=-7.30D-01 RLast= 1.89D-02 DXMaxT set to 1.62D-01
     Eigenvalues ---    0.01036   0.04332   0.07641   0.07730   0.08623
     Eigenvalues ---    0.14960   0.16521   0.17925   0.25120   0.26101
     Eigenvalues ---    0.32051   0.33209   0.33867   0.38530   1.01632
     Eigenvalues --- 1000.000001000.000001000.000001000.000001000.00000
     Eigenvalues --- 1000.00000
 En-DIIS/RFO-DIIS IScMMF=        0 using points:     5    4    3
 RFO step:  Lambda=-4.77485385D-06.
 DIIS coeffs:      0.35200      0.45882      0.18918
 Iteration  1 RMS(Cart)=  0.00190060 RMS(Int)=  0.00000583
 Iteration  2 RMS(Cart)=  0.00000582 RMS(Int)=  0.00000215
 Iteration  3 RMS(Cart)=  0.00000000 RMS(Int)=  0.00000215
 Variable       Old X    -DE/DX   Delta X   Delta X   Delta X     New X
                                  (DIIS)     (GDIIS)  (Total)
    R1        2.06885   0.00001   0.00010   0.00009   0.00019   2.06904
    R2        2.06529  -0.00030  -0.00080   0.00012  -0.00067   2.06462
    R3        2.06887  -0.00004   0.00007   0.00009   0.00016   2.06903
    R4        2.84624  -0.00102  -0.00297  -0.00072  -0.00369   2.84255
    R5        2.24734   0.00090   0.00154  -0.00023   0.00131   2.24865
    R6        3.45942  -0.00002  -0.00285   0.00052  -0.00233   3.45709
    A1        1.92758  -0.00020  -0.00096  -0.00077  -0.00173   1.92585
    A2        1.87796  -0.00011  -0.00124  -0.00006  -0.00131   1.87665
    A3        1.91295   0.00025   0.00144   0.00031   0.00175   1.91470
    A4        1.92758  -0.00013  -0.00091  -0.00077  -0.00168   1.92590
    A5        1.90434   0.00017   0.00050   0.00099   0.00149   1.90583
    A6        1.91329   0.00003   0.00119   0.00030   0.00149   1.91478
    A7        2.23349  -0.00018  -0.00221   0.00086  -0.00134   2.23214
    A8        1.95588   0.00001   0.00179  -0.00093   0.00087   1.95675
    A9        2.09379   0.00017   0.00043   0.00007   0.00050   2.09429
    D1        2.11624  -0.00021  -0.00380  -0.00007  -0.00386   2.11238
    D2       -1.03325   0.00021   0.00390  -0.00011   0.00379  -1.02946
    D3        0.00352  -0.00022  -0.00382   0.00007  -0.00375  -0.00023
    D4        3.13721   0.00021   0.00388   0.00003   0.00390   3.14111
    D5       -2.10942  -0.00018  -0.00375   0.00021  -0.00353  -2.11295
    D6        1.02427   0.00025   0.00394   0.00017   0.00412   1.02839
         Item               Value     Threshold  Converged?
 Maximum Force            0.001015     0.000450     NO 
 RMS     Force            0.000340     0.000300     NO 
 Maximum Displacement     0.004690     0.001800     NO 
 RMS     Displacement     0.001901     0.001200     NO 
 Predicted change in Energy=-5.974161D-06
 GradGradGradGradGradGradGradGradGradGradGradGradGradGradGradGradGradGrad

                          Input orientation:                          
 ---------------------------------------------------------------------
 Center     Atomic      Atomic             Coordinates (Angstroms)
 Number     Number       Type             X           Y           Z
 ---------------------------------------------------------------------
      1          6           0        1.310720   -1.016571   -0.000002
      2          1           0        1.075044   -1.618913    0.883412
      3          1           0        2.367842   -0.740608   -0.000563
      4          1           0        1.074212   -1.619495   -0.882788
      5          6           0        0.473354    0.233019    0.000050
      6          8           0        0.846614    1.362898   -0.000209
      7         17           0       -1.317966   -0.138368    0.000158
 ---------------------------------------------------------------------
                    Distance matrix (angstroms):
                    1          2          3          4          5
     1  C    0.000000
     2  H    1.094888   0.000000
     3  H    1.092549   1.795594   0.000000
     4  H    1.094881   1.766200   1.795617   0.000000
     5  C    1.504213   2.138226   2.130032   2.138280   0.000000
     6  O    2.424307   3.118358   2.595933   3.118560   1.189936
     7  Cl   2.771503   2.949347   3.734685   2.948872   1.829414
                    6          7
     6  O    0.000000
     7  Cl   2.634237   0.000000
 Stoichiometry    C2H3ClO
 Framework group  C1[X(C2H3ClO)]
 Deg. of freedom    15
 Full point group                 C1      NOp   1
 Largest Abelian subgroup         C1      NOp   1
 Largest concise Abelian subgroup C1      NOp   1
                         Standard orientation:                         
 ---------------------------------------------------------------------
 Center     Atomic      Atomic             Coordinates (Angstroms)
 Number     Number       Type             X           Y           Z
 ---------------------------------------------------------------------
      1          6           0        1.329729   -1.001846   -0.000036
      2          1           0        1.099284   -1.606208    0.883378
      3          1           0        2.384419   -0.716729   -0.000597
      4          1           0        1.098457   -1.606798   -0.882822
      5          6           0        0.481562    0.240438    0.000016
      6          8           0        0.845013    1.373510   -0.000243
      7         17           0       -1.306471   -0.146464    0.000124
 ---------------------------------------------------------------------
 Rotational constants (GHZ):     10.0704802      4.8130598      3.3239449
 Basis read from rwf:  (5D, 7F)
 Pseudo-potential data read from rwf file.
 There are    78 symmetry adapted basis functions of A   symmetry.
 Integral buffers will be    262144 words long.
 Raffenetti 2 integral format.
 Two-electron integral symmetry is turned on.
    78 basis functions,   150 primitive gaussians,    82 cartesian basis functions
    20 alpha electrons       20 beta electrons
       nuclear repulsion energy       147.6992498687 Hartrees.
 NAtoms=    7 NActive=    7 NUniq=    7 SFac= 7.50D-01 NAtFMM=   80 NAOKFM=F Big=F
 One-electron integrals computed using PRISM.
   1 Symmetry operations used in ECPInt.
 ECPInt:  NShTT=     435 NPrTT=    2508 LenC2=     434 LenP2D=    1982.
 LDataN:  DoStor=T MaxTD1= 4 Len=   56
 NBasis=    78 RedAO= T  NBF=    78
 NBsUse=    78 1.00D-06 NBFU=    78
 Initial guess read from the read-write file.
 B after Tr=     0.000000    0.000000    0.000000
         Rot=    1.000000    0.000000    0.000000    0.000000 Ang=   0.00 deg.
 Initial guess orbital symmetries:
       Occupied  (A) (A) (A) (A) (A) (A) (A) (A) (A) (A) (A) (A)
                 (A) (A) (A) (A) (A) (A) (A) (A)
       Virtual   (A) (A) (A) (A) (A) (A) (A) (A) (A) (A) (A) (A)
                 (A) (A) (A) (A) (A) (A) (A) (A) (A) (A) (A) (A)
                 (A) (A) (A) (A) (A) (A) (A) (A) (A) (A) (A) (A)
                 (A) (A) (A) (A) (A) (A) (A) (A) (A) (A) (A) (A)
                 (A) (A) (A) (A) (A) (A) (A) (A) (A) (A)
 Requested convergence on RMS density matrix=1.00D-08 within 128 cycles.
 Requested convergence on MAX density matrix=1.00D-06.
 Requested convergence on             energy=1.00D-06.
 No special actions if energy rises.
 Keep R1 ints in memory in canonical form, NReq=6787120.
 SCF Done:  E(RB3LYP) =  -613.420272927     A.U. after   13 cycles
             Convg  =    0.4090D-08             -V/T =  2.0056
   1 Symmetry operations used in ECPInt.
 ECPInt:  NShTT=     435 NPrTT=    2508 LenC2=     434 LenP2D=    1982.
 LDataN:  DoStor=T MaxTD1= 5 Len=  102
 Calling FoFJK, ICntrl=      2127 FMM=F ISym2X=0 I1Cent= 0 IOpClX= 0 NMat=1 NMatS=1 NMatT=0.
 ***** Axes restored to original set *****
 -------------------------------------------------------------------
 Center     Atomic                   Forces (Hartrees/Bohr)
 Number     Number              X              Y              Z
 -------------------------------------------------------------------
      1        6          -0.000013444    0.000047358    0.000012679
      2        1           0.000000303    0.000015294   -0.000016672
      3        1          -0.000044139   -0.000008706    0.000000879
      4        1          -0.000001565    0.000020008    0.000015686
      5        6           0.000213833   -0.000050282   -0.000032795
      6        8           0.000005557    0.000013488    0.000012102
      7       17          -0.000160545   -0.000037161    0.000008121
 -------------------------------------------------------------------
 Cartesian Forces:  Max     0.000213833 RMS     0.000062746

 GradGradGradGradGradGradGradGradGradGradGradGradGradGradGradGradGradGrad
 Berny optimization.
 Using GEDIIS/GDIIS optimizer.
 Internal  Forces:  Max     0.000165410 RMS     0.000043901
 Search for a local minimum.
 Step number   6 out of a maximum of   31
 All quantities printed in internal units (Hartrees-Bohrs-Radians)
 Mixed Optimization -- En-DIIS/RFO-DIIS
 Swaping is turned off.
 Update second derivatives using D2CorX and points    1    2    3    4    5
                                                      6
 DE= -6.00D-06 DEPred=-5.97D-06 R= 1.00D+00
 SS=  1.41D+00  RLast= 1.13D-02 DXNew= 2.7177D-01 3.3811D-02
 Trust test= 1.00D+00 RLast= 1.13D-02 DXMaxT set to 1.62D-01
     Eigenvalues ---    0.01036   0.05159   0.07682   0.07694   0.12602
     Eigenvalues ---    0.13289   0.16553   0.17321   0.25270   0.27187
     Eigenvalues ---    0.31615   0.33211   0.33755   0.36617   1.01440
     Eigenvalues --- 1000.000001000.000001000.000001000.000001000.00000
     Eigenvalues --- 1000.00000
 En-DIIS/RFO-DIIS IScMMF=        0 using points:     6    5    4    3
 RFO step:  Lambda=-8.00336859D-08.
 DIIS coeffs:      1.12947     -0.04752     -0.02232     -0.05963
 Iteration  1 RMS(Cart)=  0.00021136 RMS(Int)=  0.00000021
 Iteration  2 RMS(Cart)=  0.00000004 RMS(Int)=  0.00000021
 Variable       Old X    -DE/DX   Delta X   Delta X   Delta X     New X
                                  (DIIS)     (GDIIS)  (Total)
    R1        2.06904  -0.00002   0.00001  -0.00007  -0.00006   2.06898
    R2        2.06462  -0.00004   0.00004  -0.00012  -0.00008   2.06454
    R3        2.06903  -0.00002   0.00001  -0.00007  -0.00006   2.06897
    R4        2.84255  -0.00009  -0.00002  -0.00020  -0.00021   2.84234
    R5        2.24865   0.00001  -0.00007  -0.00001  -0.00008   2.24857
    R6        3.45709   0.00017   0.00013   0.00069   0.00081   3.45791
    A1        1.92585   0.00000  -0.00008   0.00012   0.00003   1.92589
    A2        1.87665   0.00001   0.00002   0.00007   0.00009   1.87674
    A3        1.91470   0.00000   0.00002  -0.00009  -0.00008   1.91462
    A4        1.92590   0.00001  -0.00008   0.00011   0.00003   1.92593
    A5        1.90583   0.00000   0.00012  -0.00011   0.00002   1.90585
    A6        1.91478  -0.00001   0.00000  -0.00010  -0.00010   1.91468
    A7        2.23214   0.00001   0.00017   0.00006   0.00023   2.23237
    A8        1.95675  -0.00001  -0.00016  -0.00005  -0.00022   1.95653
    A9        2.09429   0.00001  -0.00001  -0.00001  -0.00001   2.09428
    D1        2.11238  -0.00001  -0.00014   0.00004  -0.00011   2.11227
    D2       -1.02946   0.00001   0.00014   0.00009   0.00023  -1.02924
    D3       -0.00023  -0.00001  -0.00013   0.00002  -0.00011  -0.00034
    D4        3.14111   0.00001   0.00015   0.00007   0.00022   3.14133
    D5       -2.11295  -0.00001  -0.00011   0.00001  -0.00010  -2.11305
    D6        1.02839   0.00001   0.00017   0.00006   0.00023   1.02863
         Item               Value     Threshold  Converged?
 Maximum Force            0.000165     0.000450     YES
 RMS     Force            0.000044     0.000300     YES
 Maximum Displacement     0.000477     0.001800     YES
 RMS     Displacement     0.000211     0.001200     YES
 Predicted change in Energy=-8.495162D-08
 Optimization completed.
    -- Stationary point found.
                           ----------------------------
                           !   Optimized Parameters   !
                           ! (Angstroms and Degrees)  !
 --------------------------                            --------------------------
 ! Name  Definition              Value          Derivative Info.                !
 --------------------------------------------------------------------------------
 ! R1    R(1,2)                  1.0949         -DE/DX =    0.0                 !
 ! R2    R(1,3)                  1.0925         -DE/DX =    0.0                 !
 ! R3    R(1,4)                  1.0949         -DE/DX =    0.0                 !
 ! R4    R(1,5)                  1.5042         -DE/DX =   -0.0001              !
 ! R5    R(5,6)                  1.1899         -DE/DX =    0.0                 !
 ! R6    R(5,7)                  1.8294         -DE/DX =    0.0002              !
 ! A1    A(2,1,3)              110.3433         -DE/DX =    0.0                 !
 ! A2    A(2,1,4)              107.5242         -DE/DX =    0.0                 !
 ! A3    A(2,1,5)              109.7041         -DE/DX =    0.0                 !
 ! A4    A(3,1,4)              110.3459         -DE/DX =    0.0                 !
 ! A5    A(3,1,5)              109.1959         -DE/DX =    0.0                 !
 ! A6    A(4,1,5)              109.7088         -DE/DX =    0.0                 !
 ! A7    A(1,5,6)              127.8923         -DE/DX =    0.0                 !
 ! A8    A(1,5,7)              112.1135         -DE/DX =    0.0                 !
 ! A9    A(6,5,7)              119.9942         -DE/DX =    0.0                 !
 ! D1    D(2,1,5,6)            121.0305         -DE/DX =    0.0                 !
 ! D2    D(2,1,5,7)            -58.984          -DE/DX =    0.0                 !
 ! D3    D(3,1,5,6)             -0.0132         -DE/DX =    0.0                 !
 ! D4    D(3,1,5,7)            179.9724         -DE/DX =    0.0                 !
 ! D5    D(4,1,5,6)           -121.063          -DE/DX =    0.0                 !
 ! D6    D(4,1,5,7)             58.9225         -DE/DX =    0.0                 !
 --------------------------------------------------------------------------------
 GradGradGradGradGradGradGradGradGradGradGradGradGradGradGradGradGradGrad

                          Input orientation:                          
 ---------------------------------------------------------------------
 Center     Atomic      Atomic             Coordinates (Angstroms)
 Number     Number       Type             X           Y           Z
 ---------------------------------------------------------------------
      1          6           0        1.310720   -1.016571   -0.000002
      2          1           0        1.075044   -1.618913    0.883412
      3          1           0        2.367842   -0.740608   -0.000563
      4          1           0        1.074212   -1.619495   -0.882788
      5          6           0        0.473354    0.233019    0.000050
      6          8           0        0.846614    1.362898   -0.000209
      7         17           0       -1.317966   -0.138368    0.000158
 ---------------------------------------------------------------------
                    Distance matrix (angstroms):
                    1          2          3          4          5
     1  C    0.000000
     2  H    1.094888   0.000000
     3  H    1.092549   1.795594   0.000000
     4  H    1.094881   1.766200   1.795617   0.000000
     5  C    1.504213   2.138226   2.130032   2.138280   0.000000
     6  O    2.424307   3.118358   2.595933   3.118560   1.189936
     7  Cl   2.771503   2.949347   3.734685   2.948872   1.829414
                    6          7
     6  O    0.000000
     7  Cl   2.634237   0.000000
 Stoichiometry    C2H3ClO
 Framework group  C1[X(C2H3ClO)]
 Deg. of freedom    15
 Full point group                 C1      NOp   1
 Largest Abelian subgroup         C1      NOp   1
 Largest concise Abelian subgroup C1      NOp   1
                         Standard orientation:                         
 ---------------------------------------------------------------------
 Center     Atomic      Atomic             Coordinates (Angstroms)
 Number     Number       Type             X           Y           Z
 ---------------------------------------------------------------------
      1          6           0        1.329729   -1.001846   -0.000036
      2          1           0        1.099284   -1.606208    0.883378
      3          1           0        2.384419   -0.716729   -0.000597
      4          1           0        1.098457   -1.606798   -0.882822
      5          6           0        0.481562    0.240438    0.000016
      6          8           0        0.845013    1.373510   -0.000243
      7         17           0       -1.306471   -0.146464    0.000124
 ---------------------------------------------------------------------
 Rotational constants (GHZ):     10.0704802      4.8130598      3.3239449

 **********************************************************************

            Population analysis using the SCF density.

 **********************************************************************

 Orbital symmetries:
       Occupied  (A) (A) (A) (A) (A) (A) (A) (A) (A) (A) (A) (A)
                 (A) (A) (A) (A) (A) (A) (A) (A)
       Virtual   (A) (A) (A) (A) (A) (A) (A) (A) (A) (A) (A) (A)
                 (A) (A) (A) (A) (A) (A) (A) (A) (A) (A) (A) (A)
[...]
     1   6     0.00   0.00   0.01     0.30   0.03   0.00     0.08   0.21   0.00
     2   1    -0.39  -0.32  -0.32     0.55  -0.05   0.01     0.03   0.23   0.00
     3   1     0.00   0.00   0.54     0.19   0.45   0.00     0.09   0.18   0.00
     4   1     0.39   0.32  -0.32     0.55  -0.05  -0.01     0.03   0.23   0.00
     5   6     0.00   0.00   0.01    -0.02  -0.16   0.00     0.22   0.25   0.00
     6   8     0.00   0.00  -0.05    -0.05  -0.15   0.00     0.68   0.08   0.00
     7  17     0.00   0.00   0.02    -0.11   0.10   0.00    -0.42  -0.21   0.00
                     4                      5                      6
                     A                      A                      A
 Frequencies --   517.8467               599.5197               965.1860
 Red. masses --     3.0397                 4.4934                 2.8291
 Frc consts  --     0.4803                 0.9515                 1.5528
 IR Inten    --     2.0623               133.7515                72.6447
  Atom  AN      X      Y      Z        X      Y      Z        X      Y      Z
     1   6     0.00   0.00   0.01     0.17  -0.25   0.00    -0.03   0.26   0.00
     2   1    -0.38   0.40   0.19    -0.14  -0.15  -0.01    -0.50   0.35  -0.06
     3   1     0.00   0.00   0.40     0.30  -0.74   0.00     0.11  -0.28   0.00
     4   1     0.38  -0.40   0.19    -0.14  -0.15   0.01    -0.50   0.35   0.06
     5   6     0.00   0.00  -0.39     0.33   0.05   0.00     0.21  -0.14   0.00
     6   8     0.00   0.00   0.14    -0.17   0.19   0.00    -0.07  -0.14   0.00
     7  17     0.00   0.00   0.04    -0.09   0.02   0.00    -0.01   0.01   0.00
                     7                      8                      9
                     A                      A                      A
 Frequencies --  1057.1245              1124.2408              1414.8746
 Red. masses --     1.5916                 1.9533                 1.2434
 Frc consts  --     1.0479                 1.4546                 1.4665
 IR Inten    --     3.3304               146.2645                24.2240
  Atom  AN      X      Y      Z        X      Y      Z        X      Y      Z
     1   6     0.00   0.00   0.16    -0.18  -0.03   0.00    -0.08   0.12   0.00
     2   1     0.30  -0.54  -0.15     0.32  -0.03   0.12     0.34  -0.43  -0.26
     3   1     0.00   0.00  -0.36    -0.38   0.73   0.00     0.09  -0.48   0.00
     4   1    -0.30   0.54  -0.15     0.32  -0.03  -0.12     0.34  -0.43   0.26
     5   6     0.00   0.00  -0.16     0.22  -0.05   0.00     0.02  -0.01   0.00
     6   8     0.00   0.00   0.03    -0.04   0.02   0.00     0.00   0.00   0.00
     7  17     0.00   0.00   0.01     0.00   0.00   0.00     0.00   0.00   0.00
                    10                     11                     12
                     A                      A                      A
 Frequencies --  1487.3811              1489.5028              1890.3647
 Red. masses --     1.0477                 1.0445                12.0669
 Frc consts  --     1.3656                 1.3653                25.4061
 IR Inten    --    14.9933                13.9780               350.4081
  Atom  AN      X      Y      Z        X      Y      Z        X      Y      Z
     1   6     0.05   0.01   0.00     0.00   0.00  -0.05     0.02  -0.07   0.00
     2   1    -0.35  -0.37  -0.35     0.48  -0.05   0.06     0.04  -0.17  -0.08
     3   1    -0.09   0.46   0.00     0.00   0.00   0.72    -0.02   0.16   0.00
     4   1    -0.35  -0.37   0.35    -0.48   0.05   0.06     0.04  -0.17   0.08
     5   6     0.01  -0.01   0.00     0.00   0.00  -0.02     0.15   0.77   0.00
     6   8     0.00   0.02   0.00     0.00   0.00   0.00    -0.16  -0.51   0.00
     7  17     0.00   0.00   0.00     0.00   0.00   0.00     0.01   0.00   0.00
                    13                     14                     15
                     A                      A                      A
 Frequencies --  3070.4648              3140.6036              3169.2019
 Red. masses --     1.0338                 1.1009                 1.1059
 Frc consts  --     5.7424                 6.3975                 6.5446
 IR Inten    --     0.5476                 0.3699                 4.7658
  Atom  AN      X      Y      Z        X      Y      Z        X      Y      Z
     1   6    -0.02   0.04   0.00     0.00   0.00   0.09    -0.08  -0.05   0.00
     2   1    -0.13  -0.33   0.49     0.15   0.40  -0.56     0.06   0.19  -0.29
     3   1     0.49   0.14   0.00     0.00   0.00   0.01     0.83   0.23   0.00
     4   1    -0.13  -0.33  -0.49    -0.15  -0.40  -0.56     0.06   0.19   0.29
     5   6     0.00   0.00   0.00     0.00   0.00   0.00     0.00   0.00   0.00
     6   8     0.00   0.00   0.00     0.00   0.00   0.00     0.00   0.00   0.00
     7  17     0.00   0.00   0.00     0.00   0.00   0.00     0.00   0.00   0.00

 -------------------
 - Thermochemistry -
 -------------------
 Temperature   298.150 Kelvin.  Pressure   1.00000 Atm.
 Atom     1 has atomic number  6 and mass  12.00000
 Atom     2 has atomic number  1 and mass   1.00783
 Atom     3 has atomic number  1 and mass   1.00783
 Atom     4 has atomic number  1 and mass   1.00783
 Atom     5 has atomic number  6 and mass  12.00000
 Atom     6 has atomic number  8 and mass  15.99491
 Atom     7 has atomic number 17 and mass  34.96885
 Molecular mass:    77.98724 amu.
 Principal axes and moments of inertia in atomic units:
                           1         2         3
     Eigenvalues --   179.21104 374.96755 542.95160
           X            0.99460  -0.10377   0.00009
           Y            0.10377   0.99460   0.00010
           Z           -0.00010  -0.00009   1.00000
 This molecule is an asymmetric top.
 Rotational symmetry number  1.
 Rotational temperatures (Kelvin)      0.48331     0.23099     0.15952
 Rotational constants (GHZ):          10.07048     4.81306     3.32394
 Zero-point vibrational energy     124595.5 (Joules/Mol)
                                   29.77905 (Kcal/Mol)
 Warning -- explicit consideration of   5 degrees of freedom as
           vibrations may cause significant error
 Vibrational temperatures:    189.78   494.45   617.05   745.07   862.57
          (Kelvin)           1388.69  1520.96  1617.53  2035.69  2140.01
                             2143.06  2719.81  4417.71  4518.62  4559.77
 
 Zero-point correction=                           0.047456 (Hartree/Particle)
 Thermal correction to Energy=                    0.052099
 Thermal correction to Enthalpy=                  0.053043
 Thermal correction to Gibbs Free Energy=         0.019591
 Sum of electronic and zero-point Energies=           -613.372817
 Sum of electronic and thermal Energies=              -613.368174
 Sum of electronic and thermal Enthalpies=            -613.367230
 Sum of electronic and thermal Free Energies=         -613.400681
 
                     E (Thermal)             CV                S
                      KCal/Mol        Cal/Mol-Kelvin    Cal/Mol-Kelvin
 Total                   32.692             14.392             70.404
 Electronic               0.000              0.000              0.000
 Translational            0.889              2.981             38.977
 Rotational               0.889              2.981             25.104
 Vibrational             30.915              8.431              6.323
 Vibration     1          0.612              1.921              2.918
 Vibration     2          0.722              1.588              1.195
 Vibration     3          0.790              1.407              0.862
 Vibration     4          0.873              1.210              0.615
 Vibration     5          0.958              1.033              0.450
                       Q            Log10(Q)             Ln(Q)
 Total Bot       0.974019D-09         -9.011433        -20.749591
 Total V=0       0.655746D+13         12.816736         29.511625
 Vib (Bot)       0.526224D-21        -21.278829        -48.996316
 Vib (Bot)    1  0.154483D+01          0.188881          0.434914
 Vib (Bot)    2  0.539060D+00         -0.268363         -0.617928
 Vib (Bot)    3  0.406628D+00         -0.390803         -0.899857
 Vib (Bot)    4  0.312317D+00         -0.505404         -1.163737
 Vib (Bot)    5  0.249189D+00         -0.603472         -1.389545
 Vib (V=0)       0.354274D+01          0.549339          1.264900
 Vib (V=0)    1  0.212373D+01          0.327099          0.753174
 Vib (V=0)    2  0.123525D+01          0.091753          0.211270
 Vib (V=0)    3  0.114447D+01          0.058606          0.134945
 Vib (V=0)    4  0.108953D+01          0.037238          0.085744
 Vib (V=0)    5  0.105865D+01          0.024754          0.056999
 Electronic      0.100000D+01          0.000000          0.000000
 Translational   0.270701D+08          7.432491         17.113942
 Rotational      0.683764D+05          4.834906         11.132783
 ***** Axes restored to original set *****
 -------------------------------------------------------------------
 Center     Atomic                   Forces (Hartrees/Bohr)
 Number     Number              X              Y              Z
 -------------------------------------------------------------------
      1        6          -0.000013448    0.000047358    0.000012679
      2        1           0.000000304    0.000015295   -0.000016674
      3        1          -0.000044137   -0.000008706    0.000000879
      4        1          -0.000001563    0.000020009    0.000015688
      5        6           0.000213828   -0.000050287   -0.000032795
      6        8           0.000005557    0.000013489    0.000012102
      7       17          -0.000160540   -0.000037159    0.000008121
 -------------------------------------------------------------------
 Cartesian Forces:  Max     0.000213828 RMS     0.000062745

 GradGradGradGradGradGradGradGradGradGradGradGradGradGradGradGradGradGrad
 Berny optimization.
 Internal  Forces:  Max     0.000165405 RMS     0.000043900
 Search for a local minimum.
 Step number   1 out of a maximum of    2
 All quantities printed in internal units (Hartrees-Bohrs-Radians)
 Second derivative matrix not updated -- analytic derivatives used.
     Eigenvalues ---    0.00115   0.05028   0.05733   0.05739   0.10147
     Eigenvalues ---    0.12851   0.14395   0.14630   0.22081   0.24356
     Eigenvalues ---    0.30731   0.34330   0.34796   0.35285   0.94937
     Eigenvalues --- 1000.000001000.000001000.000001000.000001000.00000
     Eigenvalues --- 1000.00000
 Angle between quadratic step and forces=  38.33 degrees.
 Linear search not attempted -- first point.
 Iteration  1 RMS(Cart)=  0.00037223 RMS(Int)=  0.00000008
 Iteration  2 RMS(Cart)=  0.00000009 RMS(Int)=  0.00000000
 Variable       Old X    -DE/DX   Delta X   Delta X   Delta X     New X
                                 (Linear)    (Quad)   (Total)
    R1        2.06904  -0.00002   0.00000  -0.00008  -0.00008   2.06896
    R2        2.06462  -0.00004   0.00000  -0.00012  -0.00012   2.06450
    R3        2.06903  -0.00002   0.00000  -0.00006  -0.00006   2.06896
    R4        2.84255  -0.00009   0.00000  -0.00042  -0.00042   2.84213
    R5        2.24865   0.00001   0.00000  -0.00010  -0.00010   2.24855
    R6        3.45709   0.00017   0.00000   0.00143   0.00143   3.45852
    A1        1.92585   0.00000   0.00000   0.00007   0.00007   1.92592
    A2        1.87665   0.00001   0.00000   0.00001   0.00001   1.87666
    A3        1.91470   0.00000   0.00000  -0.00003  -0.00003   1.91467
    A4        1.92590   0.00001   0.00000   0.00002   0.00002   1.92592
    A5        1.90583   0.00000   0.00000   0.00003   0.00003   1.90586
    A6        1.91478  -0.00001   0.00000  -0.00011  -0.00011   1.91467
    A7        2.23214   0.00001   0.00000   0.00038   0.00038   2.23252
    A8        1.95675  -0.00001   0.00000  -0.00026  -0.00026   1.95649
    A9        2.09429   0.00001   0.00000  -0.00012  -0.00012   2.09417
    D1        2.11238  -0.00001   0.00000   0.00033   0.00033   2.11271
    D2       -1.02946   0.00001   0.00000   0.00058   0.00058  -1.02888
    D3       -0.00023  -0.00001   0.00000   0.00024   0.00024   0.00001
    D4        3.14111   0.00001   0.00000   0.00049   0.00049  -3.14159
    D5       -2.11295  -0.00001   0.00000   0.00026   0.00026  -2.11269
    D6        1.02839   0.00001   0.00000   0.00051   0.00051   1.02890
         Item               Value     Threshold  Converged?
 Maximum Force            0.000165     0.000450     YES
 RMS     Force            0.000044     0.000300     YES
 Maximum Displacement     0.000700     0.001800     YES
 RMS     Displacement     0.000372     0.001200     YES
 Predicted change in Energy=-1.487596D-07
 Optimization completed.
    -- Stationary point found.
                           ----------------------------
                           !   Optimized Parameters   !
                           ! (Angstroms and Degrees)  !
 --------------------------                            --------------------------
 ! Name  Definition              Value          Derivative Info.                !
 --------------------------------------------------------------------------------
 ! R1    R(1,2)                  1.0949         -DE/DX =    0.0                 !
 ! R2    R(1,3)                  1.0925         -DE/DX =    0.0                 !
 ! R3    R(1,4)                  1.0949         -DE/DX =    0.0                 !
 ! R4    R(1,5)                  1.5042         -DE/DX =   -0.0001              !
 ! R5    R(5,6)                  1.1899         -DE/DX =    0.0                 !
 ! R6    R(5,7)                  1.8294         -DE/DX =    0.0002              !
 ! A1    A(2,1,3)              110.3433         -DE/DX =    0.0                 !
 ! A2    A(2,1,4)              107.5242         -DE/DX =    0.0                 !
 ! A3    A(2,1,5)              109.7041         -DE/DX =    0.0                 !
 ! A4    A(3,1,4)              110.3459         -DE/DX =    0.0                 !
 ! A5    A(3,1,5)              109.1959         -DE/DX =    0.0                 !
 ! A6    A(4,1,5)              109.7088         -DE/DX =    0.0                 !
 ! A7    A(1,5,6)              127.8923         -DE/DX =    0.0                 !
 ! A8    A(1,5,7)              112.1135         -DE/DX =    0.0                 !
 ! A9    A(6,5,7)              119.9942         -DE/DX =    0.0                 !
 ! D1    D(2,1,5,6)            121.0305         -DE/DX =    0.0                 !
 ! D2    D(2,1,5,7)            -58.984          -DE/DX =    0.0                 !
 ! D3    D(3,1,5,6)             -0.0132         -DE/DX =    0.0                 !
 ! D4    D(3,1,5,7)           -180.0276         -DE/DX =    0.0                 !
 ! D5    D(4,1,5,6)           -121.063          -DE/DX =    0.0                 !
 ! D6    D(4,1,5,7)             58.9225         -DE/DX =    0.0                 !
 --------------------------------------------------------------------------------
 GradGradGradGradGradGradGradGradGradGradGradGradGradGradGradGradGradGrad

 1|1|UNPC-WST-PGHS-014|Freq|RB3LYP|Gen|C2H3Cl1O1|214584429|25-Feb-2015|
 0||#N Geom=AllCheck Guess=TCheck SCRF=Check GenChk RB3LYP/ChkBas Freq|
 |gen calculation ClAc-C H O=6-31+g(d)/Cl=dgdzvp||0,1|C,1.3107195831,-1.0165710261,-0.0000020235
 |H,1.075044199,-1.618912641,0.8834122634|H,2.3678421815,-0.7406077334,
 -0.0005634459|H,1.074212087,-1.6194952727,-0.8827879321|C,0.4733539356
 ,0.2330193567,0.000049803|O,0.846614059,1.3628976029,-0.0002085783|Cl,
 -1.3179660452,-0.1383682865,0.0001576133||Version=IA32W-G09RevA.02|Sta
 te=1-A|HF=-613.4202729|RMSD=9.135e-010|RMSF=6.275e-005|ZeroPoint=0.047
 4559|Thermal=0.0520985|Dipole=0.6145216,-1.0240163,0.0001107|DipoleDer
 iv=-0.1314079,0.1232382,-0.0000351,0.064466,-0.2367444,0.000034,-0.000
 0298,0.0000612,0.0535952,0.0485672,0.0072455,0.0558321,0.005362,0.0783
 945,0.0286266,0.0244636,0.0599267,0.0234259,-0.0816722,0.004777,0.0000
 651,-0.0020747,0.0443152,0.0000301,0.0000928,-0.0000113,0.1053798,0.04
 8467,0.0071727,-0.05586,0.0053099,0.0783471,-0.02865,-0.0244755,-0.059
 9872,0.0235745,2.1205277,0.2404634,-0.0001761,0.6924313,1.350361,-0.00
 0172,-0.0002581,-0.0001627,0.1834246,-0.8131752,-0.2040349,0.000067,-0
 .5996891,-1.0899258,0.0001113,0.0001848,0.0001659,-0.2525872,-1.191306
 6,-0.1788618,0.0001068,-0.1658054,-0.2247475,0.00002,0.0000221,0.00000
 74,-0.1368128|Polar=49.920182,3.3055498,38.9355512,-0.0020934,-0.00235
 87,26.9898062|PG=C01 [X(C2H3Cl1O1)]|NImag=0||0.56949450,0.06496672,0.5
 0951270,-0.00001385,0.00001350,0.54383524,-0.06249493,-0.03144011,0.04
 871241,0.06165622,-0.03126022,-0.12416234,0.12441450,0.03306079,0.1374
 3506,0.04767930,0.12298032,-0.22225497,-0.05311408,-0.13273753,0.23984
 769,-0.30600938,-0.06752419,0.00013770,-0.00325050,-0.00079448,-0.0001
 8124,0.33077922,-0.07288052,-0.06939882,0.00003468,-0.01631426,-0.0039
 5531,-0.00245424,0.07351643,0.07147371,0.00013905,0.00003190,-0.050454
 58,0.02567986,0.00483321,0.00204588,-0.00015110,-0.00003985,0.04677356
 ,-0.06259273,-0.03159659,-0.04885114,0.00086121,0.00385880,0.00577118,
 -0.00327337,-0.01632647,-0.02566295,0.06176465,-0.03141056,-0.12432786
 ,-0.12445488,0.00387030,0.01184690,0.01542887,-0.00079864,-0.00395637,
 -0.00482763,0.03322407,0.13761127,-0.04781066,-0.12302560,-0.22201377,
 -0.00579458,-0.01545335,-0.02115583,0.00018690,0.00247388,0.00207235,0
 .05326603,0.13277840,0.23958348,-0.12447993,0.05878628,0.00000829,0.00
 602005,-0.00921392,0.00070942,-0.01970089,0.02820871,-0.00000203,0.006
 03510,-0.00923792,-0.00071056,0.34465517,0.06514712,-0.14790256,-0.000
 02006,0.00900693,-0.01994791,-0.00075682,-0.00594190,0.00576722,0.0000
 0279,0.00901906,-0.01996016,0.00076650,0.10470013,1.00020790,-0.000005
 03,-0.00000467,-0.08533384,-0.01882990,0.02427388,0.00220974,0.0000092
 4,-0.00001663,-0.00165563,0.01882186,-0.02425038,0.00220577,-0.0000468
 1,-0.00015316,0.17879760,0.01549398,0.01371785,0.00000276,-0.00057689,
 0.00379506,-0.00033712,0.00365172,-0.00138176,-0.00000121,-0.00057849,
 0.00379934,0.00033446,-0.14750407,-0.22436434,0.00005156,0.17001706,-0
 .01044383,-0.04820169,0.00001650,0.00184540,-0.00235201,-0.00185721,-0
 .00080330,0.00188640,-0.00000139,0.00184774,-0.00235121,0.00185561,-0.
 18116522,-0.78871388,0.00015326,0.24913126,0.85689155,0.00000879,0.000
 00746,0.02704569,0.00261185,-0.00361166,-0.00123803,-0.00000210,0.0000
 0113,-0.00059038,-0.00261393,0.00360694,-0.00123757,0.00004319,0.00016
 245,-0.06188269,-0.00006116,-0.00017485,0.02422878,-0.02941151,-0.0069
 0996,0.00000382,-0.00221514,0.00055396,-0.00052746,-0.00219680,0.00517
 788,-0.00000163,-0.00221636,0.00055342,0.00052841,-0.06502543,0.042432
 98,-0.00000093,-0.04050331,-0.06041205,0.00001336,0.14156854,0.0158812
 8,0.00448057,-0.00000424,-0.00002905,0.00113561,-0.00060340,0.00234608
 ,-0.00181683,0.00000098,-0.00002661,0.00113743,0.00060457,0.00792193,-
 0.02945062,-0.00000230,-0.04469742,-0.01715916,0.00000852,0.01860377,0
 .04167299,0.00000239,-0.00000292,0.00917623,0.00073444,-0.00171905,0.0
 0054552,0.00000059,0.00000103,0.00180880,-0.00073105,0.00171868,0.0005
 4557,-0.00000149,-0.00000170,-0.03434095,0.00001070,0.00000808,0.01367
 420,-0.00001557,-0.00000413,0.00859064||0.00001345,-0.00004736,-0.0000
 1268,-0.00000030,-0.00001530,0.00001667,0.00004414,0.00000871,-0.00000
 088,0.00000156,-0.00002001,-0.00001569,-0.00021383,0.00005029,0.000032
 79,-0.00000556,-0.00001349,-0.00001210,0.00016054,0.00003716,-0.000008
 12|||@


 ALL THINGS ARE POSSIBLE EXCEPT SKIING THROUGH A REVOLVING DOOR.
 Job cpu time:  0 days  0 hours  1 minutes  0.0 seconds.
 File lengths (MBytes):  RWF=      9 Int=      0 D2E=      0 Chk=      1 Scr=      1
 Normal termination of Gaussian 09 at Wed Feb 25 12:30:38 2015.
