 Entering Link 1 = C:\G09W\l1.exe PID=      3172.
  
 Copyright (c) 1988,1990,1992,1993,1995,1998,2003,2009, Gaussian, Inc.
                  All Rights Reserved.
  
 This is part of the Gaussian(R) 09 program.  It is based on
 the Gaussian(R) 03 system (copyright 2003, Gaussian, Inc.),
 the Gaussian(R) 98 system (copyright 1998, Gaussian, Inc.),
 the Gaussian(R) 94 system (copyright 1995, Gaussian, Inc.),
 the Gaussian 92(TM) system (copyright 1992, Gaussian, Inc.),
 the Gaussian 90(TM) system (copyright 1990, Gaussian, Inc.),
 the Gaussian 88(TM) system (copyright 1988, Gaussian, Inc.),
 the Gaussian 86(TM) system (copyright 1986, Carnegie Mellon
 University), and the Gaussian 82(TM) system (copyright 1983,
 Carnegie Mellon University). Gaussian is a federally registered
 trademark of Gaussian, Inc.
  
 This software contains proprietary and confidential information,
 including trade secrets, belonging to Gaussian, Inc.
  
 This software is provided under written license and may be
 used, copied, transmitted, or stored only in accord with that
 written license.
  
 The following legend is applicable only to US Government
 contracts under FAR:
  
                    RESTRICTED RIGHTS LEGEND
  
 Use, reproduction and disclosure by the US Government is
 subject to restrictions as set forth in subparagraphs (a)
 and (c) of the Commercial Computer Software - Restricted
 Rights clause in FAR 52.227-19.
  
 Gaussian, Inc.
 340 Quinnipiac St., Bldg. 40, Wallingford CT 06492
  
  
 ---------------------------------------------------------------
 Warning -- This program may not be used in any manner that
 competes with the business of Gaussian, Inc. or will provide
 assistance to any competitor of Gaussian, Inc.  The licensee
 of this program is prohibited from giving any competitor of
 Gaussian, Inc. access to this program.  By using this program,
 the user acknowledges that Gaussian, Inc. is engaged in the
 business of creating and licensing software in the field of
 computational chemistry and represents and warrants to the
 licensee that it is not a competitor of Gaussian, Inc. and that
 it will not use this program in any manner prohibited above.
 ---------------------------------------------------------------
  

 Cite this work as:
 Gaussian 09, Revision A.02,
 M. J. Frisch, G. W. Trucks, H. B. Schlegel, G. E. Scuseria, 
 M. A. Robb, J. R. Cheeseman, G. Scalmani, V. Barone, B. Mennucci, 
 G. A. Petersson, H. Nakatsuji, M. Caricato, X. Li, H. P. Hratchian, 
 A. F. Izmaylov, J. Bloino, G. Zheng, J. L. Sonnenberg, M. Hada, 
 M. Ehara, K. Toyota, R. Fukuda, J. Hasegawa, M. Ishida, T. Nakajima, 
 Y. Honda, O. Kitao, H. Nakai, T. Vreven, J. A. Montgomery, Jr., 
 J. E. Peralta, F. Ogliaro, M. Bearpark, J. J. Heyd, E. Brothers, 
 K. N. Kudin, V. N. Staroverov, R. Kobayashi, J. Normand, 
 K. Raghavachari, A. Rendell, J. C. Burant, S. S. Iyengar, J. Tomasi, 
 M. Cossi, N. Rega, J. M. Millam, M. Klene, J. E. Knox, J. B. Cross, 
 V. Bakken, C. Adamo, J. Jaramillo, R. Gomperts, R. E. Stratmann, 
 O. Yazyev, A. J. Austin, R. Cammi, C. Pomelli, J. W. Ochterski, 
 R. L. Martin, K. Morokuma, V. G. Zakrzewski, G. A. Voth, 
 P. Salvador, J. J. Dannenberg, S. Dapprich, A. D. Daniels, 
 O. Farkas, J. B. Foresman, J. V. Ortiz, J. Cioslowski, 
 and D. J. Fox, Gaussian, Inc., Wallingford CT, 2009.
 
 ******************************************
 Gaussian 09:  IA32W-G09RevA.02 11-Jun-2009
                25-Mar-2015 
 ******************************************
 %chk=C:\Users\214584429\Dropbox\fac-ccpvtz-dgd.chk
 -------------------------------------------------------------
 # opt freq b3lyp/genecp geom=connectivity gfinput pseudo=read
 -------------------------------------------------------------
 1/14=-1,18=20,19=15,26=3,38=1,57=2/1,3;
 2/9=110,12=2,17=6,18=5,40=1/2;
 3/5=7,11=2,16=1,17=8,24=10,25=1,30=1,71=1,74=-5/1,2,3;
 4//1;
 5/5=2,38=5/2;
 6/7=2,8=2,9=2,10=2,28=1/1;
 7//1,2,3,16;
 1/14=-1,18=20,19=15/3(2);
 2/9=110/2;
 99//99;
 2/9=110/2;
 3/5=7,6=1,11=2,16=1,17=8,25=1,30=1,71=1,74=-5,82=7/1,2,3;
 4/5=5,16=3/1;
 5/5=2,38=5/2;
 7//1,2,3,16;
 1/14=-1,18=20,19=15/3(-5);
 2/9=110/2;
 6/7=2,8=2,9=2,10=2,19=2,28=1/1;
 99/9=1/99;
 ----------------------------------------------
 gen calculation FAc-C H O=aug-cc-pvtz/F=dgdzvp
 ----------------------------------------------
 Symbolic Z-matrix:
 Charge =  0 Multiplicity = 1
 C                     1.37869  -0.03125   0. 
 H                     1.7614    0.50902  -0.88336 
 H                     1.84595  -1.03091  -0.00007 
 H                     1.76139   0.50889   0.88344 
 C                    -0.09921  -0.13237  0. 
 O                    -0.82872  -1.07777   0. 
 F                    -0.71287   1.06854   0. 
 

 GradGradGradGradGradGradGradGradGradGradGradGradGradGradGradGradGradGrad
 Berny optimization.
 Initialization pass.
                           ----------------------------
                           !    Initial Parameters    !
                           ! (Angstroms and Degrees)  !
 --------------------------                            --------------------------
 ! Name  Definition              Value          Derivative Info.                !
 --------------------------------------------------------------------------------
 ! R1    R(1,2)                  1.1039         estimate D2E/DX2                !
 ! R2    R(1,3)                  1.1035         estimate D2E/DX2                !
 ! R3    R(1,4)                  1.1039         estimate D2E/DX2                !
 ! R4    R(1,5)                  1.4814         estimate D2E/DX2                !
 ! R5    R(5,6)                  1.1941         estimate D2E/DX2                !
 ! R6    R(5,7)                  1.3486         estimate D2E/DX2                !
 ! A1    A(2,1,3)              107.2481         estimate D2E/DX2                !
 ! A2    A(2,1,4)              106.3041         estimate D2E/DX2                !
 ! A3    A(2,1,5)              112.2884         estimate D2E/DX2                !
 ! A4    A(3,1,4)              107.2479         estimate D2E/DX2                !
 ! A5    A(3,1,5)              111.1378         estimate D2E/DX2                !
 ! A6    A(4,1,5)              112.288          estimate D2E/DX2                !
 ! A7    A(1,5,6)              131.57           estimate D2E/DX2                !
 ! A8    A(1,5,7)              113.1526         estimate D2E/DX2                !
 ! A9    A(6,5,7)              115.2773         estimate D2E/DX2                !
 ! D1    D(2,1,5,6)            120.1395         estimate D2E/DX2                !
 ! D2    D(2,1,5,7)            -59.861          estimate D2E/DX2                !
 ! D3    D(3,1,5,6)              0.0042         estimate D2E/DX2                !
 ! D4    D(3,1,5,7)           -179.9964         estimate D2E/DX2                !
 ! D5    D(4,1,5,6)           -120.1306         estimate D2E/DX2                !
 ! D6    D(4,1,5,7)             59.8688         estimate D2E/DX2                !
 --------------------------------------------------------------------------------
 Trust Radius=3.00D-01 FncErr=1.00D-07 GrdErr=1.00D-06
 Number of steps in this run=  31 maximum allowed number of steps= 100.
 GradGradGradGradGradGradGradGradGradGradGradGradGradGradGradGradGradGrad

                          Input orientation:                          
 ---------------------------------------------------------------------
 Center     Atomic      Atomic             Coordinates (Angstroms)
 Number     Number       Type             X           Y           Z
 ---------------------------------------------------------------------
      1          6           0        1.378693   -0.031247    0.000000
      2          1           0        1.761395    0.509015   -0.883364
      3          1           0        1.845953   -1.030909   -0.000068
      4          1           0        1.761393    0.508889    0.883441
      5          6           0       -0.099208   -0.132373   -0.000003
      6          8           0       -0.828724   -1.077768    0.000001
      7          9           0       -0.712874    1.068540    0.000001
 ---------------------------------------------------------------------
                    Distance matrix (angstroms):
                    1          2          3          4          5
     1  C    0.000000
     2  H    1.103937   0.000000
     3  H    1.103475   1.777281   0.000000
     4  H    1.103936   1.766805   1.777278   0.000000
     5  C    1.481357   2.157209   2.142666   2.157203   0.000000
     6  O    2.442928   3.163373   2.675087   3.163329   1.194138
     7  F    2.363088   2.686151   3.309876   2.686200   1.348621
                    6          7
     6  O    0.000000
     7  F    2.149432   0.000000
 Stoichiometry    C2H3FO
 Framework group  C1[X(C2H3FO)]
 Deg. of freedom    15
 Full point group                 C1      NOp   1
 Largest Abelian subgroup         C1      NOp   1
 Largest concise Abelian subgroup C1      NOp   1
                         Standard orientation:                         
 ---------------------------------------------------------------------
 Center     Atomic      Atomic             Coordinates (Angstroms)
 Number     Number       Type             X           Y           Z
 ---------------------------------------------------------------------
      1          6           0        1.378693   -0.031247    0.000000
      2          1           0        1.761395    0.509015   -0.883364
      3          1           0        1.845953   -1.030909   -0.000068
      4          1           0        1.761393    0.508889    0.883441
      5          6           0       -0.099208   -0.132373   -0.000003
      6          8           0       -0.828724   -1.077767    0.000000
      7          9           0       -0.712873    1.068541    0.000000
 ---------------------------------------------------------------------
 Rotational constants (GHZ):     11.5880396      9.3123761      5.3346202
 General basis read from cards:  (5D, 7F)
 AO basis set in the form of general basis input (Overlap normalization):
      1 0
 S   7 1.00       0.000000000000
      0.8236000000D+04  0.5419783203D-03
      0.1235000000D+04  0.4192873817D-02
      0.2808000000D+03  0.2152216205D-01
      0.7927000000D+02  0.8353432195D-01
      0.2559000000D+02  0.2395828457D+00
      0.8997000000D+01  0.4428528419D+00
      0.3319000000D+01  0.3517995618D+00
 S   6 1.00       0.000000000000
      0.2808000000D+03 -0.5949224937D-04
      0.7927000000D+02 -0.1148158310D-02
      0.2559000000D+02 -0.1001913745D-01
      0.8997000000D+01 -0.6121949230D-01
      0.3319000000D+01 -0.1732698541D+00
      0.3643000000D+00  0.1072915192D+01
 S   1 1.00       0.000000000000
      0.9059000000D+00  0.1000000000D+01
 S   1 1.00       0.000000000000
      0.1285000000D+00  0.1000000000D+01
 S   1 1.00       0.000000000000
      0.4402000000D-01  0.1000000000D+01
 P   3 1.00       0.000000000000
      0.1871000000D+02  0.3942638716D-01
      0.4133000000D+01  0.2440889849D+00
      0.1200000000D+01  0.8154920089D+00
 P   1 1.00       0.000000000000
      0.3827000000D+00  0.1000000000D+01
 P   1 1.00       0.000000000000
      0.1209000000D+00  0.1000000000D+01
 P   1 1.00       0.000000000000
      0.3569000000D-01  0.1000000000D+01
 D   1 1.00       0.000000000000
      0.1097000000D+01  0.1000000000D+01
 D   1 1.00       0.000000000000
      0.3180000000D+00  0.1000000000D+01
 D   1 1.00       0.000000000000
      0.1000000000D+00  0.1000000000D+01
 F   1 1.00       0.000000000000
      0.7610000000D+00  0.1000000000D+01
 F   1 1.00       0.000000000000
      0.2680000000D+00  0.1000000000D+01
 ****
      2 0
 S   3 1.00       0.000000000000
      0.3387000000D+02  0.2549486323D-01
      0.5095000000D+01  0.1903627659D+00
      0.1159000000D+01  0.8521620222D+00
 S   1 1.00       0.000000000000
      0.3258000000D+00  0.1000000000D+01
 S   1 1.00       0.000000000000
      0.1027000000D+00  0.1000000000D+01
 S   1 1.00       0.000000000000
      0.2526000000D-01  0.1000000000D+01
 P   1 1.00       0.000000000000
      0.1407000000D+01  0.1000000000D+01
 P   1 1.00       0.000000000000
      0.3880000000D+00  0.1000000000D+01
 P   1 1.00       0.000000000000
      0.1020000000D+00  0.1000000000D+01
 D   1 1.00       0.000000000000
      0.1057000000D+01  0.1000000000D+01
 D   1 1.00       0.000000000000
      0.2470000000D+00  0.1000000000D+01
 ****
      3 0
 S   3 1.00       0.000000000000
      0.3387000000D+02  0.2549486323D-01
      0.5095000000D+01  0.1903627659D+00
      0.1159000000D+01  0.8521620222D+00
 S   1 1.00       0.000000000000
      0.3258000000D+00  0.1000000000D+01
 S   1 1.00       0.000000000000
      0.1027000000D+00  0.1000000000D+01
 S   1 1.00       0.000000000000
      0.2526000000D-01  0.1000000000D+01
 P   1 1.00       0.000000000000
      0.1407000000D+01  0.1000000000D+01
 P   1 1.00       0.000000000000
      0.3880000000D+00  0.1000000000D+01
 P   1 1.00       0.000000000000
      0.1020000000D+00  0.1000000000D+01
 D   1 1.00       0.000000000000
      0.1057000000D+01  0.1000000000D+01
 D   1 1.00       0.000000000000
      0.2470000000D+00  0.1000000000D+01
 ****
      4 0
 S   3 1.00       0.000000000000
      0.3387000000D+02  0.2549486323D-01
      0.5095000000D+01  0.1903627659D+00
      0.1159000000D+01  0.8521620222D+00
 S   1 1.00       0.000000000000
      0.3258000000D+00  0.1000000000D+01
 S   1 1.00       0.000000000000
      0.1027000000D+00  0.1000000000D+01
 S   1 1.00       0.000000000000
      0.2526000000D-01  0.1000000000D+01
 P   1 1.00       0.000000000000
      0.1407000000D+01  0.1000000000D+01
 P   1 1.00       0.000000000000
      0.3880000000D+00  0.1000000000D+01
 P   1 1.00       0.000000000000
      0.1020000000D+00  0.1000000000D+01
 D   1 1.00       0.000000000000
      0.1057000000D+01  0.1000000000D+01
 D   1 1.00       0.000000000000
      0.2470000000D+00  0.1000000000D+01
 ****
      5 0
 S   7 1.00       0.000000000000
      0.8236000000D+04  0.5419783203D-03
      0.1235000000D+04  0.4192873817D-02
      0.2808000000D+03  0.2152216205D-01
      0.7927000000D+02  0.8353432195D-01
      0.2559000000D+02  0.2395828457D+00
      0.8997000000D+01  0.4428528419D+00
      0.3319000000D+01  0.3517995618D+00
 S   6 1.00       0.000000000000
      0.2808000000D+03 -0.5949224937D-04
      0.7927000000D+02 -0.1148158310D-02
      0.2559000000D+02 -0.1001913745D-01
      0.8997000000D+01 -0.6121949230D-01
      0.3319000000D+01 -0.1732698541D+00
      0.3643000000D+00  0.1072915192D+01
 S   1 1.00       0.000000000000
      0.9059000000D+00  0.1000000000D+01
 S   1 1.00       0.000000000000
      0.1285000000D+00  0.1000000000D+01
 S   1 1.00       0.000000000000
      0.4402000000D-01  0.1000000000D+01
 P   3 1.00       0.000000000000
      0.1871000000D+02  0.3942638716D-01
      0.4133000000D+01  0.2440889849D+00
      0.1200000000D+01  0.8154920089D+00
 P   1 1.00       0.000000000000
      0.3827000000D+00  0.1000000000D+01
 P   1 1.00       0.000000000000
      0.1209000000D+00  0.1000000000D+01
 P   1 1.00       0.000000000000
      0.3569000000D-01  0.1000000000D+01
 D   1 1.00       0.000000000000
      0.1097000000D+01  0.1000000000D+01
 D   1 1.00       0.000000000000
      0.3180000000D+00  0.1000000000D+01
 D   1 1.00       0.000000000000
      0.1000000000D+00  0.1000000000D+01
 F   1 1.00       0.000000000000
      0.7610000000D+00  0.1000000000D+01
 F   1 1.00       0.000000000000
      0.2680000000D+00  0.1000000000D+01
 ****
      6 0
 S   7 1.00       0.000000000000
      0.1533000000D+05  0.5198089434D-03
      0.2299000000D+04  0.4020256215D-02
      0.5224000000D+03  0.2071282673D-01
      0.1473000000D+03  0.8101055358D-01
      0.4755000000D+02  0.2359629851D+00
      0.1676000000D+02  0.4426534455D+00
      0.6207000000D+01  0.3570644227D+00
 S   6 1.00       0.000000000000
      0.5224000000D+03 -0.4421150084D-04
      0.1473000000D+03 -0.1225910413D-02
      0.4755000000D+02 -0.1055177248D-01
      0.1676000000D+02 -0.6744526326D-01
      0.6207000000D+01 -0.1711986073D+00
      0.6882000000D+00  0.1073298561D+01
 S   1 1.00       0.000000000000
      0.1752000000D+01  0.1000000000D+01
 S   1 1.00       0.000000000000
      0.2384000000D+00  0.1000000000D+01
 S   1 1.00       0.000000000000
      0.7376000000D-01  0.1000000000D+01
 P   3 1.00       0.000000000000
      0.3446000000D+02  0.4116348957D-01
      0.7749000000D+01  0.2577628359D+00
      0.2280000000D+01  0.8024192744D+00
 P   1 1.00       0.000000000000
      0.7156000000D+00  0.1000000000D+01
 P   1 1.00       0.000000000000
      0.2140000000D+00  0.1000000000D+01
 P   1 1.00       0.000000000000
      0.5974000000D-01  0.1000000000D+01
 D   1 1.00       0.000000000000
      0.2314000000D+01  0.1000000000D+01
 D   1 1.00       0.000000000000
      0.6450000000D+00  0.1000000000D+01
 D   1 1.00       0.000000000000
      0.2140000000D+00  0.1000000000D+01
 F   1 1.00       0.000000000000
      0.1428000000D+01  0.1000000000D+01
 F   1 1.00       0.000000000000
      0.5000000000D+00  0.1000000000D+01
 ****
      7 0
 S   6 1.00       0.000000000000
      0.6384714400D+04 -0.2030159990D-02
      0.9588865200D+03 -0.1549809992D-01
      0.2181901000D+03 -0.7577868962D-01
      0.6136473100D+02 -0.2502723487D+00
      0.1960289600D+02 -0.4801086476D+00
      0.6564883400D+01 -0.3271613784D+00
 S   2 1.00       0.000000000000
      0.1381069400D+02  0.1461855196D+00
      0.1229866500D+01 -0.1050340714D+01
 S   1 1.00       0.000000000000
      0.3584713200D+00  0.1000000000D+01
 P   4 1.00       0.000000000000
      0.4246991100D+02  0.2293373469D-01
      0.9713881100D+01  0.1407939302D+00
      0.2864038600D+01  0.4128952807D+00
      0.8746054400D+00  0.6009524210D+00
 P   1 1.00       0.000000000000
      0.2425070600D+00  0.1000000000D+01
 D   1 1.00       0.000000000000
      0.1000000000D+01  0.1000000000D+01
 ****

 ======================================================================================================
                                       Pseudopotential Parameters
 ======================================================================================================
  Center     Atomic      Valence      Angular      Power
  Number     Number     Electrons     Momentum     of R      Exponent        Coefficient   SO-Coeffient
 ======================================================================================================
    1          6
                                   No pseudopotential on this center.
    2          1
                                   No pseudopotential on this center.
    3          1
                                   No pseudopotential on this center.
    4          1
                                   No pseudopotential on this center.
    5          6
                                   No pseudopotential on this center.
    6          8
                                   No pseudopotential on this center.
    7          9
                                   No pseudopotential on this center.
 ======================================================================================================
 There are   221 symmetry adapted basis functions of A   symmetry.
 Integral buffers will be    262144 words long.
 Raffenetti 2 integral format.
 Two-electron integral symmetry is turned on.
   221 basis functions,   327 primitive gaussians,   255 cartesian basis functions
    16 alpha electrons       16 beta electrons
       nuclear repulsion energy       118.7299102007 Hartrees.
 NAtoms=    7 NActive=    7 NUniq=    7 SFac= 7.50D-01 NAtFMM=   80 NAOKFM=F Big=F
 One-electron integrals computed using PRISM.
   1 Symmetry operations used in ECPInt.
 ECPInt:  NShTT=    2850 NPrTT=    8533 LenC2=    2851 LenP2D=    7590.
 LDataN:  DoStor=T MaxTD1= 6 Len=  172
 NBasis=   221 RedAO= T  NBF=   221
 NBsUse=   221 1.00D-06 NBFU=   221
 Harris functional with IExCor=  402 diagonalized for initial guess.
 ExpMin= 2.53D-02 ExpMax= 1.53D+04 ExpMxC= 9.59D+02 IAcc=3 IRadAn=         0 AccDes= 0.00D+00
 HarFok:  IExCor=  402 AccDes= 0.00D+00 IRadAn=         0 IDoV= 1
 ScaDFX=  1.000000  1.000000  1.000000  1.000000
 FoFCou: FMM=F IPFlag=           0 FMFlag=      100000 FMFlg1=           0
         NFxFlg=           0 DoJE=T BraDBF=F KetDBF=T FulRan=T
         Omega=  0.000000  0.000000  1.000000  0.000000  0.000000 ICntrl=     500 IOpCl=  0
         NMat0=    1 NMatS0=    1 NMatT0=    0 NMatD0=    1 NMtDS0=    0 NMtDT0=    0
         I1Cent=           4 NGrid=           0.
 Petite list used in FoFCou.
 Initial guess orbital symmetries:
       Occupied  (A) (A) (A) (A) (A) (A) (A) (A) (A) (A) (A) (A)
                 (A) (A) (A) (A)
       Virtual   (A) (A) (A) (A) (A) (A) (A) (A) (A) (A) (A) (A)
                 (A) (A) (A) (A) (A) (A) (A) (A) (A) (A) (A) (A)
                 (A) (A) (A) (A) (A) (A) (A) (A) (A) (A) (A) (A)
                 (A) (A) (A) (A) (A) (A) (A) (A) (A) (A) (A) (A)
                 (A) (A) (A) (A) (A) (A) (A) (A) (A) (A) (A) (A)
                 (A) (A) (A) (A) (A) (A) (A) (A) (A) (A) (A) (A)
                 (A) (A) (A) (A) (A) (A) (A) (A) (A) (A) (A) (A)
                 (A) (A) (A) (A) (A) (A) (A) (A) (A) (A) (A) (A)
                 (A) (A) (A) (A) (A) (A) (A) (A) (A) (A) (A) (A)
                 (A) (A) (A) (A) (A) (A) (A) (A) (A) (A) (A) (A)
                 (A) (A) (A) (A) (A) (A) (A) (A) (A) (A) (A) (A)
                 (A) (A) (A) (A) (A) (A) (A) (A) (A) (A) (A) (A)
                 (A) (A) (A) (A) (A) (A) (A) (A) (A) (A) (A) (A)
                 (A) (A) (A) (A) (A) (A) (A) (A) (A) (A) (A) (A)
                 (A) (A) (A) (A) (A) (A) (A) (A) (A) (A) (A) (A)
                 (A) (A) (A) (A) (A) (A) (A) (A) (A) (A) (A) (A)
                 (A) (A) (A) (A) (A) (A) (A) (A) (A) (A) (A) (A)
                 (A)
 The electronic state of the initial guess is 1-A.
 Requested convergence on RMS density matrix=1.00D-08 within 128 cycles.
 Requested convergence on MAX density matrix=1.00D-06.
 Requested convergence on             energy=1.00D-06.
 No special actions if energy rises.
 SCF Done:  E(RB3LYP) =  -253.185875342     A.U. after   11 cycles
             Convg  =    0.3400D-08             -V/T =  2.0077

 **********************************************************************

            Population analysis using the SCF density.

 **********************************************************************

 Orbital symmetries:
       Occupied  (A) (A) (A) (A) (A) (A) (A) (A) (A) (A) (A) (A)
                 (A) (A) (A) (A)
       Virtual   (A) (A) (A) (A) (A) (A) (A) (A) (A) (A) (A) (A)
                 (A) (A) (A) (A) (A) (A) (A) (A) (A) (A) (A) (A)
                 (A) (A) (A) (A) (A) (A) (A) (A) (A) (A) (A) (A)
                 (A) (A) (A) (A) (A) (A) (A) (A) (A) (A) (A) (A)
                 (A) (A) (A) (A) (A) (A) (A) (A) (A) (A) (A) (A)
                 (A) (A) (A) (A) (A) (A) (A) (A) (A) (A) (A) (A)
                 (A) (A) (A) (A) (A) (A) (A) (A) (A) (A) (A) (A)
                 (A) (A) (A) (A) (A) (A) (A) (A) (A) (A) (A) (A)
                 (A) (A) (A) (A) (A) (A) (A) (A) (A) (A) (A) (A)
                 (A) (A) (A) (A) (A) (A) (A) (A) (A) (A) (A) (A)
                 (A) (A) (A) (A) (A) (A) (A) (A) (A) (A) (A) (A)
                 (A) (A) (A) (A) (A) (A) (A) (A) (A) (A) (A) (A)
                 (A) (A) (A) (A) (A) (A) (A) (A) (A) (A) (A) (A)
                 (A) (A) (A) (A) (A) (A) (A) (A) (A) (A) (A) (A)
                 (A) (A) (A) (A) (A) (A) (A) (A) (A) (A) (A) (A)
                 (A) (A) (A) (A) (A) (A) (A) (A) (A) (A) (A) (A)
                 (A) (A) (A) (A) (A) (A) (A) (A) (A) (A) (A) (A)
                 (A)
 The electronic state is 1-A.
 Alpha  occ. eigenvalues --  -24.71926 -19.15224 -10.35313 -10.21984  -1.25739
 Alpha  occ. eigenvalues --   -1.07637  -0.78940  -0.62397  -0.53595  -0.51911
 Alpha  occ. eigenvalues --   -0.50414  -0.43975  -0.43878  -0.41147  -0.37947
 Alpha  occ. eigenvalues --   -0.31975
 Alpha virt. eigenvalues --   -0.03635  -0.01986   0.01611   0.01713   0.02357
 Alpha virt. eigenvalues --    0.05841   0.06134   0.06813   0.07093   0.07934
 Alpha virt. eigenvalues --    0.07949   0.10309   0.10936   0.11958   0.15343
 Alpha virt. eigenvalues --    0.16111   0.16660   0.17130   0.20172   0.20932
 Alpha virt. eigenvalues --    0.21975   0.24557   0.25526   0.25640   0.26726
 Alpha virt. eigenvalues --    0.26814   0.28465   0.29516   0.29977   0.30967
 Alpha virt. eigenvalues --    0.31731   0.33081   0.33851   0.35030   0.37617
 Alpha virt. eigenvalues --    0.39674   0.40091   0.41540   0.42516   0.42965
 Alpha virt. eigenvalues --    0.49195   0.49837   0.53821   0.56995   0.59359
 Alpha virt. eigenvalues --    0.60282   0.60624   0.62915   0.64256   0.65979
 Alpha virt. eigenvalues --    0.67936   0.70160   0.71686   0.73384   0.73576
 Alpha virt. eigenvalues --    0.75222   0.79006   0.80035   0.82139   0.82963
 Alpha virt. eigenvalues --    0.84112   0.84931   0.86384   0.88149   0.89232
 Alpha virt. eigenvalues --    0.89265   0.92939   0.93801   0.94231   0.95573
 Alpha virt. eigenvalues --    0.98584   0.99062   1.00434   1.02133   1.06497
 Alpha virt. eigenvalues --    1.06895   1.08029   1.13057   1.13372   1.16567
 Alpha virt. eigenvalues --    1.20771   1.24065   1.24742   1.26978   1.27720
 Alpha virt. eigenvalues --    1.30185   1.35709   1.35995   1.38800   1.40022
 Alpha virt. eigenvalues --    1.41730   1.45358   1.48981   1.49285   1.50283
 Alpha virt. eigenvalues --    1.56458   1.56988   1.59438   1.60501   1.63605
 Alpha virt. eigenvalues --    1.71788   1.73318   1.82517   1.82606   1.87228
 Alpha virt. eigenvalues --    1.87348   1.94537   1.95480   2.01565   2.05237
 Alpha virt. eigenvalues --    2.06414   2.09873   2.15221   2.21638   2.22537
 Alpha virt. eigenvalues --    2.26674   2.30566   2.37400   2.39886   2.45252
 Alpha virt. eigenvalues --    2.47957   2.51610   2.54582   2.57203   2.64406
 Alpha virt. eigenvalues --    2.71800   2.72412   2.73361   2.80125   2.83948
 Alpha virt. eigenvalues --    2.85631   2.95982   2.97560   3.05943   3.08088
 Alpha virt. eigenvalues --    3.10700   3.13585   3.17034   3.21006   3.23004
 Alpha virt. eigenvalues --    3.29373   3.29750   3.35030   3.35487   3.42156
 Alpha virt. eigenvalues --    3.47537   3.48102   3.53043   3.54093   3.61560
 Alpha virt. eigenvalues --    3.63105   3.65955   3.67274   3.72258   3.73722
 Alpha virt. eigenvalues --    3.77754   3.80128   3.87626   3.90824   3.92852
 Alpha virt. eigenvalues --    3.95773   4.02909   4.12626   4.18862   4.27527
 Alpha virt. eigenvalues --    4.30218   4.34737   4.37621   4.38020   4.41373
 Alpha virt. eigenvalues --    4.50669   4.55981   4.62967   4.70784   4.75459
 Alpha virt. eigenvalues --    4.83243   4.87693   4.95622   5.03013   5.09512
 Alpha virt. eigenvalues --    5.12339   5.22662   5.29321   5.37221   5.50661
 Alpha virt. eigenvalues --    5.70439   5.72987   5.83248   6.14342   6.17886
 Alpha virt. eigenvalues --    6.23316   6.26119   6.45100   6.48205   6.70459
 Alpha virt. eigenvalues --    6.72922   6.74567   6.90891   6.99759   7.08076
 Alpha virt. eigenvalues --    7.18252   7.22940  13.94354  15.01464  16.79439
          Condensed to atoms (all electrons):
              1          2          3          4          5          6
     1  C    5.364248   0.393248   0.335432   0.393249   0.031744  -0.058897
     2  H    0.393248   0.405327  -0.004496   0.025432  -0.059015  -0.003156
     3  H    0.335432  -0.004496   0.406748  -0.004498   0.008742  -0.008088
     4  H    0.393249   0.025432  -0.004498   0.405332  -0.059018  -0.003156
     5  C    0.031744  -0.059015   0.008742  -0.059018   5.031311   0.424406
     6  O   -0.058897  -0.003156  -0.008088  -0.003156   0.424406   8.166004
     7  F    0.099025   0.013658  -0.003310   0.013656   0.173018  -0.041277
              7
     1  C    0.099025
     2  H    0.013658
     3  H   -0.003310
     4  H    0.013656
     5  C    0.173018
     6  O   -0.041277
     7  F    8.887635
 Mulliken atomic charges:
              1
     1  C   -0.558048
     2  H    0.229004
     3  H    0.269470
     4  H    0.229003
     5  C    0.448813
     6  O   -0.475836
     7  F   -0.142405
 Sum of Mulliken atomic charges =   0.00000
 Mulliken charges with hydrogens summed into heavy atoms:
              1
     1  C    0.169428
     5  C    0.448813
     6  O   -0.475836
     7  F   -0.142405
 Sum of Mulliken charges with hydrogens summed into heavy atoms =   0.00000
 Electronic spatial extent (au):  <R**2>=            244.5020
 Charge=              0.0000 electrons
 Dipole moment (field-independent basis, Debye):
    X=              3.2069    Y=              0.7812    Z=              0.0000  Tot=              3.3007
 Quadrupole moment (field-independent basis, Debye-Ang):
   XX=            -22.1455   YY=            -25.9376   ZZ=            -21.5723
   XY=             -0.9168   XZ=              0.0000   YZ=              0.0000
 Traceless Quadrupole moment (field-independent basis, Debye-Ang):
   XX=              1.0730   YY=             -2.7191   ZZ=              1.6461
   XY=             -0.9168   XZ=              0.0000   YZ=              0.0000
 Octapole moment (field-independent basis, Debye-Ang**2):
  XXX=             -1.3278  YYY=              5.7134  ZZZ=              0.0002  XYY=              1.2159
  XXY=              2.3494  XXZ=              0.0000  XZZ=             -1.4118  YZZ=              2.1714
  YYZ=             -0.0001  XYZ=              0.0000
 Hexadecapole moment (field-independent basis, Debye-Ang**3):
 XXXX=           -156.8383 YYYY=           -106.1108 ZZZZ=            -25.6789 XXXY=             -4.3923
 XXXZ=              0.0000 YYYX=             -6.0403 YYYZ=              0.0000 ZZZX=              0.0003
 ZZZY=              0.0000 XXYY=            -42.7478 XXZZ=            -28.9618 YYZZ=            -21.1694
 XXYZ=              0.0000 YYXZ=             -0.0003 ZZXY=              0.5882
 N-N= 1.187299102007D+02 E-N=-8.336181870223D+02  KE= 2.512555029028D+02
   1 Symmetry operations used in ECPInt.
 ECPInt:  NShTT=    2850 NPrTT=    8533 LenC2=    2851 LenP2D=    7590.
 LDataN:  DoStor=T MaxTD1= 7 Len=  274
 Calling FoFJK, ICntrl=      2127 FMM=F ISym2X=0 I1Cent= 0 IOpClX= 0 NMat=1 NMatS=1 NMatT=0.
 ***** Axes restored to original set *****
 -------------------------------------------------------------------
 Center     Atomic                   Forces (Hartrees/Bohr)
 Number     Number              X              Y              Z
 -------------------------------------------------------------------
      1        6           0.023920873   -0.005160954   -0.000001664
      2        1          -0.007756595   -0.001999605    0.005924966
      3        1          -0.008499731    0.007646729    0.000000750
      4        1          -0.007756229   -0.001998280   -0.005924392
      5        6          -0.027653832   -0.019344540    0.000000817
      6        8           0.021675625    0.000014633   -0.000000399
      7        9           0.006069889    0.020842017   -0.000000078
 -------------------------------------------------------------------
 Cartesian Forces:  Max     0.027653832 RMS     0.011968396

 GradGradGradGradGradGradGradGradGradGradGradGradGradGradGradGradGradGrad
 Berny optimization.
 Internal  Forces:  Max     0.025549949 RMS     0.009278322
 Search for a local minimum.
 Step number   1 out of a maximum of   31
 All quantities printed in internal units (Hartrees-Bohrs-Radians)
 Mixed Optimization -- RFO/linear search
 Second derivative matrix not updated -- first step.
     Eigenvalues ---    0.01013   0.01013   0.07158   0.07246   0.16000
     Eigenvalues ---    0.16000   0.16000   0.25000   0.25000   0.33250
     Eigenvalues ---    0.33251   0.33301   0.34415   0.55316   1.07825
     Eigenvalues --- 1000.000001000.000001000.000001000.000001000.00000
     Eigenvalues --- 1000.00000
 RFO step:  Lambda=-6.13880472D-03 EMin= 1.01256184D-02
 Linear search not attempted -- first point.
 Iteration  1 RMS(Cart)=  0.04556813 RMS(Int)=  0.00108748
 Iteration  2 RMS(Cart)=  0.00104317 RMS(Int)=  0.00031931
 Iteration  3 RMS(Cart)=  0.00000030 RMS(Int)=  0.00031931
 Variable       Old X    -DE/DX   Delta X   Delta X   Delta X     New X
                                 (Linear)    (Quad)   (Total)
    R1        2.08614  -0.00841   0.00000  -0.02484  -0.02484   2.06130
    R2        2.08526  -0.01052   0.00000  -0.03102  -0.03102   2.05424
    R3        2.08614  -0.00841   0.00000  -0.02483  -0.02483   2.06130
    R4        2.79936  -0.00020   0.00000  -0.00056  -0.00056   2.79880
    R5        2.25659  -0.01326   0.00000  -0.01223  -0.01223   2.24437
    R6        2.54852   0.01580   0.00000   0.02826   0.02826   2.57678
    A1        1.87183   0.00551   0.00000   0.03768   0.03752   1.90935
    A2        1.85536   0.00414   0.00000   0.01606   0.01508   1.87044
    A3        1.95980  -0.00533   0.00000  -0.03457  -0.03514   1.92466
    A4        1.87183   0.00551   0.00000   0.03768   0.03752   1.90935
    A5        1.93972  -0.00331   0.00000  -0.01501  -0.01518   1.92454
    A6        1.95980  -0.00533   0.00000  -0.03457  -0.03514   1.92465
    A7        2.29633  -0.01312   0.00000  -0.05123  -0.05123   2.24510
    A8        1.97489  -0.01243   0.00000  -0.04852  -0.04852   1.92637
    A9        2.01197   0.02555   0.00000   0.09975   0.09975   2.11172
    D1        2.09683   0.00109   0.00000   0.01403   0.01370   2.11053
    D2       -1.04477   0.00109   0.00000   0.01405   0.01371  -1.03106
    D3        0.00007   0.00000   0.00000  -0.00001  -0.00001   0.00006
    D4       -3.14153   0.00000   0.00000   0.00000   0.00000  -3.14153
    D5       -2.09668  -0.00109   0.00000  -0.01405  -0.01372  -2.11039
    D6        1.04491  -0.00109   0.00000  -0.01404  -0.01370   1.03120
         Item               Value     Threshold  Converged?
 Maximum Force            0.025550     0.000450     NO 
 RMS     Force            0.009278     0.000300     NO 
 Maximum Displacement     0.106210     0.001800     NO 
 RMS     Displacement     0.045737     0.001200     NO 
 Predicted change in Energy=-3.141961D-03
 GradGradGradGradGradGradGradGradGradGradGradGradGradGradGradGradGradGrad

                          Input orientation:                          
 ---------------------------------------------------------------------
 Center     Atomic      Atomic             Coordinates (Angstroms)
 Number     Number       Type             X           Y           Z
 ---------------------------------------------------------------------
      1          6           0        1.378399   -0.038815    0.000000
      2          1           0        1.721232    0.510587   -0.877755
      3          1           0        1.820775   -1.031789   -0.000067
      4          1           0        1.721235    0.510463    0.877831
      5          6           0       -0.099499   -0.135551    0.000001
      6          8           0       -0.778844   -1.109741   -0.000003
      7          9           0       -0.656670    1.108993    0.000000
 ---------------------------------------------------------------------
                    Distance matrix (angstroms):
                    1          2          3          4          5
     1  C    0.000000
     2  H    1.090793   0.000000
     3  H    1.087057   1.777404   0.000000
     4  H    1.090794   1.755586   1.777401   0.000000
     5  C    1.481060   2.122030   2.119125   2.122025   0.000000
     6  O    2.408439   3.105847   2.600787   3.105808   1.187668
     7  F    2.336444   2.604412   3.274245   2.604468   1.363573
                    6          7
     6  O    0.000000
     7  F    2.222096   0.000000
 Stoichiometry    C2H3FO
 Framework group  C1[X(C2H3FO)]
 Deg. of freedom    15
 Full point group                 C1      NOp   1
 Largest Abelian subgroup         C1      NOp   1
 Largest concise Abelian subgroup C1      NOp   1
                         Standard orientation:                         
 ---------------------------------------------------------------------
 Center     Atomic      Atomic             Coordinates (Angstroms)
 Number     Number       Type             X           Y           Z
 ---------------------------------------------------------------------
      1          6           0        1.353541   -0.039837    0.000000
      2          1           0        1.696204    0.509670   -0.877754
      3          1           0        1.796222   -1.032675   -0.000067
      4          1           0        1.696207    0.509547    0.877831
      5          6           0       -0.124327   -0.137030    0.000002
      6          8           0       -0.803372   -1.111429   -0.000003
      7          9           0       -0.681882    1.107343    0.000000
 ---------------------------------------------------------------------
 Rotational constants (GHZ):     10.8979313      9.8246978      5.3362203
 Basis read from rwf:  (5D, 7F)
 Pseudo-potential data read from rwf file.
 There are   221 symmetry adapted basis functions of A   symmetry.
 Integral buffers will be    262144 words long.
 Raffenetti 2 integral format.
 Two-electron integral symmetry is turned on.
   221 basis functions,   327 primitive gaussians,   255 cartesian basis functions
    16 alpha electrons       16 beta electrons
       nuclear repulsion energy       118.7247827615 Hartrees.
 NAtoms=    7 NActive=    7 NUniq=    7 SFac= 7.50D-01 NAtFMM=   80 NAOKFM=F Big=F
 One-electron integrals computed using PRISM.
   1 Symmetry operations used in ECPInt.
 ECPInt:  NShTT=    2850 NPrTT=    8533 LenC2=    2851 LenP2D=    7591.
 LDataN:  DoStor=T MaxTD1= 6 Len=  172
 NBasis=   221 RedAO= T  NBF=   221
 NBsUse=   221 1.00D-06 NBFU=   221
 Initial guess read from the read-write file.
 B after Tr=     0.000000    0.000000    0.000000
         Rot=    1.000000    0.000000    0.000000    0.000000 Ang=   0.00 deg.
 Initial guess orbital symmetries:
       Occupied  (A) (A) (A) (A) (A) (A) (A) (A) (A) (A) (A) (A)
                 (A) (A) (A) (A)
       Virtual   (A) (A) (A) (A) (A) (A) (A) (A) (A) (A) (A) (A)
                 (A) (A) (A) (A) (A) (A) (A) (A) (A) (A) (A) (A)
                 (A) (A) (A) (A) (A) (A) (A) (A) (A) (A) (A) (A)
                 (A) (A) (A) (A) (A) (A) (A) (A) (A) (A) (A) (A)
                 (A) (A) (A) (A) (A) (A) (A) (A) (A) (A) (A) (A)
                 (A) (A) (A) (A) (A) (A) (A) (A) (A) (A) (A) (A)
                 (A) (A) (A) (A) (A) (A) (A) (A) (A) (A) (A) (A)
                 (A) (A) (A) (A) (A) (A) (A) (A) (A) (A) (A) (A)
                 (A) (A) (A) (A) (A) (A) (A) (A) (A) (A) (A) (A)
                 (A) (A) (A) (A) (A) (A) (A) (A) (A) (A) (A) (A)
                 (A) (A) (A) (A) (A) (A) (A) (A) (A) (A) (A) (A)
                 (A) (A) (A) (A) (A) (A) (A) (A) (A) (A) (A) (A)
                 (A) (A) (A) (A) (A) (A) (A) (A) (A) (A) (A) (A)
                 (A) (A) (A) (A) (A) (A) (A) (A) (A) (A) (A) (A)
                 (A) (A) (A) (A) (A) (A) (A) (A) (A) (A) (A) (A)
                 (A) (A) (A) (A) (A) (A) (A) (A) (A) (A) (A) (A)
                 (A) (A) (A) (A) (A) (A) (A) (A) (A) (A) (A) (A)
                 (A)
 Harris functional with IExCor=  402 diagonalized for initial guess.
 ExpMin= 2.53D-02 ExpMax= 1.53D+04 ExpMxC= 9.59D+02 IAcc=3 IRadAn=         0 AccDes= 0.00D+00
 HarFok:  IExCor=  402 AccDes= 0.00D+00 IRadAn=         0 IDoV= 1
 ScaDFX=  1.000000  1.000000  1.000000  1.000000
 FoFCou: FMM=F IPFlag=           0 FMFlag=      100000 FMFlg1=           0
         NFxFlg=           0 DoJE=T BraDBF=F KetDBF=T FulRan=T
         Omega=  0.000000  0.000000  1.000000  0.000000  0.000000 ICntrl=     500 IOpCl=  0
         NMat0=    1 NMatS0=    1 NMatT0=    0 NMatD0=    1 NMtDS0=    0 NMtDT0=    0
         I1Cent=           4 NGrid=           0.
 Petite list used in FoFCou.
 Requested convergence on RMS density matrix=1.00D-08 within 128 cycles.
 Requested convergence on MAX density matrix=1.00D-06.
 Requested convergence on             energy=1.00D-06.
 No special actions if energy rises.
 SCF Done:  E(RB3LYP) =  -253.188720273     A.U. after   10 cycles
             Convg  =    0.2291D-08             -V/T =  2.0075
   1 Symmetry operations used in ECPInt.
 ECPInt:  NShTT=    2850 NPrTT=    8533 LenC2=    2851 LenP2D=    7591.
 LDataN:  DoStor=T MaxTD1= 7 Len=  274
 Calling FoFJK, ICntrl=      2127 FMM=F ISym2X=0 I1Cent= 0 IOpClX= 0 NMat=1 NMatS=1 NMatT=0.
 ***** Axes restored to original set *****
 -------------------------------------------------------------------
 Center     Atomic                   Forces (Hartrees/Bohr)
 Number     Number              X              Y              Z
 -------------------------------------------------------------------
      1        6           0.009924258   -0.001049546    0.000000051
      2        1          -0.001131735    0.000599666    0.000317806
      3        1          -0.001406710    0.000482644    0.000000225
      4        1          -0.001131527    0.000599839   -0.000317625
      5        6          -0.004845410   -0.012023031   -0.000001494
      6        8           0.002299607    0.010138620    0.000000510
      7        9          -0.003708483    0.001251807    0.000000527
 -------------------------------------------------------------------
 Cartesian Forces:  Max     0.012023031 RMS     0.004346414

 GradGradGradGradGradGradGradGradGradGradGradGradGradGradGradGradGradGrad
 Berny optimization.
 Using GEDIIS/GDIIS optimizer.
 Internal  Forces:  Max     0.009635152 RMS     0.003033896
 Search for a local minimum.
 Step number   2 out of a maximum of   31
 All quantities printed in internal units (Hartrees-Bohrs-Radians)
 Mixed Optimization -- RFO/linear search
 Update second derivatives using D2CorX and points    1    2
 DE= -2.84D-03 DEPred=-3.14D-03 R= 9.05D-01
 SS=  1.41D+00  RLast= 1.57D-01 DXNew= 5.0454D-01 4.7023D-01
 Trust test= 9.05D-01 RLast= 1.57D-01 DXMaxT set to 4.70D-01
 Use linear search instead of GDIIS.
     Eigenvalues ---    0.01013   0.01013   0.07462   0.07471   0.14910
     Eigenvalues ---    0.16000   0.16001   0.24961   0.29089   0.32097
     Eigenvalues ---    0.33251   0.33284   0.37795   0.53942   1.05686
     Eigenvalues --- 1000.000001000.000001000.000001000.000001000.00000
     Eigenvalues --- 1000.00000
 RFO step:  Lambda=-3.85112796D-04 EMin= 1.01256184D-02
 Quartic linear search produced a step of -0.05589.
 Iteration  1 RMS(Cart)=  0.00704021 RMS(Int)=  0.00005296
 Iteration  2 RMS(Cart)=  0.00005449 RMS(Int)=  0.00001273
 Iteration  3 RMS(Cart)=  0.00000000 RMS(Int)=  0.00001273
 Variable       Old X    -DE/DX   Delta X   Delta X   Delta X     New X
                                 (Linear)    (Quad)   (Total)
    R1        2.06130  -0.00031   0.00139  -0.00381  -0.00243   2.05887
    R2        2.05424  -0.00101   0.00173  -0.00652  -0.00479   2.04945
    R3        2.06130  -0.00031   0.00139  -0.00381  -0.00243   2.05888
    R4        2.79880   0.00628   0.00003   0.01714   0.01717   2.81597
    R5        2.24437  -0.00964   0.00068  -0.00988  -0.00920   2.23517
    R6        2.57678   0.00266  -0.00158   0.00789   0.00631   2.58309
    A1        1.90935   0.00136  -0.00210   0.01387   0.01177   1.92112
    A2        1.87044   0.00054  -0.00084   0.00170   0.00082   1.87126
    A3        1.92466  -0.00117   0.00196  -0.01184  -0.00990   1.91476
    A4        1.90935   0.00136  -0.00210   0.01387   0.01177   1.92112
    A5        1.92454  -0.00084   0.00085  -0.00515  -0.00430   1.92024
    A6        1.92465  -0.00117   0.00196  -0.01184  -0.00990   1.91476
    A7        2.24510   0.00341   0.00286   0.00682   0.00969   2.25479
    A8        1.92637   0.00199   0.00271   0.00177   0.00448   1.93085
    A9        2.11172  -0.00539  -0.00558  -0.00860  -0.01417   2.09755
    D1        2.11053   0.00039  -0.00077   0.00628   0.00550   2.11602
    D2       -1.03106   0.00039  -0.00077   0.00622   0.00543  -1.02563
    D3        0.00006   0.00000   0.00000   0.00002   0.00002   0.00008
    D4       -3.14153   0.00000   0.00000  -0.00004  -0.00004  -3.14157
    D5       -2.11039  -0.00039   0.00077  -0.00623  -0.00545  -2.11584
    D6        1.03120  -0.00039   0.00077  -0.00629  -0.00551   1.02569
         Item               Value     Threshold  Converged?
 Maximum Force            0.009635     0.000450     NO 
 RMS     Force            0.003034     0.000300     NO 
 Maximum Displacement     0.018333     0.001800     NO 
 RMS     Displacement     0.007033     0.001200     NO 
 Predicted change in Energy=-2.031695D-04
 GradGradGradGradGradGradGradGradGradGradGradGradGradGradGradGradGradGrad

                          Input orientation:                          
 ---------------------------------------------------------------------
 Center     Atomic      Atomic             Coordinates (Angstroms)
 Number     Number       Type             X           Y           Z
 ---------------------------------------------------------------------
      1          6           0        1.388101   -0.041922   -0.000004
      2          1           0        1.720137    0.512766   -0.876989
      3          1           0        1.824916   -1.034586   -0.000060
      4          1           0        1.720123    0.512653    0.877060
      5          6           0       -0.098891   -0.138858   -0.000017
      6          8           0       -0.785073   -1.102273    0.000000
      7          9           0       -0.662685    1.106366    0.000018
 ---------------------------------------------------------------------
                    Distance matrix (angstroms):
                    1          2          3          4          5
     1  C    0.000000
     2  H    1.089509   0.000000
     3  H    1.084524   1.781652   0.000000
     4  H    1.089510   1.754049   1.781648   0.000000
     5  C    1.490147   2.121923   2.122113   2.121919   0.000000
     6  O    2.418063   3.107014   2.610867   3.106964   1.182800
     7  F    2.350380   2.607555   3.282048   2.607579   1.366911
                    6          7
     6  O    0.000000
     7  F    2.212027   0.000000
 Stoichiometry    C2H3FO
 Framework group  C1[X(C2H3FO)]
 Deg. of freedom    15
 Full point group                 C1      NOp   1
 Largest Abelian subgroup         C1      NOp   1
 Largest concise Abelian subgroup C1      NOp   1
                         Standard orientation:                         
 ---------------------------------------------------------------------
 Center     Atomic      Atomic             Coordinates (Angstroms)
 Number     Number       Type             X           Y           Z
 ---------------------------------------------------------------------
      1          6           0        1.364829   -0.030648   -0.000005
      2          1           0        1.691694    0.527104   -0.876991
      3          1           0        1.810856   -1.019208   -0.000061
      4          1           0        1.691681    0.526990    0.877058
      5          6           0       -0.121196   -0.141405   -0.000019
      6          8           0       -0.798391   -1.111159   -0.000002
      7          9           0       -0.696545    1.098522    0.000017
 ---------------------------------------------------------------------
 Rotational constants (GHZ):     10.9855893      9.7045785      5.3209328
 Basis read from rwf:  (5D, 7F)
 Pseudo-potential data read from rwf file.
 There are   221 symmetry adapted basis functions of A   symmetry.
 Integral buffers will be    262144 words long.
 Raffenetti 2 integral format.
 Two-electron integral symmetry is turned on.
   221 basis functions,   327 primitive gaussians,   255 cartesian basis functions
    16 alpha electrons       16 beta electrons
       nuclear repulsion energy       118.6421736014 Hartrees.
 NAtoms=    7 NActive=    7 NUniq=    7 SFac= 7.50D-01 NAtFMM=   80 NAOKFM=F Big=F
 One-electron integrals computed using PRISM.
   1 Symmetry operations used in ECPInt.
 ECPInt:  NShTT=    2850 NPrTT=    8533 LenC2=    2851 LenP2D=    7587.
 LDataN:  DoStor=T MaxTD1= 6 Len=  172
 NBasis=   221 RedAO= T  NBF=   221
 NBsUse=   221 1.00D-06 NBFU=   221
 Initial guess read from the read-write file.
 B after Tr=     0.000000    0.000000    0.000000
         Rot=    1.000000    0.000000    0.000000    0.000000 Ang=   0.00 deg.
 Initial guess orbital symmetries:
       Occupied  (A) (A) (A) (A) (A) (A) (A) (A) (A) (A) (A) (A)
                 (A) (A) (A) (A)
       Virtual   (A) (A) (A) (A) (A) (A) (A) (A) (A) (A) (A) (A)
                 (A) (A) (A) (A) (A) (A) (A) (A) (A) (A) (A) (A)
                 (A) (A) (A) (A) (A) (A) (A) (A) (A) (A) (A) (A)
                 (A) (A) (A) (A) (A) (A) (A) (A) (A) (A) (A) (A)
                 (A) (A) (A) (A) (A) (A) (A) (A) (A) (A) (A) (A)
                 (A) (A) (A) (A) (A) (A) (A) (A) (A) (A) (A) (A)
                 (A) (A) (A) (A) (A) (A) (A) (A) (A) (A) (A) (A)
                 (A) (A) (A) (A) (A) (A) (A) (A) (A) (A) (A) (A)
                 (A) (A) (A) (A) (A) (A) (A) (A) (A) (A) (A) (A)
                 (A) (A) (A) (A) (A) (A) (A) (A) (A) (A) (A) (A)
                 (A) (A) (A) (A) (A) (A) (A) (A) (A) (A) (A) (A)
                 (A) (A) (A) (A) (A) (A) (A) (A) (A) (A) (A) (A)
                 (A) (A) (A) (A) (A) (A) (A) (A) (A) (A) (A) (A)
                 (A) (A) (A) (A) (A) (A) (A) (A) (A) (A) (A) (A)
                 (A) (A) (A) (A) (A) (A) (A) (A) (A) (A) (A) (A)
                 (A) (A) (A) (A) (A) (A) (A) (A) (A) (A) (A) (A)
                 (A) (A) (A) (A) (A) (A) (A) (A) (A) (A) (A) (A)
                 (A)
 Requested convergence on RMS density matrix=1.00D-08 within 128 cycles.
 Requested convergence on MAX density matrix=1.00D-06.
 Requested convergence on             energy=1.00D-06.
 No special actions if energy rises.
 SCF Done:  E(RB3LYP) =  -253.188968893     A.U. after    9 cycles
             Convg  =    0.3925D-08             -V/T =  2.0075
   1 Symmetry operations used in ECPInt.
 ECPInt:  NShTT=    2850 NPrTT=    8533 LenC2=    2851 LenP2D=    7587.
 LDataN:  DoStor=T MaxTD1= 7 Len=  274
 Calling FoFJK, ICntrl=      2127 FMM=F ISym2X=0 I1Cent= 0 IOpClX= 0 NMat=1 NMatS=1 NMatT=0.
 ***** Axes restored to original set *****
 -------------------------------------------------------------------
 Center     Atomic                   Forces (Hartrees/Bohr)
 Number     Number              X              Y              Z
 -------------------------------------------------------------------
      1        6           0.001723801    0.000694875   -0.000002212
      2        1          -0.000164708    0.000330447   -0.000325810
      3        1          -0.000215417   -0.000508519   -0.000000166
      4        1          -0.000165768    0.000330462    0.000325723
      5        6          -0.000449130   -0.004657585    0.000006928
      6        8           0.000203076    0.002133279   -0.000002671
      7        9          -0.000931855    0.001677042   -0.000001792
 -------------------------------------------------------------------
 Cartesian Forces:  Max     0.004657585 RMS     0.001280112

 GradGradGradGradGradGradGradGradGradGradGradGradGradGradGradGradGradGrad
 Berny optimization.
 Using GEDIIS/GDIIS optimizer.
 Internal  Forces:  Max     0.001915867 RMS     0.000790999
 Search for a local minimum.
 Step number   3 out of a maximum of   31
 All quantities printed in internal units (Hartrees-Bohrs-Radians)
 Mixed Optimization -- En-DIIS/RFO-DIIS
 Update second derivatives using D2CorX and points    1    2    3
 DE= -2.49D-04 DEPred=-2.03D-04 R= 1.22D+00
 SS=  1.41D+00  RLast= 3.72D-02 DXNew= 7.9083D-01 1.1147D-01
 Trust test= 1.22D+00 RLast= 3.72D-02 DXMaxT set to 4.70D-01
 Use linear search instead of GDIIS.
     Eigenvalues ---    0.01013   0.01013   0.07517   0.07560   0.13459
     Eigenvalues ---    0.16000   0.16010   0.24199   0.28792   0.33251
     Eigenvalues ---    0.33281   0.33716   0.34176   0.52280   1.02975
     Eigenvalues --- 1000.000001000.000001000.000001000.000001000.00000
     Eigenvalues --- 1000.00000
 RFO step:  Lambda=-2.07765382D-05 EMin= 1.01256181D-02
 Quartic linear search produced a step of  0.27666.
 Iteration  1 RMS(Cart)=  0.00302345 RMS(Int)=  0.00001667
 Iteration  2 RMS(Cart)=  0.00001303 RMS(Int)=  0.00001185
 Iteration  3 RMS(Cart)=  0.00000000 RMS(Int)=  0.00001185
 Variable       Old X    -DE/DX   Delta X   Delta X   Delta X     New X
                                 (Linear)    (Quad)   (Total)
    R1        2.05887   0.00038  -0.00067   0.00153   0.00085   2.05973
    R2        2.04945   0.00038  -0.00132   0.00197   0.00064   2.05010
    R3        2.05888   0.00038  -0.00067   0.00152   0.00085   2.05973
    R4        2.81597   0.00123   0.00475   0.00049   0.00524   2.82121
    R5        2.23517  -0.00186  -0.00255  -0.00031  -0.00286   2.23231
    R6        2.58309   0.00192   0.00175   0.00355   0.00530   2.58838
    A1        1.92112   0.00040   0.00326   0.00126   0.00451   1.92563
    A2        1.87126   0.00021   0.00023   0.00140   0.00159   1.87284
    A3        1.91476  -0.00028  -0.00274  -0.00065  -0.00341   1.91135
    A4        1.92112   0.00040   0.00326   0.00126   0.00451   1.92563
    A5        1.92024  -0.00043  -0.00119  -0.00251  -0.00370   1.91654
    A6        1.91476  -0.00028  -0.00274  -0.00067  -0.00343   1.91133
    A7        2.25479   0.00148   0.00268   0.00423   0.00691   2.26170
    A8        1.93085  -0.00055   0.00124  -0.00489  -0.00365   1.92720
    A9        2.09755  -0.00093  -0.00392   0.00065  -0.00327   2.09428
    D1        2.11602   0.00004   0.00152  -0.00066   0.00085   2.11687
    D2       -1.02563   0.00004   0.00150  -0.00025   0.00124  -1.02439
    D3        0.00008   0.00000   0.00001  -0.00020  -0.00020  -0.00011
    D4       -3.14157   0.00000  -0.00001   0.00020   0.00019  -3.14137
    D5       -2.11584  -0.00004  -0.00151   0.00026  -0.00124  -2.11708
    D6        1.02569  -0.00004  -0.00152   0.00067  -0.00085   1.02485
         Item               Value     Threshold  Converged?
 Maximum Force            0.001916     0.000450     NO 
 RMS     Force            0.000791     0.000300     NO 
 Maximum Displacement     0.006557     0.001800     NO 
 RMS     Displacement     0.003021     0.001200     NO 
 Predicted change in Energy=-2.318039D-05
 GradGradGradGradGradGradGradGradGradGradGradGradGradGradGradGradGradGrad

                          Input orientation:                          
 ---------------------------------------------------------------------
 Center     Atomic      Atomic             Coordinates (Angstroms)
 Number     Number       Type             X           Y           Z
 ---------------------------------------------------------------------
      1          6           0        1.391152   -0.042274    0.000014
      2          1           0        1.718617    0.514614   -0.877858
      3          1           0        1.826310   -1.036040   -0.000085
      4          1           0        1.718699    0.514470    0.877946
      5          6           0       -0.098420   -0.142217    0.000094
      6          8           0       -0.788543   -1.100952   -0.000041
      7          9           0       -0.661186    1.106546   -0.000063
 ---------------------------------------------------------------------
                    Distance matrix (angstroms):
                    1          2          3          4          5
     1  C    0.000000
     2  H    1.089961   0.000000
     3  H    1.084865   1.785108   0.000000
     4  H    1.089962   1.755804   1.785105   0.000000
     5  C    1.492921   2.122227   2.122146   2.122212   0.000000
     6  O    2.423194   3.109094   2.615658   3.109133   1.181288
     7  F    2.351995   2.604682   3.283033   2.604862   1.369714
                    6          7
     6  O    0.000000
     7  F    2.211168   0.000000
 Stoichiometry    C2H3FO
 Framework group  C1[X(C2H3FO)]
 Deg. of freedom    15
 Full point group                 C1      NOp   1
 Largest Abelian subgroup         C1      NOp   1
 Largest concise Abelian subgroup C1      NOp   1
                         Standard orientation:                         
 ---------------------------------------------------------------------
 Center     Atomic      Atomic             Coordinates (Angstroms)
 Number     Number       Type             X           Y           Z
 ---------------------------------------------------------------------
      1          6           0        1.367551   -0.037349    0.000022
      2          1           0        1.692530    0.520994   -0.877850
      3          1           0        1.807133   -1.029165   -0.000077
      4          1           0        1.692613    0.520850    0.877954
      5          6           0       -0.121561   -0.143929    0.000101
      6          8           0       -0.807404   -1.105730   -0.000033
      7          9           0       -0.689887    1.102314   -0.000055
 ---------------------------------------------------------------------
 Rotational constants (GHZ):     10.9858006      9.6795871      5.3138074
 Basis read from rwf:  (5D, 7F)
 Pseudo-potential data read from rwf file.
 There are   221 symmetry adapted basis functions of A   symmetry.
 Integral buffers will be    262144 words long.
 Raffenetti 2 integral format.
 Two-electron integral symmetry is turned on.
   221 basis functions,   327 primitive gaussians,   255 cartesian basis functions
    16 alpha electrons       16 beta electrons
       nuclear repulsion energy       118.5726423668 Hartrees.
 NAtoms=    7 NActive=    7 NUniq=    7 SFac= 7.50D-01 NAtFMM=   80 NAOKFM=F Big=F
 One-electron integrals computed using PRISM.
   1 Symmetry operations used in ECPInt.
 ECPInt:  NShTT=    2850 NPrTT=    8533 LenC2=    2851 LenP2D=    7587.
 LDataN:  DoStor=T MaxTD1= 6 Len=  172
 NBasis=   221 RedAO= T  NBF=   221
 NBsUse=   221 1.00D-06 NBFU=   221
 Initial guess read from the read-write file.
 B after Tr=     0.000000    0.000000    0.000000
         Rot=    1.000000    0.000000    0.000000    0.000000 Ang=   0.00 deg.
 Initial guess orbital symmetries:
       Occupied  (A) (A) (A) (A) (A) (A) (A) (A) (A) (A) (A) (A)
                 (A) (A) (A) (A)
       Virtual   (A) (A) (A) (A) (A) (A) (A) (A) (A) (A) (A) (A)
                 (A) (A) (A) (A) (A) (A) (A) (A) (A) (A) (A) (A)
                 (A) (A) (A) (A) (A) (A) (A) (A) (A) (A) (A) (A)
                 (A) (A) (A) (A) (A) (A) (A) (A) (A) (A) (A) (A)
                 (A) (A) (A) (A) (A) (A) (A) (A) (A) (A) (A) (A)
                 (A) (A) (A) (A) (A) (A) (A) (A) (A) (A) (A) (A)
                 (A) (A) (A) (A) (A) (A) (A) (A) (A) (A) (A) (A)
                 (A) (A) (A) (A) (A) (A) (A) (A) (A) (A) (A) (A)
                 (A) (A) (A) (A) (A) (A) (A) (A) (A) (A) (A) (A)
                 (A) (A) (A) (A) (A) (A) (A) (A) (A) (A) (A) (A)
                 (A) (A) (A) (A) (A) (A) (A) (A) (A) (A) (A) (A)
                 (A) (A) (A) (A) (A) (A) (A) (A) (A) (A) (A) (A)
                 (A) (A) (A) (A) (A) (A) (A) (A) (A) (A) (A) (A)
                 (A) (A) (A) (A) (A) (A) (A) (A) (A) (A) (A) (A)
                 (A) (A) (A) (A) (A) (A) (A) (A) (A) (A) (A) (A)
                 (A) (A) (A) (A) (A) (A) (A) (A) (A) (A) (A) (A)
                 (A) (A) (A) (A) (A) (A) (A) (A) (A) (A) (A) (A)
                 (A)
 Requested convergence on RMS density matrix=1.00D-08 within 128 cycles.
 Requested convergence on MAX density matrix=1.00D-06.
 Requested convergence on             energy=1.00D-06.
 No special actions if energy rises.
 SCF Done:  E(RB3LYP) =  -253.188994410     A.U. after    8 cycles
             Convg  =    0.6136D-08             -V/T =  2.0075
   1 Symmetry operations used in ECPInt.
 ECPInt:  NShTT=    2850 NPrTT=    8533 LenC2=    2851 LenP2D=    7587.
 LDataN:  DoStor=T MaxTD1= 7 Len=  274
 Calling FoFJK, ICntrl=      2127 FMM=F ISym2X=0 I1Cent= 0 IOpClX= 0 NMat=1 NMatS=1 NMatT=0.
 ***** Axes restored to original set *****
 -------------------------------------------------------------------
 Center     Atomic                   Forces (Hartrees/Bohr)
 Number     Number              X              Y              Z
 -------------------------------------------------------------------
      1        6          -0.000357420    0.000323496    0.000014858
      2        1          -0.000010910   -0.000059852   -0.000012830
      3        1           0.000168116   -0.000064588    0.000001128
      4        1          -0.000004121   -0.000059548    0.000012842
      5        6           0.000685226   -0.001206651   -0.000044748
      6        8          -0.000118070    0.000085459    0.000016443
      7        9          -0.000362821    0.000981684    0.000012307
 -------------------------------------------------------------------
 Cartesian Forces:  Max     0.001206651 RMS     0.000397444

 GradGradGradGradGradGradGradGradGradGradGradGradGradGradGradGradGradGrad
 Berny optimization.
 Using GEDIIS/GDIIS optimizer.
 Internal  Forces:  Max     0.001048206 RMS     0.000254139
 Search for a local minimum.
 Step number   4 out of a maximum of   31
 All quantities printed in internal units (Hartrees-Bohrs-Radians)
 Mixed Optimization -- En-DIIS/RFO-DIIS
 Swaping is turned off.
 Update second derivatives using D2CorX and points    1    2    3    4
 DE= -2.55D-05 DEPred=-2.32D-05 R= 1.10D+00
 SS=  1.41D+00  RLast= 1.49D-02 DXNew= 7.9083D-01 4.4721D-02
 Trust test= 1.10D+00 RLast= 1.49D-02 DXMaxT set to 4.70D-01
     Eigenvalues ---    0.01013   0.01013   0.07554   0.07657   0.13421
     Eigenvalues ---    0.16000   0.16344   0.21646   0.28752   0.33218
     Eigenvalues ---    0.33251   0.33753   0.34848   0.49504   1.06110
     Eigenvalues --- 1000.000001000.000001000.000001000.000001000.00000
     Eigenvalues --- 1000.00000
 En-DIIS/RFO-DIIS IScMMF=        0 using points:     4    3
 RFO step:  Lambda=-2.27602865D-06.
 DIIS coeffs:      1.16788     -0.16788
 Iteration  1 RMS(Cart)=  0.00117193 RMS(Int)=  0.00000184
 Iteration  2 RMS(Cart)=  0.00000170 RMS(Int)=  0.00000069
 Iteration  3 RMS(Cart)=  0.00000000 RMS(Int)=  0.00000069
 Variable       Old X    -DE/DX   Delta X   Delta X   Delta X     New X
                                  (DIIS)     (GDIIS)  (Total)
    R1        2.05973  -0.00003   0.00014  -0.00027  -0.00013   2.05960
    R2        2.05010   0.00013   0.00011   0.00022   0.00033   2.05042
    R3        2.05973  -0.00002   0.00014  -0.00026  -0.00012   2.05961
    R4        2.82121  -0.00020   0.00088  -0.00077   0.00011   2.82132
    R5        2.23231   0.00000  -0.00048   0.00004  -0.00044   2.23187
    R6        2.58838   0.00105   0.00089   0.00185   0.00274   2.59112
    A1        1.92563  -0.00008   0.00076  -0.00074   0.00001   1.92565
    A2        1.87284   0.00004   0.00027   0.00029   0.00056   1.87340
    A3        1.91135  -0.00003  -0.00057  -0.00014  -0.00071   1.91064
    A4        1.92563  -0.00008   0.00076  -0.00076   0.00000   1.92563
    A5        1.91654   0.00017  -0.00062   0.00137   0.00075   1.91729
    A6        1.91133  -0.00002  -0.00058  -0.00005  -0.00063   1.91070
    A7        2.26170   0.00030   0.00116   0.00083   0.00199   2.26369
    A8        1.92720  -0.00025  -0.00061  -0.00079  -0.00140   1.92580
    A9        2.09428  -0.00005  -0.00055  -0.00004  -0.00059   2.09369
    D1        2.11687   0.00000   0.00014   0.00096   0.00110   2.11797
    D2       -1.02439  -0.00002   0.00021  -0.00129  -0.00108  -1.02547
    D3       -0.00011   0.00001  -0.00003   0.00110   0.00107   0.00095
    D4       -3.14137  -0.00001   0.00003  -0.00115  -0.00112   3.14070
    D5       -2.11708   0.00002  -0.00021   0.00120   0.00099  -2.11609
    D6        1.02485   0.00000  -0.00014  -0.00105  -0.00119   1.02366
         Item               Value     Threshold  Converged?
 Maximum Force            0.001048     0.000450     NO 
 RMS     Force            0.000254     0.000300     YES
 Maximum Displacement     0.002913     0.001800     NO 
 RMS     Displacement     0.001172     0.001200     YES
 Predicted change in Energy=-2.062042D-06
 GradGradGradGradGradGradGradGradGradGradGradGradGradGradGradGradGradGrad

                          Input orientation:                          
 ---------------------------------------------------------------------
 Center     Atomic      Atomic             Coordinates (Angstroms)
 Number     Number       Type             X           Y           Z
 ---------------------------------------------------------------------
      1          6           0        1.391363   -0.042504   -0.000085
      2          1           0        1.718087    0.514546   -0.878046
      3          1           0        1.827851   -1.035874    0.000074
      4          1           0        1.717630    0.514606    0.878012
      5          6           0       -0.098216   -0.143227   -0.000527
      6          8           0       -0.789612   -1.100755    0.000159
      7          9           0       -0.660475    1.107355    0.000420
 ---------------------------------------------------------------------
                    Distance matrix (angstroms):
                    1          2          3          4          5
     1  C    0.000000
     2  H    1.089894   0.000000
     3  H    1.085037   1.785202   0.000000
     4  H    1.089898   1.756058   1.785193   0.000000
     5  C    1.492980   2.121712   2.122864   2.121762   0.000000
     6  O    2.424159   3.109501   2.618267   3.109065   1.181054
     7  F    2.352066   2.603975   3.284082   2.603249   1.371164
                    6          7
     6  O    0.000000
     7  F    2.211882   0.000000
 Stoichiometry    C2H3FO
 Framework group  C1[X(C2H3FO)]
 Deg. of freedom    15
 Full point group                 C1      NOp   1
 Largest Abelian subgroup         C1      NOp   1
 Largest concise Abelian subgroup C1      NOp   1
                         Standard orientation:                         
 ---------------------------------------------------------------------
 Center     Atomic      Atomic             Coordinates (Angstroms)
 Number     Number       Type             X           Y           Z
 ---------------------------------------------------------------------
      1          6           0        1.367719   -0.038900    0.000083
      2          1           0        1.692609    0.519164   -0.877914
      3          1           0        1.807708   -1.030725    0.000461
      4          1           0        1.691887    0.519492    0.878144
      5          6           0       -0.121495   -0.144877   -0.000568
      6          8           0       -0.809510   -1.104837    0.000162
      7          9           0       -0.688162    1.103714    0.000103
 ---------------------------------------------------------------------
 Rotational constants (GHZ):     10.9777498      9.6770779      5.3112179
 Basis read from rwf:  (5D, 7F)
 Pseudo-potential data read from rwf file.
 There are   221 symmetry adapted basis functions of A   symmetry.
 Integral buffers will be    262144 words long.
 Raffenetti 2 integral format.
 Two-electron integral symmetry is turned on.
   221 basis functions,   327 primitive gaussians,   255 cartesian basis functions
    16 alpha electrons       16 beta electrons
       nuclear repulsion energy       118.5436193713 Hartrees.
 NAtoms=    7 NActive=    7 NUniq=    7 SFac= 7.50D-01 NAtFMM=   80 NAOKFM=F Big=F
 One-electron integrals computed using PRISM.
   1 Symmetry operations used in ECPInt.
 ECPInt:  NShTT=    2850 NPrTT=    8533 LenC2=    2851 LenP2D=    7587.
 LDataN:  DoStor=T MaxTD1= 6 Len=  172
 NBasis=   221 RedAO= T  NBF=   221
 NBsUse=   221 1.00D-06 NBFU=   221
 Initial guess read from the read-write file.
 B after Tr=     0.000000    0.000000    0.000000
         Rot=    1.000000    0.000000    0.000000    0.000000 Ang=   0.00 deg.
 Initial guess orbital symmetries:
       Occupied  (A) (A) (A) (A) (A) (A) (A) (A) (A) (A) (A) (A)
                 (A) (A) (A) (A)
       Virtual   (A) (A) (A) (A) (A) (A) (A) (A) (A) (A) (A) (A)
                 (A) (A) (A) (A) (A) (A) (A) (A) (A) (A) (A) (A)
                 (A) (A) (A) (A) (A) (A) (A) (A) (A) (A) (A) (A)
                 (A) (A) (A) (A) (A) (A) (A) (A) (A) (A) (A) (A)
                 (A) (A) (A) (A) (A) (A) (A) (A) (A) (A) (A) (A)
                 (A) (A) (A) (A) (A) (A) (A) (A) (A) (A) (A) (A)
                 (A) (A) (A) (A) (A) (A) (A) (A) (A) (A) (A) (A)
                 (A) (A) (A) (A) (A) (A) (A) (A) (A) (A) (A) (A)
                 (A) (A) (A) (A) (A) (A) (A) (A) (A) (A) (A) (A)
                 (A) (A) (A) (A) (A) (A) (A) (A) (A) (A) (A) (A)
                 (A) (A) (A) (A) (A) (A) (A) (A) (A) (A) (A) (A)
                 (A) (A) (A) (A) (A) (A) (A) (A) (A) (A) (A) (A)
                 (A) (A) (A) (A) (A) (A) (A) (A) (A) (A) (A) (A)
                 (A) (A) (A) (A) (A) (A) (A) (A) (A) (A) (A) (A)
                 (A) (A) (A) (A) (A) (A) (A) (A) (A) (A) (A) (A)
                 (A) (A) (A) (A) (A) (A) (A) (A) (A) (A) (A) (A)
                 (A) (A) (A) (A) (A) (A) (A) (A) (A) (A) (A) (A)
                 (A)
 Requested convergence on RMS density matrix=1.00D-08 within 128 cycles.
 Requested convergence on MAX density matrix=1.00D-06.
 Requested convergence on             energy=1.00D-06.
 No special actions if energy rises.
 SCF Done:  E(RB3LYP) =  -253.188996862     A.U. after    7 cycles
             Convg  =    0.8544D-08             -V/T =  2.0075
   1 Symmetry operations used in ECPInt.
 ECPInt:  NShTT=    2850 NPrTT=    8533 LenC2=    2851 LenP2D=    7587.
 LDataN:  DoStor=T MaxTD1= 7 Len=  274
 Calling FoFJK, ICntrl=      2127 FMM=F ISym2X=0 I1Cent= 0 IOpClX= 0 NMat=1 NMatS=1 NMatT=0.
 ***** Axes restored to original set *****
 -------------------------------------------------------------------
 Center     Atomic                   Forces (Hartrees/Bohr)
 Number     Number              X              Y              Z
 -------------------------------------------------------------------
      1        6          -0.000454773    0.000110952   -0.000080115
      2        1           0.000058010   -0.000029294   -0.000011700
      3        1           0.000084683    0.000012829   -0.000006175
      4        1           0.000020950   -0.000030450    0.000010804
      5        6           0.000467994   -0.000391746    0.000244451
      6        8          -0.000058743   -0.000063500   -0.000090238
      7        9          -0.000118121    0.000391208   -0.000067028
 -------------------------------------------------------------------
 Cartesian Forces:  Max     0.000467994 RMS     0.000202145

 GradGradGradGradGradGradGradGradGradGradGradGradGradGradGradGradGradGrad
 Berny optimization.
 Using GEDIIS/GDIIS optimizer.
 Internal  Forces:  Max     0.000409429 RMS     0.000123561
 Search for a local minimum.
 Step number   5 out of a maximum of   31
 All quantities printed in internal units (Hartrees-Bohrs-Radians)
 Mixed Optimization -- En-DIIS/RFO-DIIS
 Swaping is turned off.
 Update second derivatives using D2CorX and points    1    2    3    4    5
 DE= -2.45D-06 DEPred=-2.06D-06 R= 1.19D+00
 SS=  1.41D+00  RLast= 4.80D-03 DXNew= 7.9083D-01 1.4414D-02
 Trust test= 1.19D+00 RLast= 4.80D-03 DXMaxT set to 4.70D-01
     Eigenvalues ---    0.01013   0.01205   0.07549   0.07696   0.13250
     Eigenvalues ---    0.15425   0.16203   0.17677   0.28536   0.33241
     Eigenvalues ---    0.33284   0.33673   0.36735   0.39980   1.04480
     Eigenvalues --- 1000.000001000.000001000.000001000.000001000.00000
     Eigenvalues --- 1000.00000
 En-DIIS/RFO-DIIS IScMMF=        0 using points:     5    4    3
 RFO step:  Lambda=-8.53836974D-07.
 DIIS coeffs:      1.02916      0.11173     -0.14089
 Iteration  1 RMS(Cart)=  0.00175515 RMS(Int)=  0.00000711
 Iteration  2 RMS(Cart)=  0.00000632 RMS(Int)=  0.00000354
 Iteration  3 RMS(Cart)=  0.00000000 RMS(Int)=  0.00000354
 Variable       Old X    -DE/DX   Delta X   Delta X   Delta X     New X
                                  (DIIS)     (GDIIS)  (Total)
    R1        2.05960   0.00001   0.00012  -0.00014  -0.00002   2.05958
    R2        2.05042   0.00003   0.00010   0.00019   0.00029   2.05072
    R3        2.05961   0.00000   0.00012  -0.00017  -0.00005   2.05956
    R4        2.82132  -0.00029   0.00074  -0.00110  -0.00036   2.82097
    R5        2.23187   0.00008  -0.00042   0.00003  -0.00039   2.23148
    R6        2.59112   0.00041   0.00083   0.00187   0.00269   2.59382
    A1        1.92565  -0.00008   0.00064  -0.00089  -0.00026   1.92539
    A2        1.87340  -0.00002   0.00024   0.00021   0.00045   1.87385
    A3        1.91064   0.00007  -0.00050   0.00029  -0.00021   1.91043
    A4        1.92563  -0.00006   0.00064  -0.00083  -0.00019   1.92543
    A5        1.91729   0.00008  -0.00050   0.00121   0.00071   1.91800
    A6        1.91070   0.00001  -0.00050  -0.00002  -0.00053   1.91018
    A7        2.26369   0.00008   0.00103   0.00094   0.00196   2.26565
    A8        1.92580  -0.00012  -0.00055  -0.00088  -0.00144   1.92436
    A9        2.09369   0.00004  -0.00048  -0.00005  -0.00053   2.09316
    D1        2.11797  -0.00006   0.00015  -0.00416  -0.00401   2.11396
    D2       -1.02547   0.00004   0.00014   0.00400   0.00415  -1.02132
    D3        0.00095  -0.00006   0.00000  -0.00402  -0.00401  -0.00306
    D4        3.14070   0.00005  -0.00001   0.00415   0.00414  -3.13835
    D5       -2.11609  -0.00004  -0.00015  -0.00375  -0.00389  -2.11998
    D6        1.02366   0.00007  -0.00015   0.00442   0.00427   1.02792
         Item               Value     Threshold  Converged?
 Maximum Force            0.000409     0.000450     YES
 RMS     Force            0.000124     0.000300     YES
 Maximum Displacement     0.004383     0.001800     NO 
 RMS     Displacement     0.001757     0.001200     NO 
 Predicted change in Energy=-1.790822D-06
 GradGradGradGradGradGradGradGradGradGradGradGradGradGradGradGradGradGrad

                          Input orientation:                          
 ---------------------------------------------------------------------
 Center     Atomic      Atomic             Coordinates (Angstroms)
 Number     Number       Type             X           Y           Z
 ---------------------------------------------------------------------
      1          6           0        1.391367   -0.042668    0.000286
      2          1           0        1.716382    0.514923   -0.877951
      3          1           0        1.829196   -1.035617   -0.000513
      4          1           0        1.717940    0.514238    0.878366
      5          6           0       -0.097964   -0.144233    0.001792
      6          8           0       -0.790571   -1.100627   -0.000602
      7          9           0       -0.659723    1.108132   -0.001371
 ---------------------------------------------------------------------
                    Distance matrix (angstroms):
                    1          2          3          4          5
     1  C    0.000000
     2  H    1.089882   0.000000
     3  H    1.085192   1.785160   0.000000
     4  H    1.089871   1.756317   1.785177   0.000000
     5  C    1.492791   2.121387   2.123327   2.121196   0.000000
     6  O    2.424899   3.108787   2.620574   3.110145   1.180848
     7  F    2.351875   2.601184   3.284871   2.603829   1.372589
                    6          7
     6  O    0.000000
     7  F    2.212632   0.000000
 Stoichiometry    C2H3FO
 Framework group  C1[X(C2H3FO)]
 Deg. of freedom    15
 Full point group                 C1      NOp   1
 Largest Abelian subgroup         C1      NOp   1
 Largest concise Abelian subgroup C1      NOp   1
                         Standard orientation:                         
 ---------------------------------------------------------------------
 Center     Atomic      Atomic             Coordinates (Angstroms)
 Number     Number       Type             X           Y           Z
 ---------------------------------------------------------------------
      1          6           0       -1.367663   -0.040563    0.000288
      2          1           0       -1.690852    0.518237    0.878430
      3          1           0       -1.807933   -1.032431    0.001779
      4          1           0       -1.693317    0.516734   -0.877885
      5          6           0        0.121413   -0.145792   -0.001936
      6          8           0        0.811666   -1.103887    0.000552
      7          9           0        0.686253    1.105188    0.000350
 ---------------------------------------------------------------------
 Rotational constants (GHZ):     10.9694540      9.6765616      5.3091765
 Basis read from rwf:  (5D, 7F)
 Pseudo-potential data read from rwf file.
 There are   221 symmetry adapted basis functions of A   symmetry.
 Integral buffers will be    262144 words long.
 Raffenetti 2 integral format.
 Two-electron integral symmetry is turned on.
   221 basis functions,   327 primitive gaussians,   255 cartesian basis functions
    16 alpha electrons       16 beta electrons
       nuclear repulsion energy       118.5188903694 Hartrees.
 NAtoms=    7 NActive=    7 NUniq=    7 SFac= 7.50D-01 NAtFMM=   80 NAOKFM=F Big=F
 One-electron integrals computed using PRISM.
   1 Symmetry operations used in ECPInt.
 ECPInt:  NShTT=    2850 NPrTT=    8533 LenC2=    2851 LenP2D=    7587.
 LDataN:  DoStor=T MaxTD1= 6 Len=  172
 NBasis=   221 RedAO= T  NBF=   221
 NBsUse=   221 1.00D-06 NBFU=   221
 Initial guess read from the read-write file.
 B after Tr=     0.000000    0.000000    0.000000
         Rot=    1.000000    0.000000    0.000000    0.000000 Ang=   0.00 deg.
 Initial guess orbital symmetries:
       Occupied  (A) (A) (A) (A) (A) (A) (A) (A) (A) (A) (A) (A)
                 (A) (A) (A) (A)
       Virtual   (A) (A) (A) (A) (A) (A) (A) (A) (A) (A) (A) (A)
                 (A) (A) (A) (A) (A) (A) (A) (A) (A) (A) (A) (A)
                 (A) (A) (A) (A) (A) (A) (A) (A) (A) (A) (A) (A)
                 (A) (A) (A) (A) (A) (A) (A) (A) (A) (A) (A) (A)
                 (A) (A) (A) (A) (A) (A) (A) (A) (A) (A) (A) (A)
                 (A) (A) (A) (A) (A) (A) (A) (A) (A) (A) (A) (A)
                 (A) (A) (A) (A) (A) (A) (A) (A) (A) (A) (A) (A)
                 (A) (A) (A) (A) (A) (A) (A) (A) (A) (A) (A) (A)
                 (A) (A) (A) (A) (A) (A) (A) (A) (A) (A) (A) (A)
                 (A) (A) (A) (A) (A) (A) (A) (A) (A) (A) (A) (A)
                 (A) (A) (A) (A) (A) (A) (A) (A) (A) (A) (A) (A)
[...]
     1   6     0.00   0.00   0.00    -0.07   0.20   0.00     0.00   0.00  -0.01
     2   1    -0.01  -0.50  -0.32    -0.34   0.38   0.01     0.57  -0.02   0.20
     3   1     0.00   0.00   0.53     0.41   0.41   0.00     0.00   0.00   0.36
     4   1     0.01   0.50  -0.32    -0.34   0.38  -0.01    -0.57   0.02   0.20
     5   6     0.00   0.00   0.01    -0.03  -0.16   0.00     0.00   0.00  -0.34
     6   8     0.00   0.00  -0.05    -0.17  -0.06   0.00     0.00   0.00   0.12
     7   9     0.00   0.00   0.04     0.22  -0.04   0.00     0.00   0.00   0.08
                     4                      5                      6
                     A                      A                      A
 Frequencies --   596.1059               821.7324              1002.4133
 Red. masses --     8.0703                 6.4447                 1.9685
 Frc consts  --     1.6896                 2.5640                 1.1654
 IR Inten    --    17.1992                74.0003                49.6286
  Atom  AN      X      Y      Z        X      Y      Z        X      Y      Z
     1   6     0.38   0.06   0.00    -0.34   0.05   0.00     0.09   0.17   0.00
     2   1     0.34   0.07  -0.01    -0.17  -0.08  -0.02     0.52  -0.20  -0.07
     3   1     0.50   0.10   0.00    -0.73  -0.12   0.00    -0.52  -0.12   0.00
     4   1     0.34   0.07   0.01    -0.17  -0.08   0.02     0.52  -0.20   0.07
     5   6     0.17  -0.02   0.00     0.03   0.24   0.00    -0.15   0.06   0.00
     6   8    -0.30   0.32   0.00     0.12   0.21   0.00    -0.05  -0.10   0.00
     7   9    -0.16  -0.31   0.00     0.15  -0.35   0.00     0.06  -0.03   0.00
                     7                      8                      9
                     A                      A                      A
 Frequencies --  1072.0000              1184.4748              1402.8527
 Red. masses --     1.7833                 3.0309                 1.2887
 Frc consts  --     1.2074                 2.5054                 1.4943
 IR Inten    --     8.8929               191.1528                31.5500
  Atom  AN      X      Y      Z        X      Y      Z        X      Y      Z
     1   6     0.00   0.00   0.17    -0.10   0.14   0.00     0.15   0.01   0.00
     2   1    -0.59  -0.12  -0.15     0.06  -0.24  -0.16    -0.56  -0.01  -0.27
     3   1     0.00   0.00  -0.38    -0.79  -0.17   0.00    -0.40  -0.23   0.00
     4   1     0.59   0.12  -0.15     0.06  -0.24   0.16    -0.56  -0.01   0.27
     5   6     0.00   0.00  -0.20     0.28  -0.24   0.00    -0.03   0.03   0.00
     6   8     0.00   0.00   0.04    -0.04   0.04   0.00     0.00  -0.01   0.00
     7   9     0.00   0.00   0.02    -0.04   0.07   0.00     0.00  -0.01   0.00
                    10                     11                     12
                     A                      A                      A
 Frequencies --  1468.8766              1475.3421              1904.8041
 Red. masses --     1.0476                 1.0447                12.1850
 Frc consts  --     1.3317                 1.3398                26.0480
 IR Inten    --    14.9309                 7.9698               309.4748
  Atom  AN      X      Y      Z        X      Y      Z        X      Y      Z
     1   6     0.03  -0.04   0.00     0.00   0.00  -0.05    -0.07  -0.03   0.00
     2   1     0.06   0.50   0.35    -0.35   0.34   0.05    -0.12  -0.07  -0.07
     3   1    -0.43  -0.23   0.00     0.00   0.00   0.72     0.16   0.11   0.00
     4   1     0.06   0.50  -0.35     0.35  -0.34   0.05    -0.12  -0.07   0.07
     5   6     0.02   0.00   0.00     0.00   0.00  -0.03     0.53   0.59   0.00
     6   8    -0.01  -0.01   0.00     0.00   0.00   0.00    -0.32  -0.42   0.00
     7   9     0.00   0.00   0.00     0.00   0.00   0.00    -0.02   0.00   0.00
                    13                     14                     15
                     A                      A                      A
 Frequencies --  3054.7515              3112.2585              3160.6542
 Red. masses --     1.0362                 1.0994                 1.1034
 Frc consts  --     5.6971                 6.2742                 6.4946
 IR Inten    --     0.1348                 1.0934                 2.8913
  Atom  AN      X      Y      Z        X      Y      Z        X      Y      Z
     1   6     0.05   0.02   0.00     0.00   0.00   0.09     0.02  -0.09   0.00
     2   1    -0.19  -0.32   0.52     0.22   0.37  -0.56     0.09   0.14  -0.24
     3   1    -0.17   0.39   0.00     0.00   0.00   0.02    -0.37   0.83   0.00
     4   1    -0.19  -0.32  -0.52    -0.22  -0.37  -0.56     0.09   0.14   0.24
     5   6     0.00   0.00   0.00     0.00   0.00   0.00     0.00   0.00   0.00
     6   8     0.00   0.00   0.00     0.00   0.00   0.00     0.00   0.00   0.00
     7   9     0.00   0.00   0.00     0.00   0.00   0.00     0.00   0.00   0.00

 -------------------
 - Thermochemistry -
 -------------------
 Temperature   298.150 Kelvin.  Pressure   1.00000 Atm.
 Atom     1 has atomic number  6 and mass  12.00000
 Atom     2 has atomic number  1 and mass   1.00783
 Atom     3 has atomic number  1 and mass   1.00783
 Atom     4 has atomic number  1 and mass   1.00783
 Atom     5 has atomic number  6 and mass  12.00000
 Atom     6 has atomic number  8 and mass  15.99491
 Atom     7 has atomic number  9 and mass  18.99840
 Molecular mass:    62.01679 amu.
 Principal axes and moments of inertia in atomic units:
                           1         2         3
     Eigenvalues --   164.49881 186.42894 339.82834
           X            0.99598   0.08959   0.00000
           Y           -0.08959   0.99598  -0.00002
           Z            0.00000   0.00002   1.00000
 This molecule is an asymmetric top.
 Rotational symmetry number  1.
 Rotational temperatures (Kelvin)      0.52653     0.46459     0.25488
 Rotational constants (GHZ):          10.97115     9.68059     5.31074
 Zero-point vibrational energy     127772.9 (Joules/Mol)
                                   30.53846 (Kcal/Mol)
 Warning -- explicit consideration of   4 degrees of freedom as
           vibrations may cause significant error
 Vibrational temperatures:    174.74   594.61   821.49   857.66  1182.29
          (Kelvin)           1442.25  1542.37  1704.19  2018.39  2113.38
                             2122.69  2740.58  4395.10  4477.84  4547.47
 
 Zero-point correction=                           0.048666 (Hartree/Particle)
 Thermal correction to Energy=                    0.053002
 Thermal correction to Enthalpy=                  0.053946
 Thermal correction to Gibbs Free Energy=         0.021853
 Sum of electronic and zero-point Energies=           -253.140332
 Sum of electronic and thermal Energies=              -253.135995
 Sum of electronic and thermal Enthalpies=            -253.135051
 Sum of electronic and thermal Free Energies=         -253.167145
 
                     E (Thermal)             CV                S
                      KCal/Mol        Cal/Mol-Kelvin    Cal/Mol-Kelvin
 Total                   33.259             13.266             67.547
 Electronic               0.000              0.000              0.000
 Translational            0.889              2.981             38.294
 Rotational               0.889              2.981             23.859
 Vibrational             31.482              7.304              5.394
 Vibration     1          0.609              1.931              3.077
 Vibration     2          0.777              1.441              0.915
 Vibration     3          0.927              1.094              0.502
 Vibration     4          0.954              1.040              0.456
                       Q            Log10(Q)             Ln(Q)
 Total Bot       0.888180D-10        -10.051499        -23.144432
 Total V=0       0.215436D+13         12.333317         28.398513
 Vib (Bot)       0.126610D-21        -21.897533        -50.420932
 Vib (Bot)    1  0.168204D+01          0.225837          0.520010
 Vib (Bot)    2  0.427043D+00         -0.369528         -0.850871
 Vib (Bot)    3  0.269297D+00         -0.569769         -1.311941
 Vib (Bot)    4  0.251495D+00         -0.599471         -1.380333
 Vib (V=0)       0.307103D+01          0.487284          1.122013
 Vib (V=0)    1  0.225479D+01          0.353105          0.813055
 Vib (V=0)    2  0.115755D+01          0.063538          0.146302
 Vib (V=0)    3  0.106791D+01          0.028534          0.065703
 Vib (V=0)    4  0.105969D+01          0.025178          0.057974
 Electronic      0.100000D+01          0.000000          0.000000
 Translational   0.191964D+08          7.283219         16.770232
 Rotational      0.365438D+05          4.562814         10.506268
 ***** Axes restored to original set *****
 -------------------------------------------------------------------
 Center     Atomic                   Forces (Hartrees/Bohr)
 Number     Number              X              Y              Z
 -------------------------------------------------------------------
      1        6          -0.000024969   -0.000011082    0.000000752
      2        1          -0.000000382    0.000007948    0.000006525
      3        1           0.000009146    0.000002879    0.000000025
      4        1          -0.000000165    0.000008015   -0.000006658
      5        6           0.000007947   -0.000017273   -0.000001790
      6        8           0.000025034    0.000008898    0.000000608
      7        9          -0.000016612    0.000000615    0.000000539
 -------------------------------------------------------------------
 Cartesian Forces:  Max     0.000025034 RMS     0.000010692

 GradGradGradGradGradGradGradGradGradGradGradGradGradGradGradGradGradGrad
 Berny optimization.
 Internal  Forces:  Max     0.000025100 RMS     0.000008857
 Search for a local minimum.
 Step number   1 out of a maximum of    2
 All quantities printed in internal units (Hartrees-Bohrs-Radians)
 Second derivative matrix not updated -- analytic derivatives used.
     Eigenvalues ---    0.00102   0.05045   0.05495   0.05659   0.12408
     Eigenvalues ---    0.12784   0.14037   0.17799   0.25022   0.32631
     Eigenvalues ---    0.33781   0.33784   0.34409   0.35356   0.96601
     Eigenvalues --- 1000.000001000.000001000.000001000.000001000.00000
     Eigenvalues --- 1000.00000
 Angle between quadratic step and forces=  47.88 degrees.
 Linear search not attempted -- first point.
 Iteration  1 RMS(Cart)=  0.00004869 RMS(Int)=  0.00000000
 Iteration  2 RMS(Cart)=  0.00000000 RMS(Int)=  0.00000000
 Variable       Old X    -DE/DX   Delta X   Delta X   Delta X     New X
                                 (Linear)    (Quad)   (Total)
    R1        2.05963   0.00000   0.00000   0.00000   0.00000   2.05963
    R2        2.05056   0.00000   0.00000   0.00001   0.00001   2.05056
    R3        2.05963   0.00000   0.00000   0.00000   0.00000   2.05963
    R4        2.82012  -0.00002   0.00000  -0.00007  -0.00007   2.82005
    R5        2.23180  -0.00003   0.00000  -0.00002  -0.00002   2.23178
    R6        2.59282   0.00001   0.00000   0.00003   0.00003   2.59285
    A1        1.92490   0.00000   0.00000   0.00000   0.00000   1.92490
    A2        1.87349  -0.00001   0.00000  -0.00011  -0.00011   1.87338
    A3        1.91099   0.00000   0.00000   0.00004   0.00004   1.91103
    A4        1.92490   0.00000   0.00000   0.00001   0.00001   1.92490
    A5        1.91803   0.00000   0.00000   0.00003   0.00003   1.91806
    A6        1.91099   0.00000   0.00000   0.00004   0.00004   1.91103
    A7        2.26475  -0.00001   0.00000  -0.00006  -0.00006   2.26469
    A8        1.92491   0.00002   0.00000   0.00007   0.00007   1.92498
    A9        2.09353   0.00000   0.00000  -0.00001  -0.00001   2.09352
    D1        2.11682   0.00000   0.00000   0.00001   0.00001   2.11684
    D2       -1.02476   0.00000   0.00000   0.00000   0.00000  -1.02476
    D3        0.00003   0.00000   0.00000  -0.00003  -0.00003   0.00000
    D4       -3.14155   0.00000   0.00000  -0.00004  -0.00004  -3.14159
    D5       -2.11676   0.00000   0.00000  -0.00008  -0.00008  -2.11683
    D6        1.02485   0.00000   0.00000  -0.00009  -0.00009   1.02476
         Item               Value     Threshold  Converged?
 Maximum Force            0.000025     0.000450     YES
 RMS     Force            0.000009     0.000300     YES
 Maximum Displacement     0.000100     0.001800     YES
 RMS     Displacement     0.000049     0.001200     YES
 Predicted change in Energy=-2.955671D-09
 Optimization completed.
    -- Stationary point found.
                           ----------------------------
                           !   Optimized Parameters   !
                           ! (Angstroms and Degrees)  !
 --------------------------                            --------------------------
 ! Name  Definition              Value          Derivative Info.                !
 --------------------------------------------------------------------------------
 ! R1    R(1,2)                  1.0899         -DE/DX =    0.0                 !
 ! R2    R(1,3)                  1.0851         -DE/DX =    0.0                 !
 ! R3    R(1,4)                  1.0899         -DE/DX =    0.0                 !
 ! R4    R(1,5)                  1.4923         -DE/DX =    0.0                 !
 ! R5    R(5,6)                  1.181          -DE/DX =    0.0                 !
 ! R6    R(5,7)                  1.3721         -DE/DX =    0.0                 !
 ! A1    A(2,1,3)              110.2887         -DE/DX =    0.0                 !
 ! A2    A(2,1,4)              107.3432         -DE/DX =    0.0                 !
 ! A3    A(2,1,5)              109.4917         -DE/DX =    0.0                 !
 ! A4    A(3,1,4)              110.2884         -DE/DX =    0.0                 !
 ! A5    A(3,1,5)              109.8949         -DE/DX =    0.0                 !
 ! A6    A(4,1,5)              109.4914         -DE/DX =    0.0                 !
 ! A7    A(1,5,6)              129.7604         -DE/DX =    0.0                 !
 ! A8    A(1,5,7)              110.2891         -DE/DX =    0.0                 !
 ! A9    A(6,5,7)              119.9505         -DE/DX =    0.0                 !
 ! D1    D(2,1,5,6)            121.285          -DE/DX =    0.0                 !
 ! D2    D(2,1,5,7)            -58.7144         -DE/DX =    0.0                 !
 ! D3    D(3,1,5,6)              0.0016         -DE/DX =    0.0                 !
 ! D4    D(3,1,5,7)           -179.9977         -DE/DX =    0.0                 !
 ! D5    D(4,1,5,6)           -121.2812         -DE/DX =    0.0                 !
 ! D6    D(4,1,5,7)             58.7194         -DE/DX =    0.0                 !
 --------------------------------------------------------------------------------
 GradGradGradGradGradGradGradGradGradGradGradGradGradGradGradGradGradGrad

 1|1|UNPC-WST-PGHS-014|Freq|RB3LYP|GenECP|C2H3F1O1|214584429|25-Mar-201
 5|0||#N Geom=AllCheck Guess=TCheck SCRF=Check GenChk RB3LYP/GenECP Fre
 q||gen calculation FAc-C H O=aug-cc-pvtz/F=dgdzvp||0,1|C,1.3909216408,
 -0.0425341711,-0.0000004259|H,1.7175524667,0.5144797246,-0.8780371481|
 H,1.8285555554,-1.0354766374,-0.000054871|H,1.7175553665,0.5143792988,
 0.8780997396|C,-0.0979837319,-0.1437842087,0.0000009688|O,-0.790000760
 1,-1.100818057,-0.000020484|F,-0.6599725374,1.1079010509,0.0000189706|
 |Version=IA32W-G09RevA.02|State=1-A|HF=-253.1889977|RMSD=1.116e-009|RM
 SF=1.069e-005|ZeroPoint=0.0486661|Thermal=0.0530023|Dipole=1.1690604,0
 .2425021,0.0000096|DipoleDeriv=-0.2828115,-0.0445904,0.0000032,-0.1256
 52,-0.0071161,-0.0000066,-0.0000209,0.0000167,0.0495685,0.0502742,-0.0
 086894,0.0022493,0.0103682,0.0715857,0.0578659,0.0331874,0.060049,0.01
 33186,0.0380533,0.0186434,0.0000012,0.0558156,-0.0255595,-0.0000053,0.
 0000056,-0.0000057,0.0914034,0.0502735,-0.0087007,-0.0022502,0.0103703
 ,0.0715865,-0.0578655,-0.0331762,-0.060061,0.0133077,1.4686946,0.03471
 93,0.0000118,-0.0353544,1.9025127,0.0000392,-0.0000017,0.0000225,0.322
 3188,-0.7775769,-0.3862204,-0.0000166,-0.1878206,-0.9131387,-0.0000208
 ,0.0000003,-0.0000102,-0.3163975,-0.5469072,0.3948383,0.0000012,0.2722
 728,-1.0998705,-0.0000069,0.0000054,-0.0000113,-0.1735196|Polar=33.281
 9641,2.170533,32.3730822,0.0005201,0.0005909,23.6984083|PG=C01 [X(C2H3
 F1O1)]|NImag=0||0.48182235,-0.02402565,0.60515643,-0.00000198,0.000001
 33,0.53024506,-0.06965375,-0.03675075,0.06660455,0.07517415,-0.0368935
 9,-0.11388362,0.11293685,0.04472249,0.12053854,0.06591663,0.11186105,-
 0.21621685,-0.07117982,-0.12211207,0.23498088,-0.09198769,0.09548138,0
 .00000551,0.00433259,-0.00997029,-0.00181095,0.10008833,0.10353221,-0.
 28194579,-0.00001254,0.00532833,-0.01192935,-0.00129853,-0.11018882,0.
 30116332,0.00000611,-0.00001266,-0.04807105,-0.01202706,0.02283613,0.0
 0156470,-0.00000615,0.00001401,0.04579559,-0.06965410,-0.03674394,-0.0
 6660976,0.00339907,0.00605459,0.00832957,0.00433277,0.00532695,0.01202
 762,0.07517465,-0.03688631,-0.11385709,-0.11292380,0.00605579,0.008579
 68,0.01354320,-0.00997046,-0.01192729,-0.02283778,0.04471476,0.1205097
 9,-0.06592097,-0.11184892,-0.21624154,-0.00832893,-0.01354014,-0.02113
 814,0.00180992,0.00129678,0.00156212,0.07118566,0.12209812,0.23500786,
 -0.20316552,-0.00045431,0.00000125,-0.00868770,-0.00416919,0.00035269,
 -0.01110459,-0.00221977,-0.00000030,-0.00868812,-0.00416930,-0.0003534
 2,0.75242159,-0.00179081,-0.07220878,-0.00000060,-0.02089085,-0.004688
 32,0.00066162,0.03334823,0.00063485,0.00000008,-0.02088709,-0.00468767
 ,-0.00066103,0.30745827,0.76572088,0.,0.00000048,-0.09375839,0.0334014
 7,0.00008245,0.00130706,0.00000193,0.00000041,-0.00316123,-0.03340386,
 -0.00008318,0.00130732,0.00000750,0.00001173,0.22340403,-0.02444134,-0
 .04133749,-0.00000075,-0.00535299,-0.00087465,-0.00166653,0.00303511,-
 0.00048427,0.00000001,-0.00535261,-0.00087490,0.00166629,-0.39327791,-
 0.34506957,-0.00000777,0.38775058,-0.01635675,-0.00722421,-0.00000071,
 -0.00002908,0.00180353,-0.00148089,-0.00181472,0.00145302,0.00000015,-
 0.00002948,0.00180308,0.00148079,-0.37131096,-0.54670632,-0.00001059,0
 .39983884,0.66070764,-0.00000022,-0.00000111,0.02961275,-0.00520057,-0
 .00007546,-0.00102219,-0.00000023,0.00000005,-0.00031546,0.00520083,0.
 00007592,-0.00102221,-0.00000852,-0.00001054,-0.07536773,0.00000884,0.
 00001358,0.02813127,-0.02291996,0.04383076,0.00000118,0.00078863,0.001
 13065,0.00005841,-0.00869652,-0.00129463,-0.00000024,0.00078834,0.0011
 3042,-0.00005855,-0.12749775,0.04783183,0.00000073,0.03763916,-0.01029
 785,-0.00000012,0.11989811,0.01242091,-0.01603694,-0.00000052,0.001564
 08,-0.00042045,-0.00117438,0.00311467,0.00255124,0.00000006,0.00156421
 ,-0.00042048,0.00117440,0.07486526,-0.13806463,-0.00000131,-0.01119795
 ,-0.11183674,-0.00000243,-0.08233118,0.26422800,0.00000042,-0.00000016
 ,0.01443002,-0.00326964,-0.00012775,0.00052455,-0.00000002,-0.00000018
 ,0.00262533,0.00326993,0.00012752,0.00052459,0.00000081,-0.00000127,-0
 .05373106,-0.00000009,-0.00000232,0.01998356,-0.00000141,0.00000417,0.
 01564302||0.00002497,0.00001108,-0.00000075,0.00000038,-0.00000795,-0.
 00000652,-0.00000915,-0.00000288,-0.00000002,0.00000016,-0.00000802,0.
 00000666,-0.00000795,0.00001727,0.00000179,-0.00002503,-0.00000890,-0.
 00000061,0.00001661,-0.00000062,-0.00000054|||@


 Where a calculator on the ENIAC is equipped with 18,000
 vacuum tubes and weighs 30 tons, computers inthe future
 may  have only 1,000 vacuum tubes and weigh only 1 1/2 tons.
              ---Popular Mechanics, March 1949
 Job cpu time:  0 days  0 hours 25 minutes 56.0 seconds.
 File lengths (MBytes):  RWF=     37 Int=      0 D2E=      0 Chk=      4 Scr=      1
 Normal termination of Gaussian 09 at Wed Mar 25 16:38:00 2015.
