 Entering Link 1 = C:\G09W\l1.exe PID=      5212.
  
 Copyright (c) 1988,1990,1992,1993,1995,1998,2003,2009, Gaussian, Inc.
                  All Rights Reserved.
  
 This is part of the Gaussian(R) 09 program.  It is based on
 the Gaussian(R) 03 system (copyright 2003, Gaussian, Inc.),
 the Gaussian(R) 98 system (copyright 1998, Gaussian, Inc.),
 the Gaussian(R) 94 system (copyright 1995, Gaussian, Inc.),
 the Gaussian 92(TM) system (copyright 1992, Gaussian, Inc.),
 the Gaussian 90(TM) system (copyright 1990, Gaussian, Inc.),
 the Gaussian 88(TM) system (copyright 1988, Gaussian, Inc.),
 the Gaussian 86(TM) system (copyright 1986, Carnegie Mellon
 University), and the Gaussian 82(TM) system (copyright 1983,
 Carnegie Mellon University). Gaussian is a federally registered
 trademark of Gaussian, Inc.
  
 This software contains proprietary and confidential information,
 including trade secrets, belonging to Gaussian, Inc.
  
 This software is provided under written license and may be
 used, copied, transmitted, or stored only in accord with that
 written license.
  
 The following legend is applicable only to US Government
 contracts under FAR:
  
                    RESTRICTED RIGHTS LEGEND
  
 Use, reproduction and disclosure by the US Government is
 subject to restrictions as set forth in subparagraphs (a)
 and (c) of the Commercial Computer Software - Restricted
 Rights clause in FAR 52.227-19.
  
 Gaussian, Inc.
 340 Quinnipiac St., Bldg. 40, Wallingford CT 06492
  
  
 ---------------------------------------------------------------
 Warning -- This program may not be used in any manner that
 competes with the business of Gaussian, Inc. or will provide
 assistance to any competitor of Gaussian, Inc.  The licensee
 of this program is prohibited from giving any competitor of
 Gaussian, Inc. access to this program.  By using this program,
 the user acknowledges that Gaussian, Inc. is engaged in the
 business of creating and licensing software in the field of
 computational chemistry and represents and warrants to the
 licensee that it is not a competitor of Gaussian, Inc. and that
 it will not use this program in any manner prohibited above.
 ---------------------------------------------------------------
  

 Cite this work as:
 Gaussian 09, Revision A.02,
 M. J. Frisch, G. W. Trucks, H. B. Schlegel, G. E. Scuseria, 
 M. A. Robb, J. R. Cheeseman, G. Scalmani, V. Barone, B. Mennucci, 
 G. A. Petersson, H. Nakatsuji, M. Caricato, X. Li, H. P. Hratchian, 
 A. F. Izmaylov, J. Bloino, G. Zheng, J. L. Sonnenberg, M. Hada, 
 M. Ehara, K. Toyota, R. Fukuda, J. Hasegawa, M. Ishida, T. Nakajima, 
 Y. Honda, O. Kitao, H. Nakai, T. Vreven, J. A. Montgomery, Jr., 
 J. E. Peralta, F. Ogliaro, M. Bearpark, J. J. Heyd, E. Brothers, 
 K. N. Kudin, V. N. Staroverov, R. Kobayashi, J. Normand, 
 K. Raghavachari, A. Rendell, J. C. Burant, S. S. Iyengar, J. Tomasi, 
 M. Cossi, N. Rega, J. M. Millam, M. Klene, J. E. Knox, J. B. Cross, 
 V. Bakken, C. Adamo, J. Jaramillo, R. Gomperts, R. E. Stratmann, 
 O. Yazyev, A. J. Austin, R. Cammi, C. Pomelli, J. W. Ochterski, 
 R. L. Martin, K. Morokuma, V. G. Zakrzewski, G. A. Voth, 
 P. Salvador, J. J. Dannenberg, S. Dapprich, A. D. Daniels, 
 O. Farkas, J. B. Foresman, J. V. Ortiz, J. Cioslowski, 
 and D. J. Fox, Gaussian, Inc., Wallingford CT, 2009.
 
 ******************************************
 Gaussian 09:  IA32W-G09RevA.02 11-Jun-2009
                25-Mar-2015 
 ******************************************
 %chk=C:\Users\LawalM\Desktop\RCOF\fac-ccpvtz.chk
 ----------------------------------------------
 # opt freq b3lyp/aug-cc-pvtz geom=connectivity
 ----------------------------------------------
 1/14=-1,18=20,19=15,26=3,38=1,57=2/1,3;
 2/9=110,12=2,17=6,18=5,40=1/2;
 3/5=16,6=1,7=10,11=2,16=1,25=1,30=1,71=1,74=-5/1,2,3;
 4//1;
 5/5=2,38=5/2;
 6/7=2,8=2,9=2,10=2,28=1/1;
 7//1,2,3,16;
 1/14=-1,18=20,19=15/3(2);
 2/9=110/2;
 99//99;
 2/9=110/2;
 3/5=16,6=1,7=10,11=2,16=1,25=1,30=1,71=1,74=-5/1,2,3;
 4/5=5,16=3/1;
 5/5=2,38=5/2;
 7//1,2,3,16;
 1/14=-1,18=20,19=15/3(-5);
 2/9=110/2;
 6/7=2,8=2,9=2,10=2,19=2,28=1/1;
 99/9=1/99;
 -----------
 clac-ccpvtz
 -----------
 Symbolic Z-matrix:
 Charge =  0 Multiplicity = 1
 C                     1.37869  -0.03125   0. 
 H                     1.7614    0.50902  -0.88336 
 H                     1.84595  -1.03091  -0.00007 
 H                     1.76139   0.50889   0.88344 
 C                    -0.09921  -0.13237  0. 
 O                    -0.82872  -1.07777   0. 
 F                    -0.71287   1.06854   0. 
 

 GradGradGradGradGradGradGradGradGradGradGradGradGradGradGradGradGradGrad
 Berny optimization.
 Initialization pass.
                           ----------------------------
                           !    Initial Parameters    !
                           ! (Angstroms and Degrees)  !
 --------------------------                            --------------------------
 ! Name  Definition              Value          Derivative Info.                !
 --------------------------------------------------------------------------------
 ! R1    R(1,2)                  1.1039         estimate D2E/DX2                !
 ! R2    R(1,3)                  1.1035         estimate D2E/DX2                !
 ! R3    R(1,4)                  1.1039         estimate D2E/DX2                !
 ! R4    R(1,5)                  1.4814         estimate D2E/DX2                !
 ! R5    R(5,6)                  1.1941         estimate D2E/DX2                !
 ! R6    R(5,7)                  1.3486         estimate D2E/DX2                !
 ! A1    A(2,1,3)              107.2481         estimate D2E/DX2                !
 ! A2    A(2,1,4)              106.3041         estimate D2E/DX2                !
 ! A3    A(2,1,5)              112.2884         estimate D2E/DX2                !
 ! A4    A(3,1,4)              107.2479         estimate D2E/DX2                !
 ! A5    A(3,1,5)              111.1378         estimate D2E/DX2                !
 ! A6    A(4,1,5)              112.288          estimate D2E/DX2                !
 ! A7    A(1,5,6)              131.57           estimate D2E/DX2                !
 ! A8    A(1,5,7)              113.1526         estimate D2E/DX2                !
 ! A9    A(6,5,7)              115.2773         estimate D2E/DX2                !
 ! D1    D(2,1,5,6)            120.1395         estimate D2E/DX2                !
 ! D2    D(2,1,5,7)            -59.861          estimate D2E/DX2                !
 ! D3    D(3,1,5,6)              0.0042         estimate D2E/DX2                !
 ! D4    D(3,1,5,7)           -179.9964         estimate D2E/DX2                !
 ! D5    D(4,1,5,6)           -120.1306         estimate D2E/DX2                !
 ! D6    D(4,1,5,7)             59.8688         estimate D2E/DX2                !
 --------------------------------------------------------------------------------
 Trust Radius=3.00D-01 FncErr=1.00D-07 GrdErr=1.00D-06
 Number of steps in this run=  31 maximum allowed number of steps= 100.
 GradGradGradGradGradGradGradGradGradGradGradGradGradGradGradGradGradGrad

                          Input orientation:                          
 ---------------------------------------------------------------------
 Center     Atomic      Atomic             Coordinates (Angstroms)
 Number     Number       Type             X           Y           Z
 ---------------------------------------------------------------------
      1          6           0        1.378693   -0.031247    0.000000
      2          1           0        1.761395    0.509015   -0.883364
      3          1           0        1.845953   -1.030909   -0.000068
      4          1           0        1.761393    0.508889    0.883441
      5          6           0       -0.099208   -0.132373   -0.000003
      6          8           0       -0.828724   -1.077768    0.000001
      7          9           0       -0.712874    1.068540    0.000001
 ---------------------------------------------------------------------
                    Distance matrix (angstroms):
                    1          2          3          4          5
     1  C    0.000000
     2  H    1.103937   0.000000
     3  H    1.103475   1.777281   0.000000
     4  H    1.103936   1.766805   1.777278   0.000000
     5  C    1.481357   2.157209   2.142666   2.157203   0.000000
     6  O    2.442928   3.163373   2.675087   3.163329   1.194138
     7  F    2.363088   2.686151   3.309876   2.686200   1.348621
                    6          7
     6  O    0.000000
     7  F    2.149432   0.000000
 Stoichiometry    C2H3FO
 Framework group  C1[X(C2H3FO)]
 Deg. of freedom    15
 Full point group                 C1      NOp   1
 Largest Abelian subgroup         C1      NOp   1
 Largest concise Abelian subgroup C1      NOp   1
                         Standard orientation:                         
 ---------------------------------------------------------------------
 Center     Atomic      Atomic             Coordinates (Angstroms)
 Number     Number       Type             X           Y           Z
 ---------------------------------------------------------------------
      1          6           0        1.378693   -0.031247    0.000000
      2          1           0        1.761395    0.509015   -0.883364
      3          1           0        1.845953   -1.030909   -0.000068
      4          1           0        1.761393    0.508889    0.883441
      5          6           0       -0.099208   -0.132373   -0.000003
      6          8           0       -0.828724   -1.077767    0.000000
      7          9           0       -0.712873    1.068541    0.000000
 ---------------------------------------------------------------------
 Rotational constants (GHZ):     11.5880396      9.3123761      5.3346202
 Standard basis: Aug-CC-pVTZ (5D, 7F)
 There are   253 symmetry adapted basis functions of A   symmetry.
 Integral buffers will be    262144 words long.
 Raffenetti 2 integral format.
 Two-electron integral symmetry is turned on.
   253 basis functions,   369 primitive gaussians,   295 cartesian basis functions
    16 alpha electrons       16 beta electrons
       nuclear repulsion energy       118.7299102007 Hartrees.
 NAtoms=    7 NActive=    7 NUniq=    7 SFac= 7.50D-01 NAtFMM=   80 NAOKFM=F Big=F
 One-electron integrals computed using PRISM.
 NBasis=   253 RedAO= T  NBF=   253
 NBsUse=   253 1.00D-06 NBFU=   253
 Harris functional with IExCor=  402 diagonalized for initial guess.
 ExpMin= 2.53D-02 ExpMax= 1.95D+04 ExpMxC= 6.65D+02 IAcc=3 IRadAn=         0 AccDes= 0.00D+00
 HarFok:  IExCor=  402 AccDes= 0.00D+00 IRadAn=         0 IDoV= 1
 ScaDFX=  1.000000  1.000000  1.000000  1.000000
 FoFCou: FMM=F IPFlag=           0 FMFlag=      100000 FMFlg1=           0
         NFxFlg=           0 DoJE=T BraDBF=F KetDBF=T FulRan=T
         Omega=  0.000000  0.000000  1.000000  0.000000  0.000000 ICntrl=     500 IOpCl=  0
         NMat0=    1 NMatS0=    1 NMatT0=    0 NMatD0=    1 NMtDS0=    0 NMtDT0=    0
         I1Cent=           4 NGrid=           0.
 Petite list used in FoFCou.
 Initial guess orbital symmetries:
       Occupied  (A) (A) (A) (A) (A) (A) (A) (A) (A) (A) (A) (A)
                 (A) (A) (A) (A)
       Virtual   (A) (A) (A) (A) (A) (A) (A) (A) (A) (A) (A) (A)
                 (A) (A) (A) (A) (A) (A) (A) (A) (A) (A) (A) (A)
                 (A) (A) (A) (A) (A) (A) (A) (A) (A) (A) (A) (A)
                 (A) (A) (A) (A) (A) (A) (A) (A) (A) (A) (A) (A)
                 (A) (A) (A) (A) (A) (A) (A) (A) (A) (A) (A) (A)
                 (A) (A) (A) (A) (A) (A) (A) (A) (A) (A) (A) (A)
                 (A) (A) (A) (A) (A) (A) (A) (A) (A) (A) (A) (A)
                 (A) (A) (A) (A) (A) (A) (A) (A) (A) (A) (A) (A)
                 (A) (A) (A) (A) (A) (A) (A) (A) (A) (A) (A) (A)
                 (A) (A) (A) (A) (A) (A) (A) (A) (A) (A) (A) (A)
                 (A) (A) (A) (A) (A) (A) (A) (A) (A) (A) (A) (A)
                 (A) (A) (A) (A) (A) (A) (A) (A) (A) (A) (A) (A)
                 (A) (A) (A) (A) (A) (A) (A) (A) (A) (A) (A) (A)
                 (A) (A) (A) (A) (A) (A) (A) (A) (A) (A) (A) (A)
                 (A) (A) (A) (A) (A) (A) (A) (A) (A) (A) (A) (A)
                 (A) (A) (A) (A) (A) (A) (A) (A) (A) (A) (A) (A)
                 (A) (A) (A) (A) (A) (A) (A) (A) (A) (A) (A) (A)
                 (A) (A) (A) (A) (A) (A) (A) (A) (A) (A) (A) (A)
                 (A) (A) (A) (A) (A) (A) (A) (A) (A) (A) (A) (A)
                 (A) (A) (A) (A) (A) (A) (A) (A) (A)
 The electronic state of the initial guess is 1-A.
 Requested convergence on RMS density matrix=1.00D-08 within 128 cycles.
 Requested convergence on MAX density matrix=1.00D-06.
 Requested convergence on             energy=1.00D-06.
 No special actions if energy rises.
 SCF Done:  E(RB3LYP) =  -253.200101405     A.U. after   11 cycles
             Convg  =    0.2564D-08             -V/T =  2.0059

 **********************************************************************

            Population analysis using the SCF density.

 **********************************************************************

 Orbital symmetries:
       Occupied  (A) (A) (A) (A) (A) (A) (A) (A) (A) (A) (A) (A)
                 (A) (A) (A) (A)
       Virtual   (A) (A) (A) (A) (A) (A) (A) (A) (A) (A) (A) (A)
                 (A) (A) (A) (A) (A) (A) (A) (A) (A) (A) (A) (A)
                 (A) (A) (A) (A) (A) (A) (A) (A) (A) (A) (A) (A)
                 (A) (A) (A) (A) (A) (A) (A) (A) (A) (A) (A) (A)
                 (A) (A) (A) (A) (A) (A) (A) (A) (A) (A) (A) (A)
                 (A) (A) (A) (A) (A) (A) (A) (A) (A) (A) (A) (A)
                 (A) (A) (A) (A) (A) (A) (A) (A) (A) (A) (A) (A)
                 (A) (A) (A) (A) (A) (A) (A) (A) (A) (A) (A) (A)
                 (A) (A) (A) (A) (A) (A) (A) (A) (A) (A) (A) (A)
                 (A) (A) (A) (A) (A) (A) (A) (A) (A) (A) (A) (A)
                 (A) (A) (A) (A) (A) (A) (A) (A) (A) (A) (A) (A)
                 (A) (A) (A) (A) (A) (A) (A) (A) (A) (A) (A) (A)
                 (A) (A) (A) (A) (A) (A) (A) (A) (A) (A) (A) (A)
                 (A) (A) (A) (A) (A) (A) (A) (A) (A) (A) (A) (A)
                 (A) (A) (A) (A) (A) (A) (A) (A) (A) (A) (A) (A)
                 (A) (A) (A) (A) (A) (A) (A) (A) (A) (A) (A) (A)
                 (A) (A) (A) (A) (A) (A) (A) (A) (A) (A) (A) (A)
                 (A) (A) (A) (A) (A) (A) (A) (A) (A) (A) (A) (A)
                 (A) (A) (A) (A) (A) (A) (A) (A) (A) (A) (A) (A)
                 (A) (A) (A) (A) (A) (A) (A) (A) (A)
 The electronic state is 1-A.
 Alpha  occ. eigenvalues --  -24.71411 -19.15212 -10.35247 -10.21974  -1.25754
 Alpha  occ. eigenvalues --   -1.07637  -0.78933  -0.62386  -0.53584  -0.51909
 Alpha  occ. eigenvalues --   -0.50414  -0.43980  -0.43868  -0.41162  -0.37950
 Alpha  occ. eigenvalues --   -0.31960
 Alpha virt. eigenvalues --   -0.03648  -0.01996   0.01612   0.01702   0.02316
 Alpha virt. eigenvalues --    0.05644   0.06002   0.06733   0.06959   0.07820
 Alpha virt. eigenvalues --    0.07837   0.10130   0.10783   0.11582   0.14988
 Alpha virt. eigenvalues --    0.15887   0.16311   0.16436   0.19227   0.20004
 Alpha virt. eigenvalues --    0.20825   0.21030   0.21514   0.22557   0.25301
 Alpha virt. eigenvalues --    0.25531   0.26785   0.27011   0.29259   0.29730
 Alpha virt. eigenvalues --    0.30230   0.31235   0.31672   0.33553   0.34007
 Alpha virt. eigenvalues --    0.34992   0.35631   0.36820   0.41051   0.42059
 Alpha virt. eigenvalues --    0.42107   0.43901   0.46336   0.48057   0.48974
 Alpha virt. eigenvalues --    0.51166   0.57952   0.58479   0.59652   0.61003
 Alpha virt. eigenvalues --    0.63495   0.65971   0.66434   0.67402   0.70925
 Alpha virt. eigenvalues --    0.71518   0.71740   0.74329   0.75256   0.76261
 Alpha virt. eigenvalues --    0.78421   0.78773   0.80664   0.80744   0.83687
 Alpha virt. eigenvalues --    0.83927   0.86514   0.87984   0.88050   0.90885
 Alpha virt. eigenvalues --    0.93995   0.95001   0.96322   0.96584   0.97894
 Alpha virt. eigenvalues --    0.99989   1.01259   1.03982   1.04305   1.04808
 Alpha virt. eigenvalues --    1.08507   1.09825   1.14229   1.14562   1.15943
 Alpha virt. eigenvalues --    1.18537   1.22827   1.23171   1.26364   1.28431
 Alpha virt. eigenvalues --    1.29318   1.30191   1.34784   1.36201   1.38923
 Alpha virt. eigenvalues --    1.41843   1.41961   1.44832   1.46400   1.47151
 Alpha virt. eigenvalues --    1.50273   1.54036   1.54536   1.55915   1.59007
 Alpha virt. eigenvalues --    1.60505   1.62943   1.67367   1.69400   1.72743
 Alpha virt. eigenvalues --    1.78404   1.86082   1.87378   1.89343   1.90444
 Alpha virt. eigenvalues --    1.95826   1.97061   2.02037   2.09193   2.13001
 Alpha virt. eigenvalues --    2.15815   2.16823   2.21066   2.24958   2.28374
 Alpha virt. eigenvalues --    2.31598   2.36737   2.43039   2.47665   2.50264
 Alpha virt. eigenvalues --    2.55574   2.58712   2.62908   2.65801   2.67974
 Alpha virt. eigenvalues --    2.69466   2.74182   2.77620   2.79575   2.79751
 Alpha virt. eigenvalues --    2.84531   2.93166   2.97251   3.01815   3.03519
 Alpha virt. eigenvalues --    3.06503   3.11607   3.13116   3.16312   3.20606
 Alpha virt. eigenvalues --    3.21744   3.25055   3.25588   3.26469   3.28842
 Alpha virt. eigenvalues --    3.39293   3.42608   3.44147   3.47343   3.51993
 Alpha virt. eigenvalues --    3.54295   3.55964   3.58806   3.59299   3.63956
 Alpha virt. eigenvalues --    3.67094   3.69993   3.75253   3.77842   3.82440
 Alpha virt. eigenvalues --    3.84639   3.92644   3.94934   3.96585   4.05742
 Alpha virt. eigenvalues --    4.07871   4.17814   4.19167   4.21047   4.29453
 Alpha virt. eigenvalues --    4.31552   4.35622   4.39567   4.41802   4.46869
 Alpha virt. eigenvalues --    4.50336   4.57022   4.57193   4.66504   4.76044
 Alpha virt. eigenvalues --    4.81804   4.85221   4.97926   4.99783   5.01004
 Alpha virt. eigenvalues --    5.01605   5.13176   5.15379   5.23543   5.30846
 Alpha virt. eigenvalues --    5.38154   5.49812   5.52407   5.70935   5.75620
 Alpha virt. eigenvalues --    5.84560   6.16125   6.19576   6.25510   6.28177
 Alpha virt. eigenvalues --    6.43205   6.48100   6.60380   6.74700   6.77048
 Alpha virt. eigenvalues --    6.79313   6.98010   7.08633   7.09480   7.23245
 Alpha virt. eigenvalues --    7.28009   8.37701   8.38554   8.62528   8.64405
 Alpha virt. eigenvalues --    8.74774   8.79678   8.80960   8.90611   8.91484
 Alpha virt. eigenvalues --    9.00515   9.21369   9.27962  13.73741  14.93133
 Alpha virt. eigenvalues --   15.98388  17.71287
          Condensed to atoms (all electrons):
              1          2          3          4          5          6
     1  C    5.202528   0.392332   0.380950   0.392328   0.206099  -0.073867
     2  H    0.392332   0.405354  -0.007754   0.018546  -0.033631   0.001532
     3  H    0.380950  -0.007754   0.383683  -0.007753  -0.016166   0.002813
     4  H    0.392328   0.018546  -0.007753   0.405348  -0.033625   0.001533
     5  C    0.206099  -0.033631  -0.016166  -0.033625   4.762145   0.438204
     6  O   -0.073867   0.001532   0.002813   0.001533   0.438204   8.186582
     7  F   -0.013610   0.010576   0.001412   0.010576   0.100296  -0.089031
              7
     1  C   -0.013610
     2  H    0.010576
     3  H    0.001412
     4  H    0.010576
     5  C    0.100296
     6  O   -0.089031
     7  F    9.290835
 Mulliken atomic charges:
              1
     1  C   -0.486761
     2  H    0.213044
     3  H    0.262814
     4  H    0.213046
     5  C    0.576677
     6  O   -0.467766
     7  F   -0.311055
 Sum of Mulliken atomic charges =   0.00000
 Mulliken charges with hydrogens summed into heavy atoms:
              1
     1  C    0.202144
     5  C    0.576677
     6  O   -0.467766
     7  F   -0.311055
 Sum of Mulliken charges with hydrogens summed into heavy atoms =   0.00000
 Electronic spatial extent (au):  <R**2>=            244.5245
 Charge=              0.0000 electrons
 Dipole moment (field-independent basis, Debye):
    X=              3.2026    Y=              0.7729    Z=              0.0000  Tot=              3.2945
 Quadrupole moment (field-independent basis, Debye-Ang):
   XX=            -22.1436   YY=            -25.9859   ZZ=            -21.5562
   XY=             -0.9039   XZ=              0.0000   YZ=              0.0000
 Traceless Quadrupole moment (field-independent basis, Debye-Ang):
   XX=              1.0850   YY=             -2.7573   ZZ=              1.6724
   XY=             -0.9039   XZ=              0.0000   YZ=              0.0000
 Octapole moment (field-independent basis, Debye-Ang**2):
  XXX=             -1.3299  YYY=              5.5883  ZZZ=              0.0002  XYY=              1.2801
  XXY=              2.3343  XXZ=              0.0000  XZZ=             -1.4228  YZZ=              2.1668
  YYZ=             -0.0001  XYZ=              0.0000
 Hexadecapole moment (field-independent basis, Debye-Ang**3):
 XXXX=           -156.8941 YYYY=           -106.5670 ZZZZ=            -25.6127 XXXY=             -4.3385
 XXXZ=              0.0000 YYYX=             -5.9024 YYYZ=              0.0000 ZZZX=              0.0003
 ZZZY=              0.0000 XXYY=            -42.8452 XXZZ=            -28.9550 YYZZ=            -21.2024
 XXYZ=              0.0000 YYXZ=             -0.0003 ZZXY=              0.5999
 N-N= 1.187299102007D+02 E-N=-8.340951491427D+02  KE= 2.517027018913D+02
 Calling FoFJK, ICntrl=      2127 FMM=F ISym2X=0 I1Cent= 0 IOpClX= 0 NMat=1 NMatS=1 NMatT=0.
 ***** Axes restored to original set *****
 -------------------------------------------------------------------
 Center     Atomic                   Forces (Hartrees/Bohr)
 Number     Number              X              Y              Z
 -------------------------------------------------------------------
      1        6           0.024206642   -0.005211272   -0.000001670
      2        1          -0.007787979   -0.001991862    0.005891289
      3        1          -0.008473087    0.007604178    0.000000745
      4        1          -0.007787619   -0.001990546   -0.005890711
      5        6          -0.028703571   -0.017120857    0.000000836
      6        8           0.021548976   -0.000070546   -0.000000399
      7        9           0.006996638    0.018780906   -0.000000089
 -------------------------------------------------------------------
 Cartesian Forces:  Max     0.028703571 RMS     0.011800787

 GradGradGradGradGradGradGradGradGradGradGradGradGradGradGradGradGradGrad
 Berny optimization.
 Internal  Forces:  Max     0.025417999 RMS     0.009070541
 Search for a local minimum.
 Step number   1 out of a maximum of   31
 All quantities printed in internal units (Hartrees-Bohrs-Radians)
 Mixed Optimization -- RFO/linear search
 Second derivative matrix not updated -- first step.
     Eigenvalues ---    0.01013   0.01013   0.07158   0.07246   0.16000
     Eigenvalues ---    0.16000   0.16000   0.25000   0.25000   0.33250
     Eigenvalues ---    0.33251   0.33301   0.34415   0.55316   1.07825
     Eigenvalues --- 1000.000001000.000001000.000001000.000001000.00000
     Eigenvalues --- 1000.00000
 RFO step:  Lambda=-5.98721557D-03 EMin= 1.01256184D-02
 Linear search not attempted -- first point.
 Iteration  1 RMS(Cart)=  0.04525133 RMS(Int)=  0.00108042
 Iteration  2 RMS(Cart)=  0.00103059 RMS(Int)=  0.00032506
 Iteration  3 RMS(Cart)=  0.00000026 RMS(Int)=  0.00032506
 Variable       Old X    -DE/DX   Delta X   Delta X   Delta X     New X
                                 (Linear)    (Quad)   (Total)
    R1        2.08614  -0.00839   0.00000  -0.02479  -0.02479   2.06135
    R2        2.08526  -0.01047   0.00000  -0.03089  -0.03089   2.05437
    R3        2.08614  -0.00839   0.00000  -0.02479  -0.02479   2.06135
    R4        2.79936   0.00005   0.00000   0.00014   0.00014   2.79949
    R5        2.25659  -0.01311   0.00000  -0.01209  -0.01209   2.24450
    R6        2.54852   0.01355   0.00000   0.02423   0.02423   2.57275
    A1        1.87183   0.00553   0.00000   0.03783   0.03768   1.90951
    A2        1.85536   0.00419   0.00000   0.01631   0.01531   1.87067
    A3        1.95980  -0.00539   0.00000  -0.03493  -0.03551   1.92429
    A4        1.87183   0.00553   0.00000   0.03783   0.03768   1.90950
    A5        1.93972  -0.00328   0.00000  -0.01482  -0.01498   1.92474
    A6        1.95980  -0.00539   0.00000  -0.03493  -0.03551   1.92429
    A7        2.29633  -0.01314   0.00000  -0.05135  -0.05135   2.24498
    A8        1.97489  -0.01227   0.00000  -0.04794  -0.04794   1.92694
    A9        2.01197   0.02542   0.00000   0.09929   0.09929   2.11126
    D1        2.09683   0.00110   0.00000   0.01412   0.01378   2.11061
    D2       -1.04477   0.00110   0.00000   0.01414   0.01379  -1.03098
    D3        0.00007   0.00000   0.00000  -0.00001  -0.00001   0.00006
    D4       -3.14153   0.00000   0.00000   0.00000   0.00000  -3.14153
    D5       -2.09668  -0.00110   0.00000  -0.01414  -0.01380  -2.11048
    D6        1.04491  -0.00110   0.00000  -0.01413  -0.01378   1.03112
         Item               Value     Threshold  Converged?
 Maximum Force            0.025418     0.000450     NO 
 RMS     Force            0.009071     0.000300     NO 
 Maximum Displacement     0.106928     0.001800     NO 
 RMS     Displacement     0.045408     0.001200     NO 
 Predicted change in Energy=-3.063392D-03
 GradGradGradGradGradGradGradGradGradGradGradGradGradGradGradGradGradGrad

                          Input orientation:                          
 ---------------------------------------------------------------------
 Center     Atomic      Atomic             Coordinates (Angstroms)
 Number     Number       Type             X           Y           Z
 ---------------------------------------------------------------------
      1          6           0        1.378595   -0.038725    0.000000
      2          1           0        1.721243    0.510688   -0.877851
      3          1           0        1.820848   -1.031831   -0.000067
      4          1           0        1.721245    0.510565    0.877927
      5          6           0       -0.099704   -0.134976    0.000001
      6          8           0       -0.779309   -1.109069   -0.000003
      7          9           0       -0.656290    1.107495    0.000000
 ---------------------------------------------------------------------
                    Distance matrix (angstroms):
                    1          2          3          4          5
     1  C    0.000000
     2  H    1.090818   0.000000
     3  H    1.087128   1.777580   0.000000
     4  H    1.090819   1.755778   1.777577   0.000000
     5  C    1.481429   2.122110   2.119639   2.122105   0.000000
     6  O    2.408772   3.105960   2.601304   3.105921   1.187738
     7  F    2.335504   2.603740   3.273061   2.603797   1.361441
                    6          7
     6  O    0.000000
     7  F    2.219975   0.000000
 Stoichiometry    C2H3FO
 Framework group  C1[X(C2H3FO)]
 Deg. of freedom    15
 Full point group                 C1      NOp   1
 Largest Abelian subgroup         C1      NOp   1
 Largest concise Abelian subgroup C1      NOp   1
                         Standard orientation:                         
 ---------------------------------------------------------------------
 Center     Atomic      Atomic             Coordinates (Angstroms)
 Number     Number       Type             X           Y           Z
 ---------------------------------------------------------------------
      1          6           0        1.353664   -0.042282    0.000000
      2          1           0        1.697221    0.506564   -0.877850
      3          1           0        1.794273   -1.036118   -0.000067
      4          1           0        1.697223    0.506440    0.877927
      5          6           0       -0.124792   -0.136086    0.000002
      6          8           0       -0.806008   -1.109053   -0.000003
      7          9           0       -0.679321    1.107305    0.000000
 ---------------------------------------------------------------------
 Rotational constants (GHZ):     10.9170944      9.8240779      5.3406659
 Standard basis: Aug-CC-pVTZ (5D, 7F)
 There are   253 symmetry adapted basis functions of A   symmetry.
 Integral buffers will be    262144 words long.
 Raffenetti 2 integral format.
 Two-electron integral symmetry is turned on.
   253 basis functions,   369 primitive gaussians,   295 cartesian basis functions
    16 alpha electrons       16 beta electrons
       nuclear repulsion energy       118.7731443859 Hartrees.
 NAtoms=    7 NActive=    7 NUniq=    7 SFac= 7.50D-01 NAtFMM=   80 NAOKFM=F Big=F
 One-electron integrals computed using PRISM.
 NBasis=   253 RedAO= T  NBF=   253
 NBsUse=   253 1.00D-06 NBFU=   253
 Initial guess read from the read-write file.
 B after Tr=     0.000000    0.000000    0.000000
         Rot=    1.000000    0.000000    0.000000    0.000000 Ang=   0.00 deg.
 Initial guess orbital symmetries:
       Occupied  (A) (A) (A) (A) (A) (A) (A) (A) (A) (A) (A) (A)
                 (A) (A) (A) (A)
       Virtual   (A) (A) (A) (A) (A) (A) (A) (A) (A) (A) (A) (A)
                 (A) (A) (A) (A) (A) (A) (A) (A) (A) (A) (A) (A)
                 (A) (A) (A) (A) (A) (A) (A) (A) (A) (A) (A) (A)
                 (A) (A) (A) (A) (A) (A) (A) (A) (A) (A) (A) (A)
                 (A) (A) (A) (A) (A) (A) (A) (A) (A) (A) (A) (A)
                 (A) (A) (A) (A) (A) (A) (A) (A) (A) (A) (A) (A)
                 (A) (A) (A) (A) (A) (A) (A) (A) (A) (A) (A) (A)
                 (A) (A) (A) (A) (A) (A) (A) (A) (A) (A) (A) (A)
                 (A) (A) (A) (A) (A) (A) (A) (A) (A) (A) (A) (A)
                 (A) (A) (A) (A) (A) (A) (A) (A) (A) (A) (A) (A)
                 (A) (A) (A) (A) (A) (A) (A) (A) (A) (A) (A) (A)
                 (A) (A) (A) (A) (A) (A) (A) (A) (A) (A) (A) (A)
                 (A) (A) (A) (A) (A) (A) (A) (A) (A) (A) (A) (A)
                 (A) (A) (A) (A) (A) (A) (A) (A) (A) (A) (A) (A)
                 (A) (A) (A) (A) (A) (A) (A) (A) (A) (A) (A) (A)
                 (A) (A) (A) (A) (A) (A) (A) (A) (A) (A) (A) (A)
                 (A) (A) (A) (A) (A) (A) (A) (A) (A) (A) (A) (A)
                 (A) (A) (A) (A) (A) (A) (A) (A) (A) (A) (A) (A)
                 (A) (A) (A) (A) (A) (A) (A) (A) (A) (A) (A) (A)
                 (A) (A) (A) (A) (A) (A) (A) (A) (A)
 Harris functional with IExCor=  402 diagonalized for initial guess.
 ExpMin= 2.53D-02 ExpMax= 1.95D+04 ExpMxC= 6.65D+02 IAcc=3 IRadAn=         0 AccDes= 0.00D+00
 HarFok:  IExCor=  402 AccDes= 0.00D+00 IRadAn=         0 IDoV= 1
 ScaDFX=  1.000000  1.000000  1.000000  1.000000
 FoFCou: FMM=F IPFlag=           0 FMFlag=      100000 FMFlg1=           0
         NFxFlg=           0 DoJE=T BraDBF=F KetDBF=T FulRan=T
         Omega=  0.000000  0.000000  1.000000  0.000000  0.000000 ICntrl=     500 IOpCl=  0
         NMat0=    1 NMatS0=    1 NMatT0=    0 NMatD0=    1 NMtDS0=    0 NMtDT0=    0
         I1Cent=           4 NGrid=           0.
 Petite list used in FoFCou.
 Requested convergence on RMS density matrix=1.00D-08 within 128 cycles.
 Requested convergence on MAX density matrix=1.00D-06.
 Requested convergence on             energy=1.00D-06.
 No special actions if energy rises.
 SCF Done:  E(RB3LYP) =  -253.202870253     A.U. after   10 cycles
             Convg  =    0.1440D-08             -V/T =  2.0057
 Calling FoFJK, ICntrl=      2127 FMM=F ISym2X=0 I1Cent= 0 IOpClX= 0 NMat=1 NMatS=1 NMatT=0.
 ***** Axes restored to original set *****
 -------------------------------------------------------------------
 Center     Atomic                   Forces (Hartrees/Bohr)
 Number     Number              X              Y              Z
 -------------------------------------------------------------------
      1        6           0.010050189   -0.001175338    0.000000072
      2        1          -0.001122998    0.000588231    0.000307149
      3        1          -0.001406910    0.000501921    0.000000224
      4        1          -0.001122788    0.000588402   -0.000306969
      5        6          -0.005246546   -0.010663430   -0.000001553
      6        8           0.002211638    0.009694276    0.000000534
      7        9          -0.003362585    0.000465938    0.000000543
 -------------------------------------------------------------------
 Cartesian Forces:  Max     0.010663430 RMS     0.004138386

 GradGradGradGradGradGradGradGradGradGradGradGradGradGradGradGradGradGrad
 Berny optimization.
 Using GEDIIS/GDIIS optimizer.
 Internal  Forces:  Max     0.009219657 RMS     0.002932558
 Search for a local minimum.
 Step number   2 out of a maximum of   31
 All quantities printed in internal units (Hartrees-Bohrs-Radians)
 Mixed Optimization -- RFO/linear search
 Update second derivatives using D2CorX and points    1    2
 DE= -2.77D-03 DEPred=-3.06D-03 R= 9.04D-01
 SS=  1.41D+00  RLast= 1.56D-01 DXNew= 5.0454D-01 4.6757D-01
 Trust test= 9.04D-01 RLast= 1.56D-01 DXMaxT set to 4.68D-01
 Use linear search instead of GDIIS.
     Eigenvalues ---    0.01013   0.01013   0.07462   0.07472   0.14881
     Eigenvalues ---    0.16000   0.16001   0.24982   0.28897   0.32094
     Eigenvalues ---    0.33251   0.33284   0.37853   0.54447   1.05658
     Eigenvalues --- 1000.000001000.000001000.000001000.000001000.00000
     Eigenvalues --- 1000.00000
 RFO step:  Lambda=-3.62902563D-04 EMin= 1.01256184D-02
 Quartic linear search produced a step of -0.05860.
 Iteration  1 RMS(Cart)=  0.00694661 RMS(Int)=  0.00004848
 Iteration  2 RMS(Cart)=  0.00005043 RMS(Int)=  0.00001043
 Iteration  3 RMS(Cart)=  0.00000000 RMS(Int)=  0.00001043
 Variable       Old X    -DE/DX   Delta X   Delta X   Delta X     New X
                                 (Linear)    (Quad)   (Total)
    R1        2.06135  -0.00031   0.00145  -0.00381  -0.00235   2.05899
    R2        2.05437  -0.00103   0.00181  -0.00657  -0.00476   2.04962
    R3        2.06135  -0.00031   0.00145  -0.00380  -0.00235   2.05900
    R4        2.79949   0.00642  -0.00001   0.01754   0.01753   2.81703
    R5        2.24450  -0.00922   0.00071  -0.00949  -0.00878   2.23572
    R6        2.57275   0.00180  -0.00142   0.00595   0.00453   2.57728
    A1        1.90951   0.00135  -0.00221   0.01378   0.01157   1.92108
    A2        1.87067   0.00055  -0.00090   0.00184   0.00091   1.87158
    A3        1.92429  -0.00116   0.00208  -0.01182  -0.00975   1.91454
    A4        1.90950   0.00135  -0.00221   0.01378   0.01157   1.92107
    A5        1.92474  -0.00083   0.00088  -0.00516  -0.00428   1.92045
    A6        1.92429  -0.00116   0.00208  -0.01182  -0.00975   1.91453
    A7        2.24498   0.00314   0.00301   0.00573   0.00874   2.25372
    A8        1.92694   0.00212   0.00281   0.00229   0.00510   1.93204
    A9        2.11126  -0.00526  -0.00582  -0.00802  -0.01384   2.09742
    D1        2.11061   0.00038  -0.00081   0.00617   0.00535   2.11596
    D2       -1.03098   0.00038  -0.00081   0.00611   0.00529  -1.02569
    D3        0.00006   0.00000   0.00000   0.00002   0.00003   0.00009
    D4       -3.14153   0.00000   0.00000  -0.00004  -0.00004  -3.14157
    D5       -2.11048  -0.00038   0.00081  -0.00612  -0.00530  -2.11578
    D6        1.03112  -0.00038   0.00081  -0.00619  -0.00537   1.02576
         Item               Value     Threshold  Converged?
 Maximum Force            0.009220     0.000450     NO 
 RMS     Force            0.002933     0.000300     NO 
 Maximum Displacement     0.018270     0.001800     NO 
 RMS     Displacement     0.006940     0.001200     NO 
 Predicted change in Energy=-1.927815D-04
 GradGradGradGradGradGradGradGradGradGradGradGradGradGradGradGradGradGrad

                          Input orientation:                          
 ---------------------------------------------------------------------
 Center     Atomic      Atomic             Coordinates (Angstroms)
 Number     Number       Type             X           Y           Z
 ---------------------------------------------------------------------
      1          6           0        1.388263   -0.041701   -0.000004
      2          1           0        1.720451    0.512776   -0.877145
      3          1           0        1.824681   -1.034637   -0.000060
      4          1           0        1.720436    0.512662    0.877215
      5          6           0       -0.099349   -0.137710   -0.000018
      6          8           0       -0.785298   -1.101651    0.000000
      7          9           0       -0.662556    1.104408    0.000018
 ---------------------------------------------------------------------
                    Distance matrix (angstroms):
                    1          2          3          4          5
     1  C    0.000000
     2  H    1.089573   0.000000
     3  H    1.084611   1.781748   0.000000
     4  H    1.089574   1.754360   1.781744   0.000000
     5  C    1.490707   2.122300   2.122820   2.122296   0.000000
     6  O    2.418235   3.107174   2.610839   3.107123   1.183092
     7  F    2.349345   2.607329   3.280527   2.607352   1.363840
                    6          7
     6  O    0.000000
     7  F    2.209471   0.000000
 Stoichiometry    C2H3FO
 Framework group  C1[X(C2H3FO)]
 Deg. of freedom    15
 Full point group                 C1      NOp   1
 Largest Abelian subgroup         C1      NOp   1
 Largest concise Abelian subgroup C1      NOp   1
                         Standard orientation:                         
 ---------------------------------------------------------------------
 Center     Atomic      Atomic             Coordinates (Angstroms)
 Number     Number       Type             X           Y           Z
 ---------------------------------------------------------------------
      1          6           0        1.364993   -0.032833   -0.000006
      2          1           0        1.693051    0.524097   -0.877146
      3          1           0        1.808777   -1.022497   -0.000062
      4          1           0        1.693036    0.523984    0.877214
      5          6           0       -0.121865   -0.139895   -0.000019
      6          8           0       -0.800631   -1.108906   -0.000001
      7          9           0       -0.694287    1.098004    0.000017
 ---------------------------------------------------------------------
 Rotational constants (GHZ):     11.0095673      9.7039744      5.3264316
 Standard basis: Aug-CC-pVTZ (5D, 7F)
 There are   253 symmetry adapted basis functions of A   symmetry.
 Integral buffers will be    262144 words long.
 Raffenetti 2 integral format.
 Two-electron integral symmetry is turned on.
   253 basis functions,   369 primitive gaussians,   295 cartesian basis functions
    16 alpha electrons       16 beta electrons
       nuclear repulsion energy       118.7028501685 Hartrees.
 NAtoms=    7 NActive=    7 NUniq=    7 SFac= 7.50D-01 NAtFMM=   80 NAOKFM=F Big=F
 One-electron integrals computed using PRISM.
 NBasis=   253 RedAO= T  NBF=   253
 NBsUse=   253 1.00D-06 NBFU=   253
 Initial guess read from the read-write file.
 B after Tr=     0.000000    0.000000    0.000000
         Rot=    1.000000    0.000000    0.000000    0.000000 Ang=   0.00 deg.
 Initial guess orbital symmetries:
       Occupied  (A) (A) (A) (A) (A) (A) (A) (A) (A) (A) (A) (A)
                 (A) (A) (A) (A)
       Virtual   (A) (A) (A) (A) (A) (A) (A) (A) (A) (A) (A) (A)
                 (A) (A) (A) (A) (A) (A) (A) (A) (A) (A) (A) (A)
                 (A) (A) (A) (A) (A) (A) (A) (A) (A) (A) (A) (A)
                 (A) (A) (A) (A) (A) (A) (A) (A) (A) (A) (A) (A)
                 (A) (A) (A) (A) (A) (A) (A) (A) (A) (A) (A) (A)
                 (A) (A) (A) (A) (A) (A) (A) (A) (A) (A) (A) (A)
                 (A) (A) (A) (A) (A) (A) (A) (A) (A) (A) (A) (A)
                 (A) (A) (A) (A) (A) (A) (A) (A) (A) (A) (A) (A)
                 (A) (A) (A) (A) (A) (A) (A) (A) (A) (A) (A) (A)
                 (A) (A) (A) (A) (A) (A) (A) (A) (A) (A) (A) (A)
                 (A) (A) (A) (A) (A) (A) (A) (A) (A) (A) (A) (A)
                 (A) (A) (A) (A) (A) (A) (A) (A) (A) (A) (A) (A)
                 (A) (A) (A) (A) (A) (A) (A) (A) (A) (A) (A) (A)
                 (A) (A) (A) (A) (A) (A) (A) (A) (A) (A) (A) (A)
                 (A) (A) (A) (A) (A) (A) (A) (A) (A) (A) (A) (A)
                 (A) (A) (A) (A) (A) (A) (A) (A) (A) (A) (A) (A)
                 (A) (A) (A) (A) (A) (A) (A) (A) (A) (A) (A) (A)
                 (A) (A) (A) (A) (A) (A) (A) (A) (A) (A) (A) (A)
                 (A) (A) (A) (A) (A) (A) (A) (A) (A) (A) (A) (A)
                 (A) (A) (A) (A) (A) (A) (A) (A) (A)
 Requested convergence on RMS density matrix=1.00D-08 within 128 cycles.
 Requested convergence on MAX density matrix=1.00D-06.
 Requested convergence on             energy=1.00D-06.
 No special actions if energy rises.
 SCF Done:  E(RB3LYP) =  -253.203103030     A.U. after    8 cycles
             Convg  =    0.6651D-08             -V/T =  2.0057
 Calling FoFJK, ICntrl=      2127 FMM=F ISym2X=0 I1Cent= 0 IOpClX= 0 NMat=1 NMatS=1 NMatT=0.
 ***** Axes restored to original set *****
 -------------------------------------------------------------------
 Center     Atomic                   Forces (Hartrees/Bohr)
 Number     Number              X              Y              Z
 -------------------------------------------------------------------
      1        6           0.001829495    0.000606937   -0.000002306
      2        1          -0.000168926    0.000322087   -0.000312726
      3        1          -0.000242097   -0.000481386   -0.000000169
      4        1          -0.000170019    0.000322102    0.000312641
      5        6          -0.000693157   -0.003934873    0.000007224
      6        8           0.000186501    0.001881008   -0.000002771
      7        9          -0.000741796    0.001284124   -0.000001893
 -------------------------------------------------------------------
 Cartesian Forces:  Max     0.003934873 RMS     0.001117016

 GradGradGradGradGradGradGradGradGradGradGradGradGradGradGradGradGradGrad
 Berny optimization.
 Using GEDIIS/GDIIS optimizer.
 Internal  Forces:  Max     0.001643837 RMS     0.000698850
 Search for a local minimum.
 Step number   3 out of a maximum of   31
 All quantities printed in internal units (Hartrees-Bohrs-Radians)
 Mixed Optimization -- En-DIIS/RFO-DIIS
 Update second derivatives using D2CorX and points    1    2    3
 DE= -2.33D-04 DEPred=-1.93D-04 R= 1.21D+00
 SS=  1.41D+00  RLast= 3.64D-02 DXNew= 7.8636D-01 1.0914D-01
 Trust test= 1.21D+00 RLast= 3.64D-02 DXMaxT set to 4.68D-01
 Use linear search instead of GDIIS.
     Eigenvalues ---    0.01013   0.01013   0.07517   0.07563   0.13430
     Eigenvalues ---    0.16000   0.16014   0.24447   0.28686   0.33251
     Eigenvalues ---    0.33281   0.33593   0.34106   0.53562   1.03065
     Eigenvalues --- 1000.000001000.000001000.000001000.000001000.00000
     Eigenvalues --- 1000.00000
 RFO step:  Lambda=-1.64035473D-05 EMin= 1.01256181D-02
 Quartic linear search produced a step of  0.24935.
 Iteration  1 RMS(Cart)=  0.00265843 RMS(Int)=  0.00001376
 Iteration  2 RMS(Cart)=  0.00001016 RMS(Int)=  0.00001026
 Iteration  3 RMS(Cart)=  0.00000000 RMS(Int)=  0.00001026
 Variable       Old X    -DE/DX   Delta X   Delta X   Delta X     New X
                                 (Linear)    (Quad)   (Total)
    R1        2.05899   0.00036  -0.00059   0.00144   0.00085   2.05985
    R2        2.04962   0.00035  -0.00119   0.00179   0.00061   2.05023
    R3        2.05900   0.00036  -0.00059   0.00144   0.00085   2.05985
    R4        2.81703   0.00129   0.00437   0.00088   0.00526   2.82228
    R5        2.23572  -0.00164  -0.00219  -0.00024  -0.00243   2.23329
    R6        2.57728   0.00148   0.00113   0.00282   0.00395   2.58123
    A1        1.92108   0.00040   0.00288   0.00139   0.00427   1.92535
    A2        1.87158   0.00021   0.00023   0.00136   0.00156   1.87314
    A3        1.91454  -0.00028  -0.00243  -0.00068  -0.00313   1.91141
    A4        1.92107   0.00040   0.00288   0.00139   0.00427   1.92534
    A5        1.92045  -0.00045  -0.00107  -0.00267  -0.00374   1.91671
    A6        1.91453  -0.00028  -0.00243  -0.00070  -0.00315   1.91138
    A7        2.25372   0.00129   0.00218   0.00366   0.00584   2.25956
    A8        1.93204  -0.00047   0.00127  -0.00435  -0.00308   1.92897
    A9        2.09742  -0.00082  -0.00345   0.00070  -0.00276   2.09466
    D1        2.11596   0.00004   0.00133  -0.00063   0.00070   2.11666
    D2       -1.02569   0.00004   0.00132  -0.00021   0.00110  -1.02459
    D3        0.00009   0.00000   0.00001  -0.00021  -0.00020  -0.00012
    D4       -3.14157   0.00000  -0.00001   0.00021   0.00020  -3.14137
    D5       -2.11578  -0.00004  -0.00132   0.00022  -0.00110  -2.11687
    D6        1.02576  -0.00004  -0.00134   0.00063  -0.00070   1.02506
         Item               Value     Threshold  Converged?
 Maximum Force            0.001644     0.000450     NO 
 RMS     Force            0.000699     0.000300     NO 
 Maximum Displacement     0.005716     0.001800     NO 
 RMS     Displacement     0.002657     0.001200     NO 
 Predicted change in Energy=-1.832953D-05
 GradGradGradGradGradGradGradGradGradGradGradGradGradGradGradGradGradGrad

                          Input orientation:                          
 ---------------------------------------------------------------------
 Center     Atomic      Atomic             Coordinates (Angstroms)
 Number     Number       Type             X           Y           Z
 ---------------------------------------------------------------------
      1          6           0        1.391167   -0.041923    0.000014
      2          1           0        1.719236    0.514504   -0.878003
      3          1           0        1.825602   -1.036079   -0.000086
      4          1           0        1.719319    0.514360    0.878091
      5          6           0       -0.099062   -0.140521    0.000095
      6          8           0       -0.788323   -1.100515   -0.000041
      7          9           0       -0.661312    1.104322   -0.000064
 ---------------------------------------------------------------------
                    Distance matrix (angstroms):
                    1          2          3          4          5
     1  C    0.000000
     2  H    1.090024   0.000000
     3  H    1.084933   1.785038   0.000000
     4  H    1.090025   1.756094   1.785035   0.000000
     5  C    1.493488   2.122810   2.122818   2.122795   0.000000
     6  O    2.422972   3.109172   2.614719   3.109213   1.181807
     7  F    2.350861   2.604931   3.281167   2.605114   1.365928
                    6          7
     6  O    0.000000
     7  F    2.208493   0.000000
 Stoichiometry    C2H3FO
 Framework group  C1[X(C2H3FO)]
 Deg. of freedom    15
 Full point group                 C1      NOp   1
 Largest Abelian subgroup         C1      NOp   1
 Largest concise Abelian subgroup C1      NOp   1
                         Standard orientation:                         
 ---------------------------------------------------------------------
 Center     Atomic      Atomic             Coordinates (Angstroms)
 Number     Number       Type             X           Y           Z
 ---------------------------------------------------------------------
      1          6           0        1.367589   -0.038894    0.000022
      2          1           0        1.694005    0.518504   -0.877995
      3          1           0        1.804971   -1.031757   -0.000078
      4          1           0        1.694089    0.518360    0.878099
      5          6           0       -0.122342   -0.141913    0.000103
      6          8           0       -0.808751   -1.103947   -0.000033
      7          9           0       -0.688282    1.101257   -0.000057
 ---------------------------------------------------------------------
 Rotational constants (GHZ):     11.0119312      9.6803137      5.3201904
 Standard basis: Aug-CC-pVTZ (5D, 7F)
 There are   253 symmetry adapted basis functions of A   symmetry.
 Integral buffers will be    262144 words long.
 Raffenetti 2 integral format.
 Two-electron integral symmetry is turned on.
   253 basis functions,   369 primitive gaussians,   295 cartesian basis functions
    16 alpha electrons       16 beta electrons
       nuclear repulsion energy       118.6430082052 Hartrees.
 NAtoms=    7 NActive=    7 NUniq=    7 SFac= 7.50D-01 NAtFMM=   80 NAOKFM=F Big=F
 One-electron integrals computed using PRISM.
 NBasis=   253 RedAO= T  NBF=   253
 NBsUse=   253 1.00D-06 NBFU=   253
 Initial guess read from the read-write file.
 B after Tr=     0.000000    0.000000    0.000000
         Rot=    1.000000    0.000000    0.000000    0.000000 Ang=   0.00 deg.
 Initial guess orbital symmetries:
       Occupied  (A) (A) (A) (A) (A) (A) (A) (A) (A) (A) (A) (A)
                 (A) (A) (A) (A)
       Virtual   (A) (A) (A) (A) (A) (A) (A) (A) (A) (A) (A) (A)
                 (A) (A) (A) (A) (A) (A) (A) (A) (A) (A) (A) (A)
                 (A) (A) (A) (A) (A) (A) (A) (A) (A) (A) (A) (A)
                 (A) (A) (A) (A) (A) (A) (A) (A) (A) (A) (A) (A)
                 (A) (A) (A) (A) (A) (A) (A) (A) (A) (A) (A) (A)
                 (A) (A) (A) (A) (A) (A) (A) (A) (A) (A) (A) (A)
                 (A) (A) (A) (A) (A) (A) (A) (A) (A) (A) (A) (A)
                 (A) (A) (A) (A) (A) (A) (A) (A) (A) (A) (A) (A)
                 (A) (A) (A) (A) (A) (A) (A) (A) (A) (A) (A) (A)
                 (A) (A) (A) (A) (A) (A) (A) (A) (A) (A) (A) (A)
                 (A) (A) (A) (A) (A) (A) (A) (A) (A) (A) (A) (A)
                 (A) (A) (A) (A) (A) (A) (A) (A) (A) (A) (A) (A)
                 (A) (A) (A) (A) (A) (A) (A) (A) (A) (A) (A) (A)
                 (A) (A) (A) (A) (A) (A) (A) (A) (A) (A) (A) (A)
                 (A) (A) (A) (A) (A) (A) (A) (A) (A) (A) (A) (A)
                 (A) (A) (A) (A) (A) (A) (A) (A) (A) (A) (A) (A)
                 (A) (A) (A) (A) (A) (A) (A) (A) (A) (A) (A) (A)
                 (A) (A) (A) (A) (A) (A) (A) (A) (A) (A) (A) (A)
                 (A) (A) (A) (A) (A) (A) (A) (A) (A) (A) (A) (A)
                 (A) (A) (A) (A) (A) (A) (A) (A) (A)
 Requested convergence on RMS density matrix=1.00D-08 within 128 cycles.
 Requested convergence on MAX density matrix=1.00D-06.
 Requested convergence on             energy=1.00D-06.
 No special actions if energy rises.
 SCF Done:  E(RB3LYP) =  -253.203122786     A.U. after    8 cycles
             Convg  =    0.4009D-08             -V/T =  2.0057
 Calling FoFJK, ICntrl=      2127 FMM=F ISym2X=0 I1Cent= 0 IOpClX= 0 NMat=1 NMatS=1 NMatT=0.
 ***** Axes restored to original set *****
 -------------------------------------------------------------------
 Center     Atomic                   Forces (Hartrees/Bohr)
 Number     Number              X              Y              Z
 -------------------------------------------------------------------
      1        6          -0.000192460    0.000277260    0.000015192
      2        1          -0.000028713   -0.000052219   -0.000003716
      3        1           0.000129332   -0.000053146    0.000001134
      4        1          -0.000021829   -0.000051913    0.000003727
      5        6           0.000500079   -0.001050785   -0.000045846
      6        8          -0.000075398    0.000102101    0.000016828
      7        9          -0.000311012    0.000828701    0.000012681
 -------------------------------------------------------------------
 Cartesian Forces:  Max     0.001050785 RMS     0.000330714

 GradGradGradGradGradGradGradGradGradGradGradGradGradGradGradGradGradGrad
 Berny optimization.
 Using GEDIIS/GDIIS optimizer.
 Internal  Forces:  Max     0.000887591 RMS     0.000212863
 Search for a local minimum.
 Step number   4 out of a maximum of   31
 All quantities printed in internal units (Hartrees-Bohrs-Radians)
 Mixed Optimization -- En-DIIS/RFO-DIIS
 Swaping is turned off.
 Update second derivatives using D2CorX and points    1    2    3    4
 DE= -1.98D-05 DEPred=-1.83D-05 R= 1.08D+00
 SS=  1.41D+00  RLast= 1.33D-02 DXNew= 7.8636D-01 4.0042D-02
 Trust test= 1.08D+00 RLast= 1.33D-02 DXMaxT set to 4.68D-01
     Eigenvalues ---    0.01013   0.01013   0.07553   0.07653   0.13302
     Eigenvalues ---    0.16000   0.16346   0.22193   0.28680   0.33174
     Eigenvalues ---    0.33251   0.33687   0.34593   0.51503   1.05325
     Eigenvalues --- 1000.000001000.000001000.000001000.000001000.00000
     Eigenvalues --- 1000.00000
 En-DIIS/RFO-DIIS IScMMF=        0 using points:     4    3
 RFO step:  Lambda=-1.56786713D-06.
 DIIS coeffs:      1.14653     -0.14653
 Iteration  1 RMS(Cart)=  0.00098626 RMS(Int)=  0.00000145
 Iteration  2 RMS(Cart)=  0.00000132 RMS(Int)=  0.00000056
 Iteration  3 RMS(Cart)=  0.00000000 RMS(Int)=  0.00000056
 Variable       Old X    -DE/DX   Delta X   Delta X   Delta X     New X
                                  (DIIS)     (GDIIS)  (Total)
    R1        2.05985  -0.00003   0.00012  -0.00026  -0.00014   2.05971
    R2        2.05023   0.00010   0.00009   0.00018   0.00027   2.05049
    R3        2.05985  -0.00003   0.00012  -0.00025  -0.00013   2.05972
    R4        2.82228  -0.00011   0.00077  -0.00049   0.00028   2.82256
    R5        2.23329  -0.00004  -0.00036  -0.00001  -0.00037   2.23293
    R6        2.58123   0.00089   0.00058   0.00160   0.00217   2.58340
    A1        1.92535  -0.00005   0.00063  -0.00052   0.00010   1.92545
    A2        1.87314   0.00005   0.00023   0.00032   0.00055   1.87368
    A3        1.91141  -0.00004  -0.00046  -0.00024  -0.00070   1.91071
    A4        1.92534  -0.00006   0.00063  -0.00054   0.00008   1.92543
    A5        1.91671   0.00013  -0.00055   0.00110   0.00055   1.91726
    A6        1.91138  -0.00003  -0.00046  -0.00015  -0.00061   1.91077
    A7        2.25956   0.00025   0.00086   0.00072   0.00158   2.26113
    A8        1.92897  -0.00021  -0.00045  -0.00068  -0.00113   1.92784
    A9        2.09466  -0.00004  -0.00040  -0.00005  -0.00045   2.09421
    D1        2.11666   0.00000   0.00010   0.00101   0.00111   2.11777
    D2       -1.02459  -0.00002   0.00016  -0.00126  -0.00110  -1.02569
    D3       -0.00012   0.00001  -0.00003   0.00111   0.00108   0.00096
    D4       -3.14137  -0.00001   0.00003  -0.00116  -0.00113   3.14069
    D5       -2.11687   0.00002  -0.00016   0.00117   0.00101  -2.11586
    D6        1.02506   0.00000  -0.00010  -0.00109  -0.00120   1.02386
         Item               Value     Threshold  Converged?
 Maximum Force            0.000888     0.000450     NO 
 RMS     Force            0.000213     0.000300     YES
 Maximum Displacement     0.002381     0.001800     NO 
 RMS     Displacement     0.000987     0.001200     YES
 Predicted change in Energy=-1.403442D-06
 GradGradGradGradGradGradGradGradGradGradGradGradGradGradGradGradGradGrad

                          Input orientation:                          
 ---------------------------------------------------------------------
 Center     Atomic      Atomic             Coordinates (Angstroms)
 Number     Number       Type             X           Y           Z
 ---------------------------------------------------------------------
      1          6           0        1.391417   -0.042110   -0.000086
      2          1           0        1.718831    0.514435   -0.878182
      3          1           0        1.826862   -1.035978    0.000073
      4          1           0        1.718370    0.514494    0.878150
      5          6           0       -0.098919   -0.141321   -0.000533
      6          8           0       -0.789191   -1.100349    0.000163
      7          9           0       -0.660741    1.104977    0.000422
 ---------------------------------------------------------------------
                    Distance matrix (angstroms):
                    1          2          3          4          5
     1  C    0.000000
     2  H    1.089952   0.000000
     3  H    1.085074   1.785156   0.000000
     4  H    1.089956   1.756332   1.785148   0.000000
     5  C    1.493635   2.122381   2.123451   2.122431   0.000000
     6  O    2.423824   3.109533   2.616845   3.109090   1.181614
     7  F    2.350991   2.604429   3.282051   2.603698   1.367078
                    6          7
     6  O    0.000000
     7  F    2.209064   0.000000
 Stoichiometry    C2H3FO
 Framework group  C1[X(C2H3FO)]
 Deg. of freedom    15
 Full point group                 C1      NOp   1
 Largest Abelian subgroup         C1      NOp   1
 Largest concise Abelian subgroup C1      NOp   1
                         Standard orientation:                         
 ---------------------------------------------------------------------
 Center     Atomic      Atomic             Coordinates (Angstroms)
 Number     Number       Type             X           Y           Z
 ---------------------------------------------------------------------
      1          6           0        1.367796   -0.040116    0.000084
      2          1           0        1.694096    0.517028   -0.878047
      3          1           0        1.805469   -1.033005    0.000461
      4          1           0        1.693366    0.517353    0.878285
      5          6           0       -0.122313   -0.142670   -0.000574
      6          8           0       -0.810433   -1.103243    0.000163
      7          9           0       -0.686929    1.102365    0.000104
 ---------------------------------------------------------------------
 Rotational constants (GHZ):     11.0054761      9.6777306      5.3179511
 Standard basis: Aug-CC-pVTZ (5D, 7F)
 There are   253 symmetry adapted basis functions of A   symmetry.
 Integral buffers will be    262144 words long.
 Raffenetti 2 integral format.
 Two-electron integral symmetry is turned on.
   253 basis functions,   369 primitive gaussians,   295 cartesian basis functions
    16 alpha electrons       16 beta electrons
       nuclear repulsion energy       118.6184197049 Hartrees.
 NAtoms=    7 NActive=    7 NUniq=    7 SFac= 7.50D-01 NAtFMM=   80 NAOKFM=F Big=F
 One-electron integrals computed using PRISM.
 NBasis=   253 RedAO= T  NBF=   253
 NBsUse=   253 1.00D-06 NBFU=   253
 Initial guess read from the read-write file.
 B after Tr=     0.000000    0.000000    0.000000
         Rot=    1.000000    0.000000    0.000000    0.000000 Ang=   0.00 deg.
 Initial guess orbital symmetries:
       Occupied  (A) (A) (A) (A) (A) (A) (A) (A) (A) (A) (A) (A)
                 (A) (A) (A) (A)
       Virtual   (A) (A) (A) (A) (A) (A) (A) (A) (A) (A) (A) (A)
                 (A) (A) (A) (A) (A) (A) (A) (A) (A) (A) (A) (A)
                 (A) (A) (A) (A) (A) (A) (A) (A) (A) (A) (A) (A)
                 (A) (A) (A) (A) (A) (A) (A) (A) (A) (A) (A) (A)
                 (A) (A) (A) (A) (A) (A) (A) (A) (A) (A) (A) (A)
                 (A) (A) (A) (A) (A) (A) (A) (A) (A) (A) (A) (A)
                 (A) (A) (A) (A) (A) (A) (A) (A) (A) (A) (A) (A)
                 (A) (A) (A) (A) (A) (A) (A) (A) (A) (A) (A) (A)
                 (A) (A) (A) (A) (A) (A) (A) (A) (A) (A) (A) (A)
                 (A) (A) (A) (A) (A) (A) (A) (A) (A) (A) (A) (A)
                 (A) (A) (A) (A) (A) (A) (A) (A) (A) (A) (A) (A)
                 (A) (A) (A) (A) (A) (A) (A) (A) (A) (A) (A) (A)
                 (A) (A) (A) (A) (A) (A) (A) (A) (A) (A) (A) (A)
                 (A) (A) (A) (A) (A) (A) (A) (A) (A) (A) (A) (A)
                 (A) (A) (A) (A) (A) (A) (A) (A) (A) (A) (A) (A)
                 (A) (A) (A) (A) (A) (A) (A) (A) (A) (A) (A) (A)
                 (A) (A) (A) (A) (A) (A) (A) (A) (A) (A) (A) (A)
                 (A) (A) (A) (A) (A) (A) (A) (A) (A) (A) (A) (A)
                 (A) (A) (A) (A) (A) (A) (A) (A) (A) (A) (A) (A)
                 (A) (A) (A) (A) (A) (A) (A) (A) (A)
 Requested convergence on RMS density matrix=1.00D-08 within 128 cycles.
 Requested convergence on MAX density matrix=1.00D-06.
 Requested convergence on             energy=1.00D-06.
 No special actions if energy rises.
 SCF Done:  E(RB3LYP) =  -253.203124390     A.U. after    7 cycles
             Convg  =    0.4742D-08             -V/T =  2.0057
 Calling FoFJK, ICntrl=      2127 FMM=F ISym2X=0 I1Cent= 0 IOpClX= 0 NMat=1 NMatS=1 NMatT=0.
 ***** Axes restored to original set *****
 -------------------------------------------------------------------
 Center     Atomic                   Forces (Hartrees/Bohr)
 Number     Number              X              Y              Z
 -------------------------------------------------------------------
      1        6          -0.000347452    0.000097011   -0.000081378
      2        1           0.000044845   -0.000024148   -0.000007349
      3        1           0.000065924    0.000015224   -0.000006126
      4        1           0.000007579   -0.000025281    0.000006542
      5        6           0.000374555   -0.000392912    0.000248322
      6        8          -0.000033080   -0.000021227   -0.000091571
      7        9          -0.000112369    0.000351334   -0.000068441
 -------------------------------------------------------------------
 Cartesian Forces:  Max     0.000392912 RMS     0.000176172

 GradGradGradGradGradGradGradGradGradGradGradGradGradGradGradGradGradGrad
 Berny optimization.
 Using GEDIIS/GDIIS optimizer.
 Internal  Forces:  Max     0.000370811 RMS     0.000106870
 Search for a local minimum.
 Step number   5 out of a maximum of   31
 All quantities printed in internal units (Hartrees-Bohrs-Radians)
 Mixed Optimization -- En-DIIS/RFO-DIIS
 Swaping is turned off.
 Update second derivatives using D2CorX and points    1    2    3    4    5
 DE= -1.60D-06 DEPred=-1.40D-06 R= 1.14D+00
 SS=  1.41D+00  RLast= 4.22D-03 DXNew= 7.8636D-01 1.2661D-02
 Trust test= 1.14D+00 RLast= 4.22D-03 DXMaxT set to 4.68D-01
     Eigenvalues ---    0.01013   0.01312   0.07548   0.07693   0.12774
     Eigenvalues ---    0.15545   0.16271   0.17864   0.28550   0.33227
     Eigenvalues ---    0.33269   0.33712   0.36311   0.40780   1.03999
     Eigenvalues --- 1000.000001000.000001000.000001000.000001000.00000
     Eigenvalues --- 1000.00000
 En-DIIS/RFO-DIIS IScMMF=        0 using points:     5    4    3
 RFO step:  Lambda=-6.93709808D-07.
 DIIS coeffs:      0.92319      0.24197     -0.16516
 Iteration  1 RMS(Cart)=  0.00151605 RMS(Int)=  0.00000521
 Iteration  2 RMS(Cart)=  0.00000466 RMS(Int)=  0.00000248
 Iteration  3 RMS(Cart)=  0.00000000 RMS(Int)=  0.00000248
 Variable       Old X    -DE/DX   Delta X   Delta X   Delta X     New X
                                  (DIIS)     (GDIIS)  (Total)
    R1        2.05971   0.00001   0.00015  -0.00021  -0.00006   2.05965
    R2        2.05049   0.00002   0.00008   0.00018   0.00026   2.05076
    R3        2.05972  -0.00001   0.00015  -0.00023  -0.00008   2.05964
    R4        2.82256  -0.00023   0.00085  -0.00086  -0.00001   2.82255
    R5        2.23293   0.00003  -0.00037  -0.00002  -0.00039   2.23253
    R6        2.58340   0.00037   0.00048   0.00191   0.00240   2.58580
    A1        1.92545  -0.00007   0.00070  -0.00075  -0.00006   1.92539
    A2        1.87368  -0.00001   0.00022   0.00031   0.00053   1.87421
    A3        1.91071   0.00006  -0.00046   0.00009  -0.00038   1.91033
    A4        1.92543  -0.00004   0.00070  -0.00070  -0.00001   1.92542
    A5        1.91726   0.00006  -0.00066   0.00120   0.00054   1.91780
    A6        1.91077   0.00000  -0.00047  -0.00017  -0.00064   1.91013
    A7        2.26113   0.00008   0.00084   0.00094   0.00178   2.26291
    A8        1.92784  -0.00011  -0.00042  -0.00088  -0.00131   1.92653
    A9        2.09421   0.00003  -0.00042  -0.00005  -0.00048   2.09373
    D1        2.11777  -0.00006   0.00003  -0.00335  -0.00332   2.11445
    D2       -1.02569   0.00005   0.00027   0.00322   0.00348  -1.02221
    D3        0.00096  -0.00006  -0.00012  -0.00323  -0.00335  -0.00239
    D4        3.14069   0.00005   0.00012   0.00333   0.00345  -3.13904
    D5       -2.11586  -0.00004  -0.00026  -0.00302  -0.00328  -2.11914
    D6        1.02386   0.00007  -0.00002   0.00355   0.00353   1.02739
         Item               Value     Threshold  Converged?
 Maximum Force            0.000371     0.000450     YES
 RMS     Force            0.000107     0.000300     YES
 Maximum Displacement     0.003654     0.001800     NO 
 RMS     Displacement     0.001517     0.001200     NO 
 Predicted change in Energy=-1.500500D-06
 GradGradGradGradGradGradGradGradGradGradGradGradGradGradGradGradGradGrad

                          Input orientation:                          
 ---------------------------------------------------------------------
 Center     Atomic      Atomic             Coordinates (Angstroms)
 Number     Number       Type             X           Y           Z
 ---------------------------------------------------------------------
      1          6           0        1.391560   -0.042267    0.000224
      2          1           0        1.717314    0.514771   -0.878140
      3          1           0        1.828098   -1.035807   -0.000408
      4          1           0        1.718533    0.514221    0.878472
      5          6           0       -0.098719   -0.142232    0.001401
      6          8           0       -0.790091   -1.100208   -0.000479
      7          9           0       -0.660067    1.105669   -0.001063
 ---------------------------------------------------------------------
                    Distance matrix (angstroms):
                    1          2          3          4          5
     1  C    0.000000
     2  H    1.089921   0.000000
     3  H    1.085214   1.785211   0.000000
     4  H    1.089913   1.756612   1.785223   0.000000
     5  C    1.493629   2.122079   2.123936   2.121930   0.000000
     6  O    2.424632   3.108943   2.618981   3.110005   1.181405
     7  F    2.350943   2.601992   3.282817   2.604060   1.368347
                    6          7
     6  O    0.000000
     7  F    2.209707   0.000000
 Stoichiometry    C2H3FO
 Framework group  C1[X(C2H3FO)]
 Deg. of freedom    15
 Full point group                 C1      NOp   1
 Largest Abelian subgroup         C1      NOp   1
 Largest concise Abelian subgroup C1      NOp   1
                         Standard orientation:                         
 ---------------------------------------------------------------------
 Center     Atomic      Atomic             Coordinates (Angstroms)
 Number     Number       Type             X           Y           Z
 ---------------------------------------------------------------------
      1          6           0       -1.367876   -0.041611    0.000225
      2          1           0       -1.692556    0.516162    0.878519
      3          1           0       -1.805696   -1.034587    0.001389
      4          1           0       -1.694483    0.514983   -0.878092
      5          6           0        0.122273   -0.143501   -0.001515
      6          8           0        0.812407   -1.102369    0.000431
      7          9           0        0.685232    1.103675    0.000275
 ---------------------------------------------------------------------
 Rotational constants (GHZ):     10.9982390      9.6762227      5.3158643
 Standard basis: Aug-CC-pVTZ (5D, 7F)
 There are   253 symmetry adapted basis functions of A   symmetry.
 Integral buffers will be    262144 words long.
 Raffenetti 2 integral format.
 Two-electron integral symmetry is turned on.
   253 basis functions,   369 primitive gaussians,   295 cartesian basis functions
    16 alpha electrons       16 beta electrons
       nuclear repulsion energy       118.5942653413 Hartrees.
 NAtoms=    7 NActive=    7 NUniq=    7 SFac= 7.50D-01 NAtFMM=   80 NAOKFM=F Big=F
 One-electron integrals computed using PRISM.
 NBasis=   253 RedAO= T  NBF=   253
 NBsUse=   253 1.00D-06 NBFU=   253
 Initial guess read from the read-write file.
 B after Tr=     0.000000    0.000000    0.000000
         Rot=    1.000000    0.000000    0.000000    0.000000 Ang=   0.00 deg.
 Initial guess orbital symmetries:
       Occupied  (A) (A) (A) (A) (A) (A) (A) (A) (A) (A) (A) (A)
                 (A) (A) (A) (A)
       Virtual   (A) (A) (A) (A) (A) (A) (A) (A) (A) (A) (A) (A)
                 (A) (A) (A) (A) (A) (A) (A) (A) (A) (A) (A) (A)
                 (A) (A) (A) (A) (A) (A) (A) (A) (A) (A) (A) (A)
                 (A) (A) (A) (A) (A) (A) (A) (A) (A) (A) (A) (A)
                 (A) (A) (A) (A) (A) (A) (A) (A) (A) (A) (A) (A)
                 (A) (A) (A) (A) (A) (A) (A) (A) (A) (A) (A) (A)
                 (A) (A) (A) (A) (A) (A) (A) (A) (A) (A) (A) (A)
                 (A) (A) (A) (A) (A) (A) (A) (A) (A) (A) (A) (A)
                 (A) (A) (A) (A) (A) (A) (A) (A) (A) (A) (A) (A)
                 (A) (A) (A) (A) (A) (A) (A) (A) (A) (A) (A) (A)
                 (A) (A) (A) (A) (A) (A) (A) (A) (A) (A) (A) (A)
                 (A) (A) (A) (A) (A) (A) (A) (A) (A) (A) (A) (A)
                 (A) (A) (A) (A) (A) (A) (A) (A) (A) (A) (A) (A)
                 (A) (A) (A) (A) (A) (A) (A) (A) (A) (A) (A) (A)
                 (A) (A) (A) (A) (A) (A) (A) (A) (A) (A) (A) (A)
                 (A) (A) (A) (A) (A) (A) (A) (A) (A) (A) (A) (A)
                 (A) (A) (A) (A) (A) (A) (A) (A) (A) (A) (A) (A)
                 (A) (A) (A) (A) (A) (A) (A) (A) (A) (A) (A) (A)
                 (A) (A) (A) (A) (A) (A) (A) (A) (A) (A) (A) (A)
                 (A) (A) (A) (A) (A) (A) (A) (A) (A)
 Requested convergence on RMS density matrix=1.00D-08 within 128 cycles.
 Requested convergence on MAX density matrix=1.00D-06.
 Requested convergence on             energy=1.00D-06.
 No special actions if energy rises.
 SCF Done:  E(RB3LYP) =  -253.203123479     A.U. after   12 cycles
             Convg  =    0.3474D-08             -V/T =  2.0057
 Calling FoFJK, ICntrl=      2127 FMM=F ISym2X=0 I1Cent= 0 IOpClX= 0 NMat=1 NMatS=1 NMatT=0.
 ***** Axes restored to original set *****
 -------------------------------------------------------------------
 Center     Atomic                   Forces (Hartrees/Bohr)
 Number     Number              X              Y              Z
 -------------------------------------------------------------------
      1        6          -0.000393446   -0.000097592    0.000215743
      2        1           0.000009321   -0.000003939    0.000007969
      3        1           0.000006682    0.000076686    0.000016354
      4        1           0.000108035   -0.000000454   -0.000006152
      5        6           0.000171153    0.000345466   -0.000657961
      6        8           0.000013509   -0.000154503    0.000241923
      7        9           0.000084746   -0.000165663    0.000182123
 -------------------------------------------------------------------
 Cartesian Forces:  Max     0.000657961 RMS     0.000213905

 GradGradGradGradGradGradGradGradGradGradGradGradGradGradGradGradGradGrad
 Berny optimization.
 Using GEDIIS/GDIIS optimizer.
 Internal  Forces:  Max     0.000271750 RMS     0.000120407
 Search for a local minimum.
 Step number   6 out of a maximum of   31
 All quantities printed in internal units (Hartrees-Bohrs-Radians)
 Mixed Optimization -- En-DIIS/RFO-DIIS
 Swaping is turned off.
 Update second derivatives using D2CorX and points    1    2    3    4    5
                                                      6
 DE=  9.11D-07 DEPred=-1.50D-06 R=-6.07D-01
 Trust test=-6.07D-01 RLast= 9.04D-03 DXMaxT set to 2.34D-01
     Eigenvalues ---    0.01013   0.03139   0.07299   0.07606   0.09580
     Eigenvalues ---    0.14297   0.16608   0.17306   0.28207   0.31983
     Eigenvalues ---    0.33276   0.33571   0.34421   0.38826   1.00897
     Eigenvalues --- 1000.000001000.000001000.000001000.000001000.00000
     Eigenvalues --- 1000.00000
 En-DIIS/RFO-DIIS IScMMF=        0 using points:     6    5    4    3
 RFO step:  Lambda=-8.88567288D-07.
 DIIS coeffs:      0.42716      0.97061     -0.51562      0.11785
 Iteration  1 RMS(Cart)=  0.00100588 RMS(Int)=  0.00000201
 Iteration  2 RMS(Cart)=  0.00000186 RMS(Int)=  0.00000078
 Iteration  3 RMS(Cart)=  0.00000000 RMS(Int)=  0.00000078
 Variable       Old X    -DE/DX   Delta X   Delta X   Delta X     New X
                                  (DIIS)     (GDIIS)  (Total)
    R1        2.05965  -0.00001  -0.00012   0.00019   0.00006   2.05972
    R2        2.05076  -0.00006  -0.00012  -0.00005  -0.00017   2.05059
    R3        2.05964   0.00003  -0.00011   0.00019   0.00008   2.05972
    R4        2.82255  -0.00027  -0.00050  -0.00042  -0.00093   2.82162
    R5        2.23253   0.00011   0.00037  -0.00008   0.00029   2.23282
    R6        2.58580  -0.00018  -0.00097   0.00009  -0.00089   2.58491
    A1        1.92539  -0.00002  -0.00043  -0.00009  -0.00052   1.92487
    A2        1.87421  -0.00006  -0.00027  -0.00013  -0.00040   1.87381
    A3        1.91033  -0.00001   0.00031   0.00031   0.00062   1.91095
    A4        1.92542  -0.00008  -0.00047  -0.00009  -0.00056   1.92487
    A5        1.91780   0.00001   0.00035  -0.00030   0.00006   1.91786
    A6        1.91013   0.00016   0.00050   0.00031   0.00081   1.91094
    A7        2.26291  -0.00012  -0.00108   0.00026  -0.00082   2.26209
    A8        1.92653   0.00004   0.00066  -0.00016   0.00050   1.92703
    A9        2.09373   0.00008   0.00042  -0.00010   0.00033   2.09406
    D1        2.11445   0.00012   0.00226  -0.00006   0.00220   2.11665
    D2       -1.02221  -0.00016  -0.00256  -0.00016  -0.00272  -1.02492
    D3       -0.00239   0.00015   0.00237   0.00004   0.00241   0.00002
    D4       -3.13904  -0.00014  -0.00245  -0.00005  -0.00250  -3.14155
    D5       -2.11914   0.00014   0.00241   0.00014   0.00255  -2.11659
    D6        1.02739  -0.00014  -0.00241   0.00005  -0.00237   1.02502
         Item               Value     Threshold  Converged?
 Maximum Force            0.000272     0.000450     YES
 RMS     Force            0.000120     0.000300     YES
 Maximum Displacement     0.002641     0.001800     NO 
 RMS     Displacement     0.001006     0.001200     YES
 Predicted change in Energy=-1.441275D-06
 GradGradGradGradGradGradGradGradGradGradGradGradGradGradGradGradGradGrad

                          Input orientation:                          
 ---------------------------------------------------------------------
 Center     Atomic      Atomic             Coordinates (Angstroms)
 Number     Number       Type             X           Y           Z
 ---------------------------------------------------------------------
      1          6           0        1.391089   -0.042142    0.000000
      2          1           0        1.718304    0.514400   -0.878177
      3          1           0        1.827487   -1.035648   -0.000056
      4          1           0        1.718309    0.514297    0.878241
      5          6           0       -0.098718   -0.141830    0.000004
      6          8           0       -0.789550   -1.100387   -0.000021
      7          9           0       -0.660293    1.105456    0.000016
 ---------------------------------------------------------------------
                    Distance matrix (angstroms):
                    1          2          3          4          5
     1  C    0.000000
     2  H    1.089956   0.000000
     3  H    1.085125   1.784843   0.000000
     4  H    1.089956   1.756418   1.784840   0.000000
     5  C    1.493138   2.122123   2.123482   2.122120   0.000000
     6  O    2.423855   3.109345   2.617838   3.109326   1.181559
     7  F    2.350563   2.603516   3.282282   2.603555   1.367877
                    6          7
     6  O    0.000000
     7  F    2.209626   0.000000
 Stoichiometry    C2H3FO
 Framework group  C1[X(C2H3FO)]
 Deg. of freedom    15
 Full point group                 C1      NOp   1
 Largest Abelian subgroup         C1      NOp   1
 Largest concise Abelian subgroup C1      NOp   1
                         Standard orientation:                         
 ---------------------------------------------------------------------
 Center     Atomic      Atomic             Coordinates (Angstroms)
 Number     Number       Type             X           Y           Z
 ---------------------------------------------------------------------
      1          6           0        1.367432   -0.040944    0.000000
      2          1           0        1.693711    0.516146   -0.878178
      3          1           0        1.805499   -1.033715   -0.000056
      4          1           0        1.693717    0.516044    0.878241
      5          6           0       -0.122205   -0.143136    0.000003
      6          8           0       -0.811426   -1.102853   -0.000021
      7          9           0       -0.685876    1.103204    0.000016
 ---------------------------------------------------------------------
 Rotational constants (GHZ):     10.9997964      9.6804000      5.3174466
 Standard basis: Aug-CC-pVTZ (5D, 7F)
 There are   253 symmetry adapted basis functions of A   symmetry.
 Integral buffers will be    262144 words long.
 Raffenetti 2 integral format.
 Two-electron integral symmetry is turned on.
   253 basis functions,   369 primitive gaussians,   295 cartesian basis functions
    16 alpha electrons       16 beta electrons
       nuclear repulsion energy       118.6094752456 Hartrees.
 NAtoms=    7 NActive=    7 NUniq=    7 SFac= 7.50D-01 NAtFMM=   80 NAOKFM=F Big=F
 One-electron integrals computed using PRISM.
 NBasis=   253 RedAO= T  NBF=   253
 NBsUse=   253 1.00D-06 NBFU=   253
 Initial guess read from the read-write file.
 B after Tr=     0.000000    0.000000    0.000000
         Rot=    1.000000    0.000000    0.000000    0.000000 Ang=   0.00 deg.
 Initial guess orbital symmetries:
       Occupied  (A) (A) (A) (A) (A) (A) (A) (A) (A) (A) (A) (A)
                 (A) (A) (A) (A)
       Virtual   (A) (A) (A) (A) (A) (A) (A) (A) (A) (A) (A) (A)
                 (A) (A) (A) (A) (A) (A) (A) (A) (A) (A) (A) (A)
                 (A) (A) (A) (A) (A) (A) (A) (A) (A) (A) (A) (A)
                 (A) (A) (A) (A) (A) (A) (A) (A) (A) (A) (A) (A)
                 (A) (A) (A) (A) (A) (A) (A) (A) (A) (A) (A) (A)
                 (A) (A) (A) (A) (A) (A) (A) (A) (A) (A) (A) (A)
                 (A) (A) (A) (A) (A) (A) (A) (A) (A) (A) (A) (A)
                 (A) (A) (A) (A) (A) (A) (A) (A) (A) (A) (A) (A)
                 (A) (A) (A) (A) (A) (A) (A) (A) (A) (A) (A) (A)
                 (A) (A) (A) (A) (A) (A) (A) (A) (A) (A) (A) (A)
                 (A) (A) (A) (A) (A) (A) (A) (A) (A) (A) (A) (A)
                 (A) (A) (A) (A) (A) (A) (A) (A) (A) (A) (A) (A)
                 (A) (A) (A) (A) (A) (A) (A) (A) (A) (A) (A) (A)
                 (A) (A) (A) (A) (A) (A) (A) (A) (A) (A) (A) (A)
                 (A) (A) (A) (A) (A) (A) (A) (A) (A) (A) (A) (A)
[...]
 IR Inten    --     0.0360                 0.1535                 5.7190
  Atom  AN      X      Y      Z        X      Y      Z        X      Y      Z
     1   6     0.00   0.00   0.00    -0.06   0.20   0.00     0.00   0.00  -0.01
     2   1    -0.01  -0.50  -0.32    -0.33   0.38   0.01     0.57  -0.02   0.20
     3   1     0.00   0.00   0.53     0.41   0.41   0.00     0.00   0.00   0.36
     4   1     0.01   0.50  -0.32    -0.33   0.38  -0.01    -0.57   0.02   0.20
     5   6     0.00   0.00   0.01    -0.03  -0.16   0.00     0.00   0.00  -0.34
     6   8     0.00   0.00  -0.05    -0.17  -0.05   0.00     0.00   0.00   0.12
     7   9     0.00   0.00   0.04     0.22  -0.05   0.00     0.00   0.00   0.08
                     4                      5                      6
                     A                      A                      A
 Frequencies --   597.3591               824.7253              1003.1911
 Red. masses --     8.0363                 6.4395                 1.9515
 Frc consts  --     1.6896                 2.5806                 1.1572
 IR Inten    --    17.1424                71.6098                49.7232
  Atom  AN      X      Y      Z        X      Y      Z        X      Y      Z
     1   6     0.39   0.05   0.00    -0.35   0.05   0.00     0.09   0.17   0.00
     2   1     0.34   0.07  -0.01    -0.17  -0.08  -0.02     0.51  -0.21  -0.07
     3   1     0.50   0.10   0.00    -0.73  -0.11   0.00    -0.53  -0.12   0.00
     4   1     0.34   0.07   0.01    -0.17  -0.08   0.02     0.51  -0.21   0.07
     5   6     0.17  -0.02   0.00     0.04   0.24   0.00    -0.15   0.06   0.00
     6   8    -0.30   0.32   0.00     0.12   0.21   0.00    -0.05  -0.10   0.00
     7   9    -0.16  -0.31   0.00     0.15  -0.35   0.00     0.06  -0.03   0.00
                     7                      8                      9
                     A                      A                      A
 Frequencies --  1072.6080              1186.4059              1404.0119
 Red. masses --     1.7859                 3.0772                 1.2887
 Frc consts  --     1.2106                 2.5520                 1.4967
 IR Inten    --     8.8189               195.0951                31.5142
  Atom  AN      X      Y      Z        X      Y      Z        X      Y      Z
     1   6     0.00   0.00   0.17    -0.10   0.14   0.00     0.15   0.01   0.00
     2   1    -0.59  -0.12  -0.15     0.06  -0.24  -0.16    -0.56  -0.01  -0.27
     3   1     0.00   0.00  -0.39    -0.79  -0.17   0.00    -0.40  -0.23   0.00
     4   1     0.59   0.12  -0.15     0.06  -0.24   0.16    -0.56  -0.01   0.27
     5   6     0.00   0.00  -0.20     0.29  -0.25   0.00    -0.03   0.03   0.00
     6   8     0.00   0.00   0.04    -0.04   0.04   0.00     0.00  -0.01   0.00
     7   9     0.00   0.00   0.02    -0.05   0.07   0.00     0.01  -0.01   0.00
                    10                     11                     12
                     A                      A                      A
 Frequencies --  1468.9285              1475.4597              1901.9535
 Red. masses --     1.0476                 1.0446                12.1770
 Frc consts  --     1.3318                 1.3399                25.9532
 IR Inten    --    14.7285                 7.8827               309.5144
  Atom  AN      X      Y      Z        X      Y      Z        X      Y      Z
     1   6     0.03  -0.04   0.00     0.00   0.00  -0.05    -0.07  -0.03   0.00
     2   1     0.06   0.50   0.35    -0.35   0.34   0.05    -0.12  -0.07  -0.07
     3   1    -0.43  -0.23   0.00     0.00   0.00   0.72     0.16   0.11   0.00
     4   1     0.06   0.50  -0.35     0.35  -0.34   0.05    -0.12  -0.07   0.07
     5   6     0.02   0.00   0.00     0.00   0.00  -0.03     0.53   0.59   0.00
     6   8    -0.01  -0.01   0.00     0.00   0.00   0.00    -0.32  -0.42   0.00
     7   9     0.00   0.00   0.00     0.00   0.00   0.00    -0.02   0.00   0.00
                    13                     14                     15
                     A                      A                      A
 Frequencies --  3054.1191              3112.0389              3160.5131
 Red. masses --     1.0362                 1.0994                 1.1034
 Frc consts  --     5.6946                 6.2734                 6.4940
 IR Inten    --     0.1533                 1.1638                 2.9380
  Atom  AN      X      Y      Z        X      Y      Z        X      Y      Z
     1   6     0.05   0.02   0.00     0.00   0.00   0.09     0.02  -0.09   0.00
     2   1    -0.19  -0.32   0.52     0.22   0.37  -0.56     0.09   0.14  -0.24
     3   1    -0.16   0.39   0.00     0.00   0.00   0.02    -0.37   0.83   0.00
     4   1    -0.19  -0.32  -0.52    -0.22  -0.37  -0.56     0.09   0.13   0.24
     5   6     0.00   0.00   0.00     0.00   0.00   0.00     0.00   0.00   0.00
     6   8     0.00   0.00   0.00     0.00   0.00   0.00     0.00   0.00   0.00
     7   9     0.00   0.00   0.00     0.00   0.00   0.00     0.00   0.00   0.00

 -------------------
 - Thermochemistry -
 -------------------
 Temperature   298.150 Kelvin.  Pressure   1.00000 Atm.
 Atom     1 has atomic number  6 and mass  12.00000
 Atom     2 has atomic number  1 and mass   1.00783
 Atom     3 has atomic number  1 and mass   1.00783
 Atom     4 has atomic number  1 and mass   1.00783
 Atom     5 has atomic number  6 and mass  12.00000
 Atom     6 has atomic number  8 and mass  15.99491
 Atom     7 has atomic number  9 and mass  18.99840
 Molecular mass:    62.01679 amu.
 Principal axes and moments of inertia in atomic units:
                           1         2         3
     Eigenvalues --   164.07042 186.43250 339.39996
           X            0.99627   0.08632   0.00000
           Y           -0.08632   0.99627  -0.00002
           Z            0.00000   0.00002   1.00000
 This molecule is an asymmetric top.
 Rotational symmetry number  1.
 Rotational temperatures (Kelvin)      0.52791     0.46459     0.25520
 Rotational constants (GHZ):          10.99980     9.68040     5.31745
 Zero-point vibrational energy     127809.5 (Joules/Mol)
                                   30.54721 (Kcal/Mol)
 Warning -- explicit consideration of   4 degrees of freedom as
           vibrations may cause significant error
 Vibrational temperatures:    172.18   596.29   823.92   859.47  1186.59
          (Kelvin)           1443.37  1543.24  1706.97  2020.06  2113.46
                             2122.85  2736.48  4394.19  4477.52  4547.27
 
 Zero-point correction=                           0.048680 (Hartree/Particle)
 Thermal correction to Energy=                    0.053016
 Thermal correction to Enthalpy=                  0.053960
 Thermal correction to Gibbs Free Energy=         0.021860
 Sum of electronic and zero-point Energies=           -253.154445
 Sum of electronic and thermal Energies=              -253.150109
 Sum of electronic and thermal Enthalpies=            -253.149165
 Sum of electronic and thermal Free Energies=         -253.181265
 
                     E (Thermal)             CV                S
                      KCal/Mol        Cal/Mol-Kelvin    Cal/Mol-Kelvin
 Total                   33.268             13.251             67.559
 Electronic               0.000              0.000              0.000
 Translational            0.889              2.981             38.294
 Rotational               0.889              2.981             23.855
 Vibrational             31.490              7.289              5.410
 Vibration     1          0.609              1.933              3.106
 Vibration     2          0.778              1.439              0.911
 Vibration     3          0.929              1.090              0.499
 Vibration     4          0.955              1.037              0.454
                       Q            Log10(Q)             Ln(Q)
 Total Bot       0.881149D-10        -10.054951        -23.152379
 Total V=0       0.216910D+13         12.336280         28.405335
 Vib (Bot)       0.125850D-21        -21.900148        -50.426954
 Vib (Bot)    1  0.170781D+01          0.232440          0.535212
 Vib (Bot)    2  0.425471D+00         -0.371130         -0.854558
 Vib (Bot)    3  0.268051D+00         -0.571783         -1.316578
 Vib (Bot)    4  0.250645D+00         -0.600941         -1.383717
 Vib (V=0)       0.309801D+01          0.491083          1.130760
 Vib (V=0)    1  0.227950D+01          0.357839          0.823956
 Vib (V=0)    2  0.115653D+01          0.063155          0.145420
 Vib (V=0)    3  0.106732D+01          0.028294          0.065150
 Vib (V=0)    4  0.105931D+01          0.025021          0.057614
 Electronic      0.100000D+01          0.000000          0.000000
 Translational   0.191964D+08          7.283219         16.770232
 Rotational      0.364736D+05          4.561978         10.504343
 ***** Axes restored to original set *****
 -------------------------------------------------------------------
 Center     Atomic                   Forces (Hartrees/Bohr)
 Number     Number              X              Y              Z
 -------------------------------------------------------------------
      1        6          -0.000024559   -0.000011099    0.000001154
      2        1          -0.000000629    0.000008451    0.000005960
      3        1           0.000008509    0.000004313    0.000000061
      4        1          -0.000000236    0.000008516   -0.000006092
      5        6           0.000008667   -0.000024782   -0.000003043
      6        8           0.000025464    0.000011903    0.000001071
      7        9          -0.000017216    0.000002699    0.000000889
 -------------------------------------------------------------------
 Cartesian Forces:  Max     0.000025464 RMS     0.000011609

 GradGradGradGradGradGradGradGradGradGradGradGradGradGradGradGradGradGrad
 Berny optimization.
 Internal  Forces:  Max     0.000027879 RMS     0.000009015
 Search for a local minimum.
 Step number   1 out of a maximum of    2
 All quantities printed in internal units (Hartrees-Bohrs-Radians)
 Second derivative matrix not updated -- analytic derivatives used.
     Eigenvalues ---    0.00100   0.05061   0.05503   0.05682   0.12454
     Eigenvalues ---    0.12788   0.14056   0.17897   0.25021   0.32723
     Eigenvalues ---    0.33778   0.33958   0.34412   0.35375   0.96386
     Eigenvalues --- 1000.000001000.000001000.000001000.000001000.00000
     Eigenvalues --- 1000.00000
 Angle between quadratic step and forces=  50.01 degrees.
 Linear search not attempted -- first point.
 Iteration  1 RMS(Cart)=  0.00004299 RMS(Int)=  0.00000000
 Iteration  2 RMS(Cart)=  0.00000000 RMS(Int)=  0.00000000
 Variable       Old X    -DE/DX   Delta X   Delta X   Delta X     New X
                                 (Linear)    (Quad)   (Total)
    R1        2.05972   0.00000   0.00000   0.00000   0.00000   2.05972
    R2        2.05059   0.00000   0.00000   0.00001   0.00001   2.05059
    R3        2.05972   0.00000   0.00000   0.00000   0.00000   2.05972
    R4        2.82162  -0.00002   0.00000  -0.00007  -0.00007   2.82155
    R5        2.23282  -0.00003   0.00000  -0.00003  -0.00003   2.23279
    R6        2.58491   0.00001   0.00000   0.00005   0.00005   2.58496
    A1        1.92487   0.00000   0.00000   0.00000   0.00000   1.92487
    A2        1.87381  -0.00001   0.00000  -0.00011  -0.00011   1.87370
    A3        1.91095   0.00000   0.00000   0.00003   0.00003   1.91098
    A4        1.92487   0.00000   0.00000   0.00001   0.00001   1.92487
    A5        1.91786   0.00000   0.00000   0.00003   0.00003   1.91789
    A6        1.91094   0.00000   0.00000   0.00004   0.00004   1.91098
    A7        2.26209  -0.00001   0.00000  -0.00004  -0.00004   2.26205
    A8        1.92703   0.00001   0.00000   0.00005   0.00005   1.92709
    A9        2.09406   0.00000   0.00000  -0.00001  -0.00001   2.09405
    D1        2.11665   0.00000   0.00000   0.00002   0.00002   2.11667
    D2       -1.02492   0.00000   0.00000   0.00000   0.00000  -1.02492
    D3        0.00002   0.00000   0.00000  -0.00002  -0.00002   0.00000
    D4       -3.14155   0.00000   0.00000  -0.00004  -0.00004  -3.14159
    D5       -2.11659   0.00000   0.00000  -0.00007  -0.00007  -2.11666
    D6        1.02502   0.00000   0.00000  -0.00009  -0.00009   1.02493
         Item               Value     Threshold  Converged?
 Maximum Force            0.000028     0.000450     YES
 RMS     Force            0.000009     0.000300     YES
 Maximum Displacement     0.000085     0.001800     YES
 RMS     Displacement     0.000043     0.001200     YES
 Predicted change in Energy=-2.819776D-09
 Optimization completed.
    -- Stationary point found.
                           ----------------------------
                           !   Optimized Parameters   !
                           ! (Angstroms and Degrees)  !
 --------------------------                            --------------------------
 ! Name  Definition              Value          Derivative Info.                !
 --------------------------------------------------------------------------------
 ! R1    R(1,2)                  1.09           -DE/DX =    0.0                 !
 ! R2    R(1,3)                  1.0851         -DE/DX =    0.0                 !
 ! R3    R(1,4)                  1.09           -DE/DX =    0.0                 !
 ! R4    R(1,5)                  1.4931         -DE/DX =    0.0                 !
 ! R5    R(5,6)                  1.1816         -DE/DX =    0.0                 !
 ! R6    R(5,7)                  1.3679         -DE/DX =    0.0                 !
 ! A1    A(2,1,3)              110.287          -DE/DX =    0.0                 !
 ! A2    A(2,1,4)              107.3614         -DE/DX =    0.0                 !
 ! A3    A(2,1,5)              109.4894         -DE/DX =    0.0                 !
 ! A4    A(3,1,4)              110.2867         -DE/DX =    0.0                 !
 ! A5    A(3,1,5)              109.8854         -DE/DX =    0.0                 !
 ! A6    A(4,1,5)              109.489          -DE/DX =    0.0                 !
 ! A7    A(1,5,6)              129.6085         -DE/DX =    0.0                 !
 ! A8    A(1,5,7)              110.4109         -DE/DX =    0.0                 !
 ! A9    A(6,5,7)              119.9806         -DE/DX =    0.0                 !
 ! D1    D(2,1,5,6)            121.2752         -DE/DX =    0.0                 !
 ! D2    D(2,1,5,7)            -58.7237         -DE/DX =    0.0                 !
 ! D3    D(3,1,5,6)              0.0014         -DE/DX =    0.0                 !
 ! D4    D(3,1,5,7)           -179.9974         -DE/DX =    0.0                 !
 ! D5    D(4,1,5,6)           -121.2717         -DE/DX =    0.0                 !
 ! D6    D(4,1,5,7)             58.7294         -DE/DX =    0.0                 !
 --------------------------------------------------------------------------------
 GradGradGradGradGradGradGradGradGradGradGradGradGradGradGradGradGradGrad

 1|1|UNPC-LAWALM-PC|Freq|RB3LYP|Aug-CC-pVTZ|C2H3F1O1|LAWALM|25-Mar-2015
 |0||#N Geom=AllCheck Guess=TCheck SCRF=Check GenChk RB3LYP/Aug-CC-pVTZ
  Freq||clac-ccpvtz||0,1|C,1.3910890293,-0.0421416194,0.0000000396|H,1.
 7183040924,0.5143996071,-0.8781772476|H,1.8274871438,-1.0356475041,-0.
 0000560316|H,1.7183092714,0.5142974641,0.8782409386|C,-0.0987179279,-0
 .1418298444,0.0000036818|O,-0.7895504051,-1.1003866307,-0.0000209503|F
 ,-0.6602932039,1.1054555274,0.0000163196||Version=IA32W-G09RevA.02|Sta
 te=1-A|HF=-253.203125|RMSD=5.905e-010|RMSF=1.161e-005|ZeroPoint=0.0486
 801|Thermal=0.0530156|Dipole=1.1637619,0.2498674,0.0000125|DipoleDeriv
 =-0.2815825,-0.0447834,0.000021,-0.1249626,-0.0056812,-0.0000245,-0.00
 00066,-0.0000039,0.0510001,0.04953,-0.0091803,0.0021934,0.0103015,0.07
 08959,0.0578888,0.0330689,0.0601024,0.012409,0.0383689,0.0190901,-0.00
 00128,0.0561457,-0.0254638,0.0000222,0.0000065,-0.0000004,0.0908722,0.
 049527,-0.0091838,-0.0022088,0.0102998,0.0709012,-0.0578959,-0.0330687
 ,-0.0600984,0.0123717,1.4672016,0.028771,0.0000384,-0.0372958,1.907150
 4,0.0000566,0.0000002,0.0000384,0.3227409,-0.7776568,-0.3853163,-0.000
 0281,-0.187756,-0.9148191,-0.0000419,-0.0000069,-0.0000253,-0.3176897,
 -0.5453881,0.4006027,-0.000003,0.2732674,-1.1029833,-0.0000053,0.00000
 67,-0.0000128,-0.1717043|Polar=33.6039838,2.1135824,32.7897242,0.00040
 96,-0.0006527,24.0464976|PG=C01 [X(C2H3F1O1)]|NImag=0||0.48112726,-0.0
 2413293,0.60521248,-0.00000164,0.00000149,0.53025600,-0.06984083,-0.03
 675681,0.06670423,0.07534394,-0.03686984,-0.11379652,0.11283746,0.0446
 9557,0.12040004,0.06590584,0.11171734,-0.21623025,-0.07127292,-0.12197
 618,0.23498574,-0.09166974,0.09532552,0.00000587,0.00434102,-0.0099921
 8,-0.00178940,0.09971461,0.10329111,-0.28219481,-0.00001314,0.00532604
 ,-0.01191680,-0.00129856,-0.10993026,0.30141558,0.00000638,-0.00001309
 ,-0.04802982,-0.01199367,0.02286064,0.00155703,-0.00000634,0.00001448,
 0.04576729,-0.06984160,-0.03675024,-0.06670972,0.00344944,0.00605454,0
 .00837793,0.00434111,0.00532488,0.01199420,0.07534472,-0.03686288,-0.1
 1376967,-0.11282484,0.00605569,0.00858444,0.01355462,-0.00999257,-0.01
 191455,-0.02286234,0.04468817,0.12037126,-0.06591077,-0.11170501,-0.21
 625525,-0.00837744,-0.01355132,-0.02112040,0.00178816,0.00129700,0.001
 55425,0.07127925,0.12196235,0.23501306,-0.20217083,-0.00041107,0.00000
 066,-0.00864610,-0.00413301,0.00034358,-0.01104503,-0.00222074,-0.0000
 0029,-0.00864618,-0.00413276,-0.00034347,0.75070149,-0.00162826,-0.072
 36004,-0.00000051,-0.02084213,-0.00465892,0.00067144,0.03327145,0.0006
 7446,0.00000012,-0.02083847,-0.00465848,-0.00067097,0.30433591,0.76797
 176,0.00000013,0.00000045,-0.09399878,0.03339497,0.00002885,0.00131424
 ,0.00000187,0.00000070,-0.00312446,-0.03339767,-0.00002988,0.00131398,
 0.00000922,0.00001314,0.22438701,-0.02454741,-0.04126239,-0.00000048,-
 0.00536626,-0.00089345,-0.00164994,0.00304664,-0.00049908,0.,-0.005365
 97,-0.00089380,0.00164936,-0.39122791,-0.34333119,-0.00000896,0.385544
 94,-0.01641739,-0.00718304,-0.00000025,-0.00003347,0.00178769,-0.00149
 022,-0.00179049,0.00144867,0.00000010,-0.00003402,0.00178713,0.0014896
 8,-0.36940462,-0.54616759,-0.00001232,0.39804612,0.66068407,-0.0000001
 6,-0.00000116,0.02966761,-0.00520304,-0.00007786,-0.00102347,-0.000000
 20,-0.00000004,-0.00032084,0.00520337,0.00007847,-0.00102319,-0.000009
 97,-0.00001225,-0.07563345,0.00001003,0.00001511,0.02818025,-0.0230568
 5,0.04398792,0.00000109,0.00071880,0.00113837,0.00008491,-0.00872860,-
 0.00129196,-0.00000028,0.00071849,0.00113815,-0.00008509,-0.12896544,0
 .04903269,0.00000044,0.03791596,-0.01036612,-0.00000004,0.12139763,0.0
 1262017,-0.01590840,-0.00000021,0.00155511,-0.00039993,-0.00117843,0.0
 0310853,0.00248745,0.00000009,0.00155515,-0.00040012,0.00117826,0.0759
 6629,-0.14080119,-0.00000095,-0.01116620,-0.11235694,-0.00000228,-0.08
 363906,0.26737912,0.00000021,-0.00000002,0.01459048,-0.00325213,-0.000
 12159,0.00051711,0.00000004,-0.00000044,0.00259655,0.00325264,0.000121
 61,0.00051755,0.00000028,-0.00000097,-0.05425854,-0.00000002,-0.000002
 10,0.02015309,-0.00000103,0.00000351,0.01588378||0.00002456,0.00001110
 ,-0.00000115,0.00000063,-0.00000845,-0.00000596,-0.00000851,-0.0000043
 1,-0.00000006,0.00000024,-0.00000852,0.00000609,-0.00000867,0.00002478
 ,0.00000304,-0.00002546,-0.00001190,-0.00000107,0.00001722,-0.00000270
 ,-0.00000089|||@


 Other things may change us, but we start and end with family.
 -- Anthony Brandt
 Job cpu time:  0 days  0 hours 53 minutes 30.0 seconds.
 File lengths (MBytes):  RWF=     43 Int=      0 D2E=      0 Chk=      5 Scr=      1
 Normal termination of Gaussian 09 at Wed Mar 25 16:21:12 2015.
