 Entering Link 1 = C:\G09W\l1.exe PID=      4804.
  
 Copyright (c) 1988,1990,1992,1993,1995,1998,2003,2009, Gaussian, Inc.
                  All Rights Reserved.
  
 This is part of the Gaussian(R) 09 program.  It is based on
 the Gaussian(R) 03 system (copyright 2003, Gaussian, Inc.),
 the Gaussian(R) 98 system (copyright 1998, Gaussian, Inc.),
 the Gaussian(R) 94 system (copyright 1995, Gaussian, Inc.),
 the Gaussian 92(TM) system (copyright 1992, Gaussian, Inc.),
 the Gaussian 90(TM) system (copyright 1990, Gaussian, Inc.),
 the Gaussian 88(TM) system (copyright 1988, Gaussian, Inc.),
 the Gaussian 86(TM) system (copyright 1986, Carnegie Mellon
 University), and the Gaussian 82(TM) system (copyright 1983,
 Carnegie Mellon University). Gaussian is a federally registered
 trademark of Gaussian, Inc.
  
 This software contains proprietary and confidential information,
 including trade secrets, belonging to Gaussian, Inc.
  
 This software is provided under written license and may be
 used, copied, transmitted, or stored only in accord with that
 written license.
  
 The following legend is applicable only to US Government
 contracts under FAR:
  
                    RESTRICTED RIGHTS LEGEND
  
 Use, reproduction and disclosure by the US Government is
 subject to restrictions as set forth in subparagraphs (a)
 and (c) of the Commercial Computer Software - Restricted
 Rights clause in FAR 52.227-19.
  
 Gaussian, Inc.
 340 Quinnipiac St., Bldg. 40, Wallingford CT 06492
  
  
 ---------------------------------------------------------------
 Warning -- This program may not be used in any manner that
 competes with the business of Gaussian, Inc. or will provide
 assistance to any competitor of Gaussian, Inc.  The licensee
 of this program is prohibited from giving any competitor of
 Gaussian, Inc. access to this program.  By using this program,
 the user acknowledges that Gaussian, Inc. is engaged in the
 business of creating and licensing software in the field of
 computational chemistry and represents and warrants to the
 licensee that it is not a competitor of Gaussian, Inc. and that
 it will not use this program in any manner prohibited above.
 ---------------------------------------------------------------
  

 Cite this work as:
 Gaussian 09, Revision A.02,
 M. J. Frisch, G. W. Trucks, H. B. Schlegel, G. E. Scuseria, 
 M. A. Robb, J. R. Cheeseman, G. Scalmani, V. Barone, B. Mennucci, 
 G. A. Petersson, H. Nakatsuji, M. Caricato, X. Li, H. P. Hratchian, 
 A. F. Izmaylov, J. Bloino, G. Zheng, J. L. Sonnenberg, M. Hada, 
 M. Ehara, K. Toyota, R. Fukuda, J. Hasegawa, M. Ishida, T. Nakajima, 
 Y. Honda, O. Kitao, H. Nakai, T. Vreven, J. A. Montgomery, Jr., 
 J. E. Peralta, F. Ogliaro, M. Bearpark, J. J. Heyd, E. Brothers, 
 K. N. Kudin, V. N. Staroverov, R. Kobayashi, J. Normand, 
 K. Raghavachari, A. Rendell, J. C. Burant, S. S. Iyengar, J. Tomasi, 
 M. Cossi, N. Rega, J. M. Millam, M. Klene, J. E. Knox, J. B. Cross, 
 V. Bakken, C. Adamo, J. Jaramillo, R. Gomperts, R. E. Stratmann, 
 O. Yazyev, A. J. Austin, R. Cammi, C. Pomelli, J. W. Ochterski, 
 R. L. Martin, K. Morokuma, V. G. Zakrzewski, G. A. Voth, 
 P. Salvador, J. J. Dannenberg, S. Dapprich, A. D. Daniels, 
 O. Farkas, J. B. Foresman, J. V. Ortiz, J. Cioslowski, 
 and D. J. Fox, Gaussian, Inc., Wallingford CT, 2009.
 
 ******************************************
 Gaussian 09:  IA32W-G09RevA.02 11-Jun-2009
                25-Mar-2015 
 ******************************************
 %chk=C:\Users\214584429\Dropbox\fac-ccpvtz-lan.chk
 -------------------------------------------------------------
 # opt freq b3lyp/genecp geom=connectivity gfinput pseudo=read
 -------------------------------------------------------------
 1/14=-1,18=20,19=15,26=3,38=1,57=2/1,3;
 2/9=110,12=2,17=6,18=5,40=1/2;
 3/5=7,11=2,16=1,17=8,24=10,25=1,30=1,71=1,74=-5/1,2,3;
 4//1;
 5/5=2,38=5/2;
 6/7=2,8=2,9=2,10=2,28=1/1;
 7//1,2,3,16;
 1/14=-1,18=20,19=15/3(2);
 2/9=110/2;
 99//99;
 2/9=110/2;
 3/5=7,6=1,11=2,16=1,17=8,25=1,30=1,71=1,74=-5,82=7/1,2,3;
 4/5=5,16=3/1;
 5/5=2,38=5/2;
 7//1,2,3,16;
 1/14=-1,18=20,19=15/3(-5);
 2/9=110/2;
 6/7=2,8=2,9=2,10=2,19=2,28=1/1;
 99/9=1/99;
 -----------------------------------------------
 gen calculation FAc-C H O=aug-cc-pvtz/F=lanl2dz
 -----------------------------------------------
 Symbolic Z-matrix:
 Charge =  0 Multiplicity = 1
 C                     1.37869  -0.03125   0. 
 H                     1.7614    0.50902  -0.88336 
 H                     1.84595  -1.03091  -0.00007 
 H                     1.76139   0.50889   0.88344 
 C                    -0.09921  -0.13237  0. 
 O                    -0.82872  -1.07777   0. 
 F                    -0.71287   1.06854   0. 
 

 GradGradGradGradGradGradGradGradGradGradGradGradGradGradGradGradGradGrad
 Berny optimization.
 Initialization pass.
                           ----------------------------
                           !    Initial Parameters    !
                           ! (Angstroms and Degrees)  !
 --------------------------                            --------------------------
 ! Name  Definition              Value          Derivative Info.                !
 --------------------------------------------------------------------------------
 ! R1    R(1,2)                  1.1039         estimate D2E/DX2                !
 ! R2    R(1,3)                  1.1035         estimate D2E/DX2                !
 ! R3    R(1,4)                  1.1039         estimate D2E/DX2                !
 ! R4    R(1,5)                  1.4814         estimate D2E/DX2                !
 ! R5    R(5,6)                  1.1941         estimate D2E/DX2                !
 ! R6    R(5,7)                  1.3486         estimate D2E/DX2                !
 ! A1    A(2,1,3)              107.2481         estimate D2E/DX2                !
 ! A2    A(2,1,4)              106.3041         estimate D2E/DX2                !
 ! A3    A(2,1,5)              112.2884         estimate D2E/DX2                !
 ! A4    A(3,1,4)              107.2479         estimate D2E/DX2                !
 ! A5    A(3,1,5)              111.1378         estimate D2E/DX2                !
 ! A6    A(4,1,5)              112.288          estimate D2E/DX2                !
 ! A7    A(1,5,6)              131.57           estimate D2E/DX2                !
 ! A8    A(1,5,7)              113.1526         estimate D2E/DX2                !
 ! A9    A(6,5,7)              115.2773         estimate D2E/DX2                !
 ! D1    D(2,1,5,6)            120.1395         estimate D2E/DX2                !
 ! D2    D(2,1,5,7)            -59.861          estimate D2E/DX2                !
 ! D3    D(3,1,5,6)              0.0042         estimate D2E/DX2                !
 ! D4    D(3,1,5,7)           -179.9964         estimate D2E/DX2                !
 ! D5    D(4,1,5,6)           -120.1306         estimate D2E/DX2                !
 ! D6    D(4,1,5,7)             59.8688         estimate D2E/DX2                !
 --------------------------------------------------------------------------------
 Trust Radius=3.00D-01 FncErr=1.00D-07 GrdErr=1.00D-06
 Number of steps in this run=  31 maximum allowed number of steps= 100.
 GradGradGradGradGradGradGradGradGradGradGradGradGradGradGradGradGradGrad

                          Input orientation:                          
 ---------------------------------------------------------------------
 Center     Atomic      Atomic             Coordinates (Angstroms)
 Number     Number       Type             X           Y           Z
 ---------------------------------------------------------------------
      1          6           0        1.378693   -0.031247    0.000000
      2          1           0        1.761395    0.509015   -0.883364
      3          1           0        1.845953   -1.030909   -0.000068
      4          1           0        1.761393    0.508889    0.883441
      5          6           0       -0.099208   -0.132373   -0.000003
      6          8           0       -0.828724   -1.077768    0.000001
      7          9           0       -0.712874    1.068540    0.000001
 ---------------------------------------------------------------------
                    Distance matrix (angstroms):
                    1          2          3          4          5
     1  C    0.000000
     2  H    1.103937   0.000000
     3  H    1.103475   1.777281   0.000000
     4  H    1.103936   1.766805   1.777278   0.000000
     5  C    1.481357   2.157209   2.142666   2.157203   0.000000
     6  O    2.442928   3.163373   2.675087   3.163329   1.194138
     7  F    2.363088   2.686151   3.309876   2.686200   1.348621
                    6          7
     6  O    0.000000
     7  F    2.149432   0.000000
 Stoichiometry    C2H3FO
 Framework group  C1[X(C2H3FO)]
 Deg. of freedom    15
 Full point group                 C1      NOp   1
 Largest Abelian subgroup         C1      NOp   1
 Largest concise Abelian subgroup C1      NOp   1
                         Standard orientation:                         
 ---------------------------------------------------------------------
 Center     Atomic      Atomic             Coordinates (Angstroms)
 Number     Number       Type             X           Y           Z
 ---------------------------------------------------------------------
      1          6           0        1.378693   -0.031247    0.000000
      2          1           0        1.761395    0.509015   -0.883364
      3          1           0        1.845953   -1.030909   -0.000068
      4          1           0        1.761393    0.508889    0.883441
      5          6           0       -0.099208   -0.132373   -0.000003
      6          8           0       -0.828724   -1.077767    0.000000
      7          9           0       -0.712873    1.068541    0.000000
 ---------------------------------------------------------------------
 Rotational constants (GHZ):     11.5880396      9.3123761      5.3346202
 General basis read from cards:  (5D, 7F)
 AO basis set in the form of general basis input (Overlap normalization):
      1 0
 S   7 1.00       0.000000000000
      0.8236000000D+04  0.5419783203D-03
      0.1235000000D+04  0.4192873817D-02
      0.2808000000D+03  0.2152216205D-01
      0.7927000000D+02  0.8353432195D-01
      0.2559000000D+02  0.2395828457D+00
      0.8997000000D+01  0.4428528419D+00
      0.3319000000D+01  0.3517995618D+00
 S   6 1.00       0.000000000000
      0.2808000000D+03 -0.5949224937D-04
      0.7927000000D+02 -0.1148158310D-02
      0.2559000000D+02 -0.1001913745D-01
      0.8997000000D+01 -0.6121949230D-01
      0.3319000000D+01 -0.1732698541D+00
      0.3643000000D+00  0.1072915192D+01
 S   1 1.00       0.000000000000
      0.9059000000D+00  0.1000000000D+01
 S   1 1.00       0.000000000000
      0.1285000000D+00  0.1000000000D+01
 S   1 1.00       0.000000000000
      0.4402000000D-01  0.1000000000D+01
 P   3 1.00       0.000000000000
      0.1871000000D+02  0.3942638716D-01
      0.4133000000D+01  0.2440889849D+00
      0.1200000000D+01  0.8154920089D+00
 P   1 1.00       0.000000000000
      0.3827000000D+00  0.1000000000D+01
 P   1 1.00       0.000000000000
      0.1209000000D+00  0.1000000000D+01
 P   1 1.00       0.000000000000
      0.3569000000D-01  0.1000000000D+01
 D   1 1.00       0.000000000000
      0.1097000000D+01  0.1000000000D+01
 D   1 1.00       0.000000000000
      0.3180000000D+00  0.1000000000D+01
 D   1 1.00       0.000000000000
      0.1000000000D+00  0.1000000000D+01
 F   1 1.00       0.000000000000
      0.7610000000D+00  0.1000000000D+01
 F   1 1.00       0.000000000000
      0.2680000000D+00  0.1000000000D+01
 ****
      2 0
 S   3 1.00       0.000000000000
      0.3387000000D+02  0.2549486323D-01
      0.5095000000D+01  0.1903627659D+00
      0.1159000000D+01  0.8521620222D+00
 S   1 1.00       0.000000000000
      0.3258000000D+00  0.1000000000D+01
 S   1 1.00       0.000000000000
      0.1027000000D+00  0.1000000000D+01
 S   1 1.00       0.000000000000
      0.2526000000D-01  0.1000000000D+01
 P   1 1.00       0.000000000000
      0.1407000000D+01  0.1000000000D+01
 P   1 1.00       0.000000000000
      0.3880000000D+00  0.1000000000D+01
 P   1 1.00       0.000000000000
      0.1020000000D+00  0.1000000000D+01
 D   1 1.00       0.000000000000
      0.1057000000D+01  0.1000000000D+01
 D   1 1.00       0.000000000000
      0.2470000000D+00  0.1000000000D+01
 ****
      3 0
 S   3 1.00       0.000000000000
      0.3387000000D+02  0.2549486323D-01
      0.5095000000D+01  0.1903627659D+00
      0.1159000000D+01  0.8521620222D+00
 S   1 1.00       0.000000000000
      0.3258000000D+00  0.1000000000D+01
 S   1 1.00       0.000000000000
      0.1027000000D+00  0.1000000000D+01
 S   1 1.00       0.000000000000
      0.2526000000D-01  0.1000000000D+01
 P   1 1.00       0.000000000000
      0.1407000000D+01  0.1000000000D+01
 P   1 1.00       0.000000000000
      0.3880000000D+00  0.1000000000D+01
 P   1 1.00       0.000000000000
      0.1020000000D+00  0.1000000000D+01
 D   1 1.00       0.000000000000
      0.1057000000D+01  0.1000000000D+01
 D   1 1.00       0.000000000000
      0.2470000000D+00  0.1000000000D+01
 ****
      4 0
 S   3 1.00       0.000000000000
      0.3387000000D+02  0.2549486323D-01
      0.5095000000D+01  0.1903627659D+00
      0.1159000000D+01  0.8521620222D+00
 S   1 1.00       0.000000000000
      0.3258000000D+00  0.1000000000D+01
 S   1 1.00       0.000000000000
      0.1027000000D+00  0.1000000000D+01
 S   1 1.00       0.000000000000
      0.2526000000D-01  0.1000000000D+01
 P   1 1.00       0.000000000000
      0.1407000000D+01  0.1000000000D+01
 P   1 1.00       0.000000000000
      0.3880000000D+00  0.1000000000D+01
 P   1 1.00       0.000000000000
      0.1020000000D+00  0.1000000000D+01
 D   1 1.00       0.000000000000
      0.1057000000D+01  0.1000000000D+01
 D   1 1.00       0.000000000000
      0.2470000000D+00  0.1000000000D+01
 ****
      5 0
 S   7 1.00       0.000000000000
      0.8236000000D+04  0.5419783203D-03
      0.1235000000D+04  0.4192873817D-02
      0.2808000000D+03  0.2152216205D-01
      0.7927000000D+02  0.8353432195D-01
      0.2559000000D+02  0.2395828457D+00
      0.8997000000D+01  0.4428528419D+00
      0.3319000000D+01  0.3517995618D+00
 S   6 1.00       0.000000000000
      0.2808000000D+03 -0.5949224937D-04
      0.7927000000D+02 -0.1148158310D-02
      0.2559000000D+02 -0.1001913745D-01
      0.8997000000D+01 -0.6121949230D-01
      0.3319000000D+01 -0.1732698541D+00
      0.3643000000D+00  0.1072915192D+01
 S   1 1.00       0.000000000000
      0.9059000000D+00  0.1000000000D+01
 S   1 1.00       0.000000000000
      0.1285000000D+00  0.1000000000D+01
 S   1 1.00       0.000000000000
      0.4402000000D-01  0.1000000000D+01
 P   3 1.00       0.000000000000
      0.1871000000D+02  0.3942638716D-01
      0.4133000000D+01  0.2440889849D+00
      0.1200000000D+01  0.8154920089D+00
 P   1 1.00       0.000000000000
      0.3827000000D+00  0.1000000000D+01
 P   1 1.00       0.000000000000
      0.1209000000D+00  0.1000000000D+01
 P   1 1.00       0.000000000000
      0.3569000000D-01  0.1000000000D+01
 D   1 1.00       0.000000000000
      0.1097000000D+01  0.1000000000D+01
 D   1 1.00       0.000000000000
      0.3180000000D+00  0.1000000000D+01
 D   1 1.00       0.000000000000
      0.1000000000D+00  0.1000000000D+01
 F   1 1.00       0.000000000000
      0.7610000000D+00  0.1000000000D+01
 F   1 1.00       0.000000000000
      0.2680000000D+00  0.1000000000D+01
 ****
      6 0
 S   7 1.00       0.000000000000
      0.1533000000D+05  0.5198089434D-03
      0.2299000000D+04  0.4020256215D-02
      0.5224000000D+03  0.2071282673D-01
      0.1473000000D+03  0.8101055358D-01
      0.4755000000D+02  0.2359629851D+00
      0.1676000000D+02  0.4426534455D+00
      0.6207000000D+01  0.3570644227D+00
 S   6 1.00       0.000000000000
      0.5224000000D+03 -0.4421150084D-04
      0.1473000000D+03 -0.1225910413D-02
      0.4755000000D+02 -0.1055177248D-01
      0.1676000000D+02 -0.6744526326D-01
      0.6207000000D+01 -0.1711986073D+00
      0.6882000000D+00  0.1073298561D+01
 S   1 1.00       0.000000000000
      0.1752000000D+01  0.1000000000D+01
 S   1 1.00       0.000000000000
      0.2384000000D+00  0.1000000000D+01
 S   1 1.00       0.000000000000
      0.7376000000D-01  0.1000000000D+01
 P   3 1.00       0.000000000000
      0.3446000000D+02  0.4116348957D-01
      0.7749000000D+01  0.2577628359D+00
      0.2280000000D+01  0.8024192744D+00
 P   1 1.00       0.000000000000
      0.7156000000D+00  0.1000000000D+01
 P   1 1.00       0.000000000000
      0.2140000000D+00  0.1000000000D+01
 P   1 1.00       0.000000000000
      0.5974000000D-01  0.1000000000D+01
 D   1 1.00       0.000000000000
      0.2314000000D+01  0.1000000000D+01
 D   1 1.00       0.000000000000
      0.6450000000D+00  0.1000000000D+01
 D   1 1.00       0.000000000000
      0.2140000000D+00  0.1000000000D+01
 F   1 1.00       0.000000000000
      0.1428000000D+01  0.1000000000D+01
 F   1 1.00       0.000000000000
      0.5000000000D+00  0.1000000000D+01
 ****
      7 0
 S   7 1.00       0.000000000000
      0.9995000000D+04  0.1165998577D-02
      0.1506000000D+04  0.8875989168D-02
      0.3503000000D+03  0.4237994828D-01
      0.1041000000D+03  0.1429288256D+00
      0.3484000000D+02  0.3553715663D+00
      0.1222000000D+02  0.4620844361D+00
      0.4369000000D+01  0.1408478281D+00
 S   2 1.00       0.000000000000
      0.1222000000D+02 -0.1484519214D+00
      0.1208000000D+01  0.1055269442D+01
 S   1 1.00       0.000000000000
      0.3634000000D+00  0.1000000000D+01
 P   4 1.00       0.000000000000
      0.4436000000D+02  0.2087600240D-01
      0.1008000000D+02  0.1301070149D+00
      0.2996000000D+01  0.3961660455D+00
      0.9383000000D+00  0.6204040713D+00
 P   1 1.00       0.000000000000
      0.2733000000D+00  0.1000000000D+01
 ****

 ======================================================================================================
                                       Pseudopotential Parameters
 ======================================================================================================
  Center     Atomic      Valence      Angular      Power
  Number     Number     Electrons     Momentum     of R      Exponent        Coefficient   SO-Coeffient
 ======================================================================================================
    1          6
                                   No pseudopotential on this center.
    2          1
                                   No pseudopotential on this center.
    3          1
                                   No pseudopotential on this center.
    4          1
                                   No pseudopotential on this center.
    5          6
                                   No pseudopotential on this center.
    6          8
                                   No pseudopotential on this center.
    7          9
                                   No pseudopotential on this center.
 ======================================================================================================
 There are   216 symmetry adapted basis functions of A   symmetry.
 Integral buffers will be    262144 words long.
 Raffenetti 2 integral format.
 Two-electron integral symmetry is turned on.
   216 basis functions,   322 primitive gaussians,   249 cartesian basis functions
    16 alpha electrons       16 beta electrons
       nuclear repulsion energy       118.7299102007 Hartrees.
 NAtoms=    7 NActive=    7 NUniq=    7 SFac= 7.50D-01 NAtFMM=   80 NAOKFM=F Big=F
 One-electron integrals computed using PRISM.
   1 Symmetry operations used in ECPInt.
 ECPInt:  NShTT=    2775 NPrTT=    8539 LenC2=    2776 LenP2D=    7553.
 LDataN:  DoStor=T MaxTD1= 6 Len=  172
 NBasis=   216 RedAO= T  NBF=   216
 NBsUse=   216 1.00D-06 NBFU=   216
 Harris functional with IExCor=  402 diagonalized for initial guess.
 ExpMin= 2.53D-02 ExpMax= 1.53D+04 ExpMxC= 5.22D+02 IAcc=3 IRadAn=         0 AccDes= 0.00D+00
 HarFok:  IExCor=  402 AccDes= 0.00D+00 IRadAn=         0 IDoV= 1
 ScaDFX=  1.000000  1.000000  1.000000  1.000000
 FoFCou: FMM=F IPFlag=           0 FMFlag=      100000 FMFlg1=           0
         NFxFlg=           0 DoJE=T BraDBF=F KetDBF=T FulRan=T
         Omega=  0.000000  0.000000  1.000000  0.000000  0.000000 ICntrl=     500 IOpCl=  0
         NMat0=    1 NMatS0=    1 NMatT0=    0 NMatD0=    1 NMtDS0=    0 NMtDT0=    0
         I1Cent=           4 NGrid=           0.
 Petite list used in FoFCou.
 Initial guess orbital symmetries:
       Occupied  (A) (A) (A) (A) (A) (A) (A) (A) (A) (A) (A) (A)
                 (A) (A) (A) (A)
       Virtual   (A) (A) (A) (A) (A) (A) (A) (A) (A) (A) (A) (A)
                 (A) (A) (A) (A) (A) (A) (A) (A) (A) (A) (A) (A)
                 (A) (A) (A) (A) (A) (A) (A) (A) (A) (A) (A) (A)
                 (A) (A) (A) (A) (A) (A) (A) (A) (A) (A) (A) (A)
                 (A) (A) (A) (A) (A) (A) (A) (A) (A) (A) (A) (A)
                 (A) (A) (A) (A) (A) (A) (A) (A) (A) (A) (A) (A)
                 (A) (A) (A) (A) (A) (A) (A) (A) (A) (A) (A) (A)
                 (A) (A) (A) (A) (A) (A) (A) (A) (A) (A) (A) (A)
                 (A) (A) (A) (A) (A) (A) (A) (A) (A) (A) (A) (A)
                 (A) (A) (A) (A) (A) (A) (A) (A) (A) (A) (A) (A)
                 (A) (A) (A) (A) (A) (A) (A) (A) (A) (A) (A) (A)
                 (A) (A) (A) (A) (A) (A) (A) (A) (A) (A) (A) (A)
                 (A) (A) (A) (A) (A) (A) (A) (A) (A) (A) (A) (A)
                 (A) (A) (A) (A) (A) (A) (A) (A) (A) (A) (A) (A)
                 (A) (A) (A) (A) (A) (A) (A) (A) (A) (A) (A) (A)
                 (A) (A) (A) (A) (A) (A) (A) (A) (A) (A) (A) (A)
                 (A) (A) (A) (A) (A) (A) (A) (A)
 The electronic state of the initial guess is 1-A.
 Requested convergence on RMS density matrix=1.00D-08 within 128 cycles.
 Requested convergence on MAX density matrix=1.00D-06.
 Requested convergence on             energy=1.00D-06.
 No special actions if energy rises.
 SCF Done:  E(RB3LYP) =  -253.184712317     A.U. after   11 cycles
             Convg  =    0.4060D-08             -V/T =  2.0061

 **********************************************************************

            Population analysis using the SCF density.

 **********************************************************************

 Orbital symmetries:
       Occupied  (A) (A) (A) (A) (A) (A) (A) (A) (A) (A) (A) (A)
                 (A) (A) (A) (A)
       Virtual   (A) (A) (A) (A) (A) (A) (A) (A) (A) (A) (A) (A)
                 (A) (A) (A) (A) (A) (A) (A) (A) (A) (A) (A) (A)
                 (A) (A) (A) (A) (A) (A) (A) (A) (A) (A) (A) (A)
                 (A) (A) (A) (A) (A) (A) (A) (A) (A) (A) (A) (A)
                 (A) (A) (A) (A) (A) (A) (A) (A) (A) (A) (A) (A)
                 (A) (A) (A) (A) (A) (A) (A) (A) (A) (A) (A) (A)
                 (A) (A) (A) (A) (A) (A) (A) (A) (A) (A) (A) (A)
                 (A) (A) (A) (A) (A) (A) (A) (A) (A) (A) (A) (A)
                 (A) (A) (A) (A) (A) (A) (A) (A) (A) (A) (A) (A)
                 (A) (A) (A) (A) (A) (A) (A) (A) (A) (A) (A) (A)
                 (A) (A) (A) (A) (A) (A) (A) (A) (A) (A) (A) (A)
                 (A) (A) (A) (A) (A) (A) (A) (A) (A) (A) (A) (A)
                 (A) (A) (A) (A) (A) (A) (A) (A) (A) (A) (A) (A)
                 (A) (A) (A) (A) (A) (A) (A) (A) (A) (A) (A) (A)
                 (A) (A) (A) (A) (A) (A) (A) (A) (A) (A) (A) (A)
                 (A) (A) (A) (A) (A) (A) (A) (A) (A) (A) (A) (A)
                 (A) (A) (A) (A) (A) (A) (A) (A)
 The electronic state is 1-A.
 Alpha  occ. eigenvalues --  -24.73253 -19.15334 -10.35470 -10.22059  -1.25970
 Alpha  occ. eigenvalues --   -1.07716  -0.78986  -0.61996  -0.53573  -0.51898
 Alpha  occ. eigenvalues --   -0.50433  -0.43977  -0.43927  -0.41106  -0.37988
 Alpha  occ. eigenvalues --   -0.32064
 Alpha virt. eigenvalues --   -0.03706  -0.02004   0.01596   0.01698   0.02355
 Alpha virt. eigenvalues --    0.05863   0.06135   0.06797   0.07074   0.07916
 Alpha virt. eigenvalues --    0.07947   0.10274   0.10921   0.11912   0.15344
 Alpha virt. eigenvalues --    0.16090   0.16656   0.17131   0.20166   0.20931
 Alpha virt. eigenvalues --    0.21943   0.24549   0.25501   0.25631   0.26723
 Alpha virt. eigenvalues --    0.26846   0.28527   0.29541   0.30012   0.31008
 Alpha virt. eigenvalues --    0.31813   0.33113   0.33837   0.35000   0.37667
 Alpha virt. eigenvalues --    0.39928   0.40180   0.41636   0.42554   0.42978
 Alpha virt. eigenvalues --    0.49236   0.49889   0.53859   0.57115   0.59632
 Alpha virt. eigenvalues --    0.60284   0.60623   0.63304   0.64548   0.65995
 Alpha virt. eigenvalues --    0.68033   0.70268   0.71679   0.73568   0.73805
 Alpha virt. eigenvalues --    0.75287   0.79572   0.80120   0.83021   0.83432
 Alpha virt. eigenvalues --    0.84102   0.85067   0.87326   0.88563   0.89239
 Alpha virt. eigenvalues --    0.90262   0.93231   0.95967   0.96056   0.98737
 Alpha virt. eigenvalues --    1.00174   1.01355   1.03240   1.04129   1.06616
 Alpha virt. eigenvalues --    1.08340   1.08700   1.13635   1.16436   1.16946
 Alpha virt. eigenvalues --    1.22269   1.24317   1.25294   1.27750   1.28521
 Alpha virt. eigenvalues --    1.31348   1.35708   1.36240   1.39345   1.40306
 Alpha virt. eigenvalues --    1.42026   1.45383   1.49427   1.49582   1.50262
 Alpha virt. eigenvalues --    1.56831   1.57518   1.59526   1.60901   1.63677
 Alpha virt. eigenvalues --    1.72595   1.72707   1.81903   1.82697   1.87248
 Alpha virt. eigenvalues --    1.87387   1.94947   1.95662   2.04683   2.06774
 Alpha virt. eigenvalues --    2.08080   2.10211   2.15615   2.22142   2.22593
 Alpha virt. eigenvalues --    2.27202   2.33336   2.41205   2.46600   2.46758
 Alpha virt. eigenvalues --    2.50612   2.57216   2.58337   2.62038   2.75214
 Alpha virt. eigenvalues --    2.77825   2.79391   2.90558   2.95335   2.97785
 Alpha virt. eigenvalues --    3.05378   3.13027   3.15413   3.16146   3.18525
 Alpha virt. eigenvalues --    3.22211   3.26548   3.28145   3.30572   3.39560
 Alpha virt. eigenvalues --    3.40081   3.40371   3.45143   3.47172   3.54583
 Alpha virt. eigenvalues --    3.56050   3.56809   3.67050   3.69727   3.71153
 Alpha virt. eigenvalues --    3.73478   3.77437   3.78659   3.83836   3.91258
 Alpha virt. eigenvalues --    3.92725   4.01337   4.10010   4.16021   4.23082
 Alpha virt. eigenvalues --    4.27102   4.31130   4.36498   4.37467   4.39864
 Alpha virt. eigenvalues --    4.47027   4.55362   4.62214   4.69914   4.73781
 Alpha virt. eigenvalues --    4.82054   4.86458   4.95564   5.02947   5.09062
 Alpha virt. eigenvalues --    5.11110   5.18223   5.29008   5.35603   5.50061
 Alpha virt. eigenvalues --    5.70324   5.72434   5.82179   6.13792   6.17062
 Alpha virt. eigenvalues --    6.23256   6.25659   6.44304   6.48044   6.69864
 Alpha virt. eigenvalues --    6.72522   6.74189   6.85477   6.97957   7.07882
 Alpha virt. eigenvalues --    7.17334   7.19701  13.80606  14.85310  16.71102
          Condensed to atoms (all electrons):
              1          2          3          4          5          6
     1  C    5.330273   0.396425   0.363719   0.396442   0.051570  -0.029569
     2  H    0.396425   0.422311  -0.004487  -0.000501  -0.059835   0.005268
     3  H    0.363719  -0.004487   0.394597  -0.004494  -0.006619  -0.006719
     4  H    0.396442  -0.000501  -0.004494   0.422317  -0.059852   0.005272
     5  C    0.051570  -0.059835  -0.006619  -0.059852   5.179477   0.290553
     6  O   -0.029569   0.005268  -0.006719   0.005272   0.290553   8.274843
     7  F    0.005038   0.010125   0.001975   0.010126   0.410031  -0.024829
              7
     1  C    0.005038
     2  H    0.010125
     3  H    0.001975
     4  H    0.010126
     5  C    0.410031
     6  O   -0.024829
     7  F    8.476904
 Mulliken atomic charges:
              1
     1  C   -0.513898
     2  H    0.230693
     3  H    0.262028
     4  H    0.230691
     5  C    0.194675
     6  O   -0.514818
     7  F    0.110629
 Sum of Mulliken atomic charges =   0.00000
 Mulliken charges with hydrogens summed into heavy atoms:
              1
     1  C    0.209514
     5  C    0.194675
     6  O   -0.514818
     7  F    0.110629
 Sum of Mulliken charges with hydrogens summed into heavy atoms =   0.00000
 Electronic spatial extent (au):  <R**2>=            244.4870
 Charge=              0.0000 electrons
 Dipole moment (field-independent basis, Debye):
    X=              3.2407    Y=              0.7357    Z=              0.0000  Tot=              3.3231
 Quadrupole moment (field-independent basis, Debye-Ang):
   XX=            -22.1192   YY=            -25.9642   ZZ=            -21.5519
   XY=             -0.8564   XZ=              0.0000   YZ=              0.0000
 Traceless Quadrupole moment (field-independent basis, Debye-Ang):
   XX=              1.0925   YY=             -2.7524   ZZ=              1.6599
   XY=             -0.8564   XZ=              0.0000   YZ=              0.0000
 Octapole moment (field-independent basis, Debye-Ang**2):
  XXX=             -1.3285  YYY=              5.7313  ZZZ=              0.0002  XYY=              1.2607
  XXY=              2.3371  XXZ=              0.0000  XZZ=             -1.4206  YZZ=              2.2077
  YYZ=             -0.0001  XYZ=              0.0000
 Hexadecapole moment (field-independent basis, Debye-Ang**3):
 XXXX=           -156.4977 YYYY=           -105.7365 ZZZZ=            -25.6878 XXXY=             -4.4862
 XXXZ=              0.0000 YYYX=             -6.0588 YYYZ=              0.0000 ZZZX=              0.0003
 ZZZY=              0.0000 XXYY=            -42.6397 XXZZ=            -28.9071 YYZZ=            -21.0910
 XXYZ=              0.0000 YYXZ=             -0.0003 ZZXY=              0.5559
 N-N= 1.187299102007D+02 E-N=-8.339747255224D+02  KE= 2.516598996667D+02
   1 Symmetry operations used in ECPInt.
 ECPInt:  NShTT=    2775 NPrTT=    8539 LenC2=    2776 LenP2D=    7553.
 LDataN:  DoStor=T MaxTD1= 7 Len=  274
 Calling FoFJK, ICntrl=      2127 FMM=F ISym2X=0 I1Cent= 0 IOpClX= 0 NMat=1 NMatS=1 NMatT=0.
 ***** Axes restored to original set *****
 -------------------------------------------------------------------
 Center     Atomic                   Forces (Hartrees/Bohr)
 Number     Number              X              Y              Z
 -------------------------------------------------------------------
      1        6           0.023860946   -0.005166509   -0.000001677
      2        1          -0.007817813   -0.002000282    0.005944731
      3        1          -0.008592610    0.007630980    0.000000754
      4        1          -0.007817445   -0.001998963   -0.005944151
      5        6          -0.024279270   -0.026642523    0.000000807
      6        8           0.022083199    0.000595320   -0.000000401
      7        9           0.002562993    0.027581977   -0.000000063
 -------------------------------------------------------------------
 Cartesian Forces:  Max     0.027581977 RMS     0.012879785

 GradGradGradGradGradGradGradGradGradGradGradGradGradGradGradGradGradGrad
 Berny optimization.
 Internal  Forces:  Max     0.025478321 RMS     0.010059745
 Search for a local minimum.
 Step number   1 out of a maximum of   31
 All quantities printed in internal units (Hartrees-Bohrs-Radians)
 Mixed Optimization -- RFO/linear search
 Second derivative matrix not updated -- first step.
     Eigenvalues ---    0.01013   0.01013   0.07158   0.07246   0.16000
     Eigenvalues ---    0.16000   0.16000   0.25000   0.25000   0.33250
     Eigenvalues ---    0.33251   0.33301   0.34415   0.55316   1.07825
     Eigenvalues --- 1000.000001000.000001000.000001000.000001000.00000
     Eigenvalues --- 1000.00000
 RFO step:  Lambda=-6.68181391D-03 EMin= 1.01256184D-02
 Linear search not attempted -- first point.
 Iteration  1 RMS(Cart)=  0.04606444 RMS(Int)=  0.00109181
 Iteration  2 RMS(Cart)=  0.00106631 RMS(Int)=  0.00032055
 Iteration  3 RMS(Cart)=  0.00000041 RMS(Int)=  0.00032055
 Variable       Old X    -DE/DX   Delta X   Delta X   Delta X     New X
                                 (Linear)    (Quad)   (Total)
    R1        2.08614  -0.00845   0.00000  -0.02491  -0.02491   2.06123
    R2        2.08526  -0.01055   0.00000  -0.03105  -0.03105   2.05422
    R3        2.08614  -0.00845   0.00000  -0.02491  -0.02491   2.06123
    R4        2.79936  -0.00047   0.00000  -0.00135  -0.00135   2.79801
    R5        2.25659  -0.01397   0.00000  -0.01287  -0.01287   2.24372
    R6        2.54852   0.02340   0.00000   0.04180   0.04180   2.59032
    A1        1.87183   0.00559   0.00000   0.03799   0.03783   1.90966
    A2        1.85536   0.00419   0.00000   0.01634   0.01536   1.87072
    A3        1.95980  -0.00537   0.00000  -0.03468  -0.03526   1.92454
    A4        1.87183   0.00559   0.00000   0.03799   0.03782   1.90965
    A5        1.93972  -0.00341   0.00000  -0.01562  -0.01580   1.92393
    A6        1.95980  -0.00538   0.00000  -0.03468  -0.03526   1.92454
    A7        2.29633  -0.01312   0.00000  -0.05112  -0.05112   2.24521
    A8        1.97489  -0.01236   0.00000  -0.04814  -0.04814   1.92675
    A9        2.01197   0.02548   0.00000   0.09926   0.09926   2.11123
    D1        2.09683   0.00109   0.00000   0.01393   0.01360   2.11043
    D2       -1.04477   0.00109   0.00000   0.01395   0.01361  -1.03116
    D3        0.00007   0.00000   0.00000  -0.00001  -0.00001   0.00006
    D4       -3.14153   0.00000   0.00000   0.00000   0.00000  -3.14153
    D5       -2.09668  -0.00109   0.00000  -0.01395  -0.01362  -2.11029
    D6        1.04491  -0.00109   0.00000  -0.01394  -0.01360   1.03130
         Item               Value     Threshold  Converged?
 Maximum Force            0.025478     0.000450     NO 
 RMS     Force            0.010060     0.000300     NO 
 Maximum Displacement     0.100179     0.001800     NO 
 RMS     Displacement     0.046279     0.001200     NO 
 Predicted change in Energy=-3.423210D-03
 GradGradGradGradGradGradGradGradGradGradGradGradGradGradGradGradGradGrad

                          Input orientation:                          
 ---------------------------------------------------------------------
 Center     Atomic      Atomic             Coordinates (Angstroms)
 Number     Number       Type             X           Y           Z
 ---------------------------------------------------------------------
      1          6           0        1.378826   -0.039365    0.000000
      2          1           0        1.721235    0.510131   -0.877815
      3          1           0        1.821122   -1.032360   -0.000067
      4          1           0        1.721238    0.510008    0.877891
      5          6           0       -0.098604   -0.136877    0.000001
      6          8           0       -0.777328   -1.111081   -0.000003
      7          9           0       -0.659861    1.113690    0.000000
 ---------------------------------------------------------------------
                    Distance matrix (angstroms):
                    1          2          3          4          5
     1  C    0.000000
     2  H    1.090756   0.000000
     3  H    1.087044   1.777554   0.000000
     4  H    1.090756   1.755706   1.777551   0.000000
     5  C    1.480644   2.121555   2.118310   2.121550   0.000000
     6  O    2.407816   3.105110   2.599643   3.105070   1.187326
     7  F    2.342175   2.608537   3.280367   2.608593   1.370740
                    6          7
     6  O    0.000000
     7  F    2.227870   0.000000
 Stoichiometry    C2H3FO
 Framework group  C1[X(C2H3FO)]
 Deg. of freedom    15
 Full point group                 C1      NOp   1
 Largest Abelian subgroup         C1      NOp   1
 Largest concise Abelian subgroup C1      NOp   1
                         Standard orientation:                         
 ---------------------------------------------------------------------
 Center     Atomic      Atomic             Coordinates (Angstroms)
 Number     Number       Type             X           Y           Z
 ---------------------------------------------------------------------
      1          6           0        1.354594   -0.026227    0.000000
      2          1           0        1.690829    0.527068   -0.877814
      3          1           0        1.807980   -1.014208   -0.000067
      4          1           0        1.690833    0.526945    0.877892
      5          6           0       -0.121652   -0.140275    0.000002
      6          8           0       -0.789426   -1.122018   -0.000003
      7          9           0       -0.696877    1.103929    0.000000
 ---------------------------------------------------------------------
 Rotational constants (GHZ):     10.8484120      9.8074133      5.3192633
 Basis read from rwf:  (5D, 7F)
 Pseudo-potential data read from rwf file.
 There are   216 symmetry adapted basis functions of A   symmetry.
 Integral buffers will be    262144 words long.
 Raffenetti 2 integral format.
 Two-electron integral symmetry is turned on.
   216 basis functions,   322 primitive gaussians,   249 cartesian basis functions
    16 alpha electrons       16 beta electrons
       nuclear repulsion energy       118.5476296050 Hartrees.
 NAtoms=    7 NActive=    7 NUniq=    7 SFac= 7.50D-01 NAtFMM=   80 NAOKFM=F Big=F
 One-electron integrals computed using PRISM.
   1 Symmetry operations used in ECPInt.
 ECPInt:  NShTT=    2775 NPrTT=    8539 LenC2=    2776 LenP2D=    7555.
 LDataN:  DoStor=T MaxTD1= 6 Len=  172
 NBasis=   216 RedAO= T  NBF=   216
 NBsUse=   216 1.00D-06 NBFU=   216
 Initial guess read from the read-write file.
 B after Tr=     0.000000    0.000000    0.000000
         Rot=    1.000000    0.000000    0.000000    0.000000 Ang=   0.00 deg.
 Initial guess orbital symmetries:
       Occupied  (A) (A) (A) (A) (A) (A) (A) (A) (A) (A) (A) (A)
                 (A) (A) (A) (A)
       Virtual   (A) (A) (A) (A) (A) (A) (A) (A) (A) (A) (A) (A)
                 (A) (A) (A) (A) (A) (A) (A) (A) (A) (A) (A) (A)
                 (A) (A) (A) (A) (A) (A) (A) (A) (A) (A) (A) (A)
                 (A) (A) (A) (A) (A) (A) (A) (A) (A) (A) (A) (A)
                 (A) (A) (A) (A) (A) (A) (A) (A) (A) (A) (A) (A)
                 (A) (A) (A) (A) (A) (A) (A) (A) (A) (A) (A) (A)
                 (A) (A) (A) (A) (A) (A) (A) (A) (A) (A) (A) (A)
                 (A) (A) (A) (A) (A) (A) (A) (A) (A) (A) (A) (A)
                 (A) (A) (A) (A) (A) (A) (A) (A) (A) (A) (A) (A)
                 (A) (A) (A) (A) (A) (A) (A) (A) (A) (A) (A) (A)
                 (A) (A) (A) (A) (A) (A) (A) (A) (A) (A) (A) (A)
                 (A) (A) (A) (A) (A) (A) (A) (A) (A) (A) (A) (A)
                 (A) (A) (A) (A) (A) (A) (A) (A) (A) (A) (A) (A)
                 (A) (A) (A) (A) (A) (A) (A) (A) (A) (A) (A) (A)
                 (A) (A) (A) (A) (A) (A) (A) (A) (A) (A) (A) (A)
                 (A) (A) (A) (A) (A) (A) (A) (A) (A) (A) (A) (A)
                 (A) (A) (A) (A) (A) (A) (A) (A)
 Harris functional with IExCor=  402 diagonalized for initial guess.
 ExpMin= 2.53D-02 ExpMax= 1.53D+04 ExpMxC= 5.22D+02 IAcc=3 IRadAn=         0 AccDes= 0.00D+00
 HarFok:  IExCor=  402 AccDes= 0.00D+00 IRadAn=         0 IDoV= 1
 ScaDFX=  1.000000  1.000000  1.000000  1.000000
 FoFCou: FMM=F IPFlag=           0 FMFlag=      100000 FMFlg1=           0
         NFxFlg=           0 DoJE=T BraDBF=F KetDBF=T FulRan=T
         Omega=  0.000000  0.000000  1.000000  0.000000  0.000000 ICntrl=     500 IOpCl=  0
         NMat0=    1 NMatS0=    1 NMatT0=    0 NMatD0=    1 NMtDS0=    0 NMtDT0=    0
         I1Cent=           4 NGrid=           0.
 Petite list used in FoFCou.
 Requested convergence on RMS density matrix=1.00D-08 within 128 cycles.
 Requested convergence on MAX density matrix=1.00D-06.
 Requested convergence on             energy=1.00D-06.
 No special actions if energy rises.
 SCF Done:  E(RB3LYP) =  -253.187893294     A.U. after   10 cycles
             Convg  =    0.3207D-08             -V/T =  2.0059
   1 Symmetry operations used in ECPInt.
 ECPInt:  NShTT=    2775 NPrTT=    8539 LenC2=    2776 LenP2D=    7555.
 LDataN:  DoStor=T MaxTD1= 7 Len=  274
 Calling FoFJK, ICntrl=      2127 FMM=F ISym2X=0 I1Cent= 0 IOpClX= 0 NMat=1 NMatS=1 NMatT=0.
 ***** Axes restored to original set *****
 -------------------------------------------------------------------
 Center     Atomic                   Forces (Hartrees/Bohr)
 Number     Number              X              Y              Z
 -------------------------------------------------------------------
      1        6           0.009680475   -0.000587587    0.000000015
      2        1          -0.001159530    0.000613760    0.000355146
      3        1          -0.001514240    0.000450367    0.000000224
      4        1          -0.001159334    0.000613935   -0.000354951
      5        6          -0.003825559   -0.016471436   -0.000001425
      6        8           0.002728256    0.011473961    0.000000491
      7        9          -0.004750068    0.003907000    0.000000500
 -------------------------------------------------------------------
 Cartesian Forces:  Max     0.016471436 RMS     0.005178311

 GradGradGradGradGradGradGradGradGradGradGradGradGradGradGradGradGradGrad
 Berny optimization.
 Using GEDIIS/GDIIS optimizer.
 Internal  Forces:  Max     0.010976395 RMS     0.003423601
 Search for a local minimum.
 Step number   2 out of a maximum of   31
 All quantities printed in internal units (Hartrees-Bohrs-Radians)
 Mixed Optimization -- RFO/linear search
 Update second derivatives using D2CorX and points    1    2
 DE= -3.18D-03 DEPred=-3.42D-03 R= 9.29D-01
 SS=  1.41D+00  RLast= 1.60D-01 DXNew= 5.0454D-01 4.7884D-01
 Trust test= 9.29D-01 RLast= 1.60D-01 DXMaxT set to 4.79D-01
 Use linear search instead of GDIIS.
     Eigenvalues ---    0.01013   0.01013   0.07467   0.07482   0.14950
     Eigenvalues ---    0.16000   0.16002   0.24877   0.29619   0.32084
     Eigenvalues ---    0.33251   0.33284   0.37559   0.51886   1.05759
     Eigenvalues --- 1000.000001000.000001000.000001000.000001000.00000
     Eigenvalues --- 1000.00000
 RFO step:  Lambda=-4.98647548D-04 EMin= 1.01256184D-02
 Quartic linear search produced a step of -0.02893.
 Iteration  1 RMS(Cart)=  0.00726966 RMS(Int)=  0.00007152
 Iteration  2 RMS(Cart)=  0.00006927 RMS(Int)=  0.00002602
 Iteration  3 RMS(Cart)=  0.00000000 RMS(Int)=  0.00002602
 Variable       Old X    -DE/DX   Delta X   Delta X   Delta X     New X
                                 (Linear)    (Quad)   (Total)
    R1        2.06123  -0.00034   0.00072  -0.00357  -0.00285   2.05838
    R2        2.05422  -0.00103   0.00090  -0.00620  -0.00530   2.04892
    R3        2.06123  -0.00034   0.00072  -0.00357  -0.00285   2.05838
    R4        2.79801   0.00591   0.00004   0.01650   0.01653   2.81455
    R5        2.24372  -0.01098   0.00037  -0.01122  -0.01084   2.23288
    R6        2.59032   0.00551  -0.00121   0.01400   0.01279   2.60312
    A1        1.90966   0.00143  -0.00109   0.01411   0.01301   1.92267
    A2        1.87072   0.00054  -0.00044   0.00146   0.00093   1.87165
    A3        1.92454  -0.00117   0.00102  -0.01157  -0.01060   1.91395
    A4        1.90965   0.00143  -0.00109   0.01411   0.01301   1.92266
    A5        1.92393  -0.00098   0.00046  -0.00593  -0.00548   1.91844
    A6        1.92454  -0.00117   0.00102  -0.01157  -0.01059   1.91394
    A7        2.24521   0.00412   0.00148   0.01068   0.01216   2.25737
    A8        1.92675   0.00147   0.00139   0.00075   0.00214   1.92889
    A9        2.11123  -0.00559  -0.00287  -0.01143  -0.01430   2.09693
    D1        2.11043   0.00039  -0.00039   0.00626   0.00584   2.11626
    D2       -1.03116   0.00039  -0.00039   0.00620   0.00578  -1.02538
    D3        0.00006   0.00000   0.00000   0.00002   0.00002   0.00008
    D4       -3.14153   0.00000   0.00000  -0.00004  -0.00004  -3.14156
    D5       -2.11029  -0.00039   0.00039  -0.00621  -0.00579  -2.11608
    D6        1.03130  -0.00039   0.00039  -0.00627  -0.00585   1.02545
         Item               Value     Threshold  Converged?
 Maximum Force            0.010976     0.000450     NO 
 RMS     Force            0.003424     0.000300     NO 
 Maximum Displacement     0.018983     0.001800     NO 
 RMS     Displacement     0.007261     0.001200     NO 
 Predicted change in Energy=-2.529610D-04
 GradGradGradGradGradGradGradGradGradGradGradGradGradGradGradGradGradGrad

                          Input orientation:                          
 ---------------------------------------------------------------------
 Center     Atomic      Atomic             Coordinates (Angstroms)
 Number     Number       Type             X           Y           Z
 ---------------------------------------------------------------------
      1          6           0        1.388872   -0.042773   -0.000004
      2          1           0        1.719063    0.512633   -0.876905
      3          1           0        1.825410   -1.035250   -0.000060
      4          1           0        1.719049    0.512520    0.876975
      5          6           0       -0.097207   -0.142090   -0.000017
      6          8           0       -0.783597   -1.103868    0.000000
      7          9           0       -0.664963    1.112975    0.000018
 ---------------------------------------------------------------------
                    Distance matrix (angstroms):
                    1          2          3          4          5
     1  C    0.000000
     2  H    1.089246   0.000000
     3  H    1.084240   1.782164   0.000000
     4  H    1.089247   1.753880   1.782160   0.000000
     5  C    1.489394   2.120480   2.119951   2.120476   0.000000
     6  O    2.417756   3.105696   2.609910   3.105645   1.181587
     7  F    2.356690   2.610169   3.288895   2.610194   1.377511
                    6          7
     6  O    0.000000
     7  F    2.220015   0.000000
 Stoichiometry    C2H3FO
 Framework group  C1[X(C2H3FO)]
 Deg. of freedom    15
 Full point group                 C1      NOp   1
 Largest Abelian subgroup         C1      NOp   1
 Largest concise Abelian subgroup C1      NOp   1
                         Standard orientation:                         
 ---------------------------------------------------------------------
 Center     Atomic      Atomic             Coordinates (Angstroms)
 Number     Number       Type             X           Y           Z
 ---------------------------------------------------------------------
      1          6           0       -1.365746    0.017353   -0.000005
      2          1           0       -1.684686   -0.544589   -0.876906
      3          1           0       -1.822182    1.000838   -0.000061
      4          1           0       -1.684674   -0.544476    0.876974
      5          6           0        0.118032    0.146577   -0.000018
      6          8           0        0.784914    1.121982   -0.000002
      7          9           0        0.710946   -1.096801    0.000016
 ---------------------------------------------------------------------
 Rotational constants (GHZ):     10.9136156      9.6897808      5.2995341
 Basis read from rwf:  (5D, 7F)
 Pseudo-potential data read from rwf file.
 There are   216 symmetry adapted basis functions of A   symmetry.
 Integral buffers will be    262144 words long.
 Raffenetti 2 integral format.
 Two-electron integral symmetry is turned on.
   216 basis functions,   322 primitive gaussians,   249 cartesian basis functions
    16 alpha electrons       16 beta electrons
       nuclear repulsion energy       118.4172883501 Hartrees.
 NAtoms=    7 NActive=    7 NUniq=    7 SFac= 7.50D-01 NAtFMM=   80 NAOKFM=F Big=F
 One-electron integrals computed using PRISM.
   1 Symmetry operations used in ECPInt.
 ECPInt:  NShTT=    2775 NPrTT=    8539 LenC2=    2776 LenP2D=    7550.
 LDataN:  DoStor=T MaxTD1= 6 Len=  172
 NBasis=   216 RedAO= T  NBF=   216
 NBsUse=   216 1.00D-06 NBFU=   216
 Initial guess read from the read-write file.
 B after Tr=     0.000000    0.000000    0.000000
         Rot=    1.000000    0.000000    0.000000    0.000000 Ang=   0.00 deg.
 Initial guess orbital symmetries:
       Occupied  (A) (A) (A) (A) (A) (A) (A) (A) (A) (A) (A) (A)
                 (A) (A) (A) (A)
       Virtual   (A) (A) (A) (A) (A) (A) (A) (A) (A) (A) (A) (A)
                 (A) (A) (A) (A) (A) (A) (A) (A) (A) (A) (A) (A)
                 (A) (A) (A) (A) (A) (A) (A) (A) (A) (A) (A) (A)
                 (A) (A) (A) (A) (A) (A) (A) (A) (A) (A) (A) (A)
                 (A) (A) (A) (A) (A) (A) (A) (A) (A) (A) (A) (A)
                 (A) (A) (A) (A) (A) (A) (A) (A) (A) (A) (A) (A)
                 (A) (A) (A) (A) (A) (A) (A) (A) (A) (A) (A) (A)
                 (A) (A) (A) (A) (A) (A) (A) (A) (A) (A) (A) (A)
                 (A) (A) (A) (A) (A) (A) (A) (A) (A) (A) (A) (A)
                 (A) (A) (A) (A) (A) (A) (A) (A) (A) (A) (A) (A)
                 (A) (A) (A) (A) (A) (A) (A) (A) (A) (A) (A) (A)
                 (A) (A) (A) (A) (A) (A) (A) (A) (A) (A) (A) (A)
                 (A) (A) (A) (A) (A) (A) (A) (A) (A) (A) (A) (A)
                 (A) (A) (A) (A) (A) (A) (A) (A) (A) (A) (A) (A)
                 (A) (A) (A) (A) (A) (A) (A) (A) (A) (A) (A) (A)
                 (A) (A) (A) (A) (A) (A) (A) (A) (A) (A) (A) (A)
                 (A) (A) (A) (A) (A) (A) (A) (A)
 Requested convergence on RMS density matrix=1.00D-08 within 128 cycles.
 Requested convergence on MAX density matrix=1.00D-06.
 Requested convergence on             energy=1.00D-06.
 No special actions if energy rises.
 SCF Done:  E(RB3LYP) =  -253.188215068     A.U. after   12 cycles
             Convg  =    0.6528D-08             -V/T =  2.0059
   1 Symmetry operations used in ECPInt.
 ECPInt:  NShTT=    2775 NPrTT=    8539 LenC2=    2776 LenP2D=    7550.
 LDataN:  DoStor=T MaxTD1= 7 Len=  274
 Calling FoFJK, ICntrl=      2127 FMM=F ISym2X=0 I1Cent= 0 IOpClX= 0 NMat=1 NMatS=1 NMatT=0.
 ***** Axes restored to original set *****
 -------------------------------------------------------------------
 Center     Atomic                   Forces (Hartrees/Bohr)
 Number     Number              X              Y              Z
 -------------------------------------------------------------------
      1        6           0.001228511    0.001066989   -0.000002091
      2        1          -0.000091628    0.000348771   -0.000397750
      3        1          -0.000083944   -0.000652377   -0.000000176
      4        1          -0.000092655    0.000348772    0.000397651
      5        6           0.000449772   -0.006745127    0.000006590
      6        8           0.000126998    0.002819180   -0.000002570
      7        9          -0.001537054    0.002813791   -0.000001655
 -------------------------------------------------------------------
 Cartesian Forces:  Max     0.006745127 RMS     0.001794169

 GradGradGradGradGradGradGradGradGradGradGradGradGradGradGradGradGradGrad
 Berny optimization.
 Using GEDIIS/GDIIS optimizer.
 Internal  Forces:  Max     0.003199773 RMS     0.001089040
 Search for a local minimum.
 Step number   3 out of a maximum of   31
 All quantities printed in internal units (Hartrees-Bohrs-Radians)
 Mixed Optimization -- RFO/linear search
 Update second derivatives using D2CorX and points    1    2    3
 DE= -3.22D-04 DEPred=-2.53D-04 R= 1.27D+00
 SS=  1.41D+00  RLast= 4.10D-02 DXNew= 8.0531D-01 1.2315D-01
 Trust test= 1.27D+00 RLast= 4.10D-02 DXMaxT set to 4.79D-01
 Use linear search instead of GDIIS.
     Eigenvalues ---    0.01013   0.01013   0.07532   0.07602   0.13583
     Eigenvalues ---    0.16000   0.16004   0.23446   0.29049   0.33251
     Eigenvalues ---    0.33280   0.34132   0.34282   0.47481   1.03759
     Eigenvalues --- 1000.000001000.000001000.000001000.000001000.00000
     Eigenvalues --- 1000.00000
 RFO step:  Lambda=-3.83034964D-05 EMin= 1.01256181D-02
 Quartic linear search produced a step of  0.37033.
 Iteration  1 RMS(Cart)=  0.00423533 RMS(Int)=  0.00002812
 Iteration  2 RMS(Cart)=  0.00002484 RMS(Int)=  0.00001754
 Iteration  3 RMS(Cart)=  0.00000000 RMS(Int)=  0.00001754
 Variable       Old X    -DE/DX   Delta X   Delta X   Delta X     New X
                                 (Linear)    (Quad)   (Total)
    R1        2.05838   0.00047  -0.00106   0.00200   0.00094   2.05932
    R2        2.04892   0.00057  -0.00196   0.00294   0.00098   2.04989
    R3        2.05838   0.00047  -0.00106   0.00200   0.00094   2.05932
    R4        2.81455   0.00103   0.00612  -0.00096   0.00517   2.81971
    R5        2.23288  -0.00237  -0.00402  -0.00016  -0.00418   2.22869
    R6        2.60312   0.00320   0.00474   0.00543   0.01017   2.61329
    A1        1.92267   0.00033   0.00482   0.00020   0.00500   1.92767
    A2        1.87165   0.00018   0.00035   0.00140   0.00169   1.87334
    A3        1.91395  -0.00023  -0.00392   0.00004  -0.00392   1.91003
    A4        1.92266   0.00033   0.00482   0.00020   0.00501   1.92766
    A5        1.91844  -0.00036  -0.00203  -0.00178  -0.00382   1.91462
    A6        1.91394  -0.00023  -0.00392   0.00002  -0.00393   1.91001
    A7        2.25737   0.00209   0.00450   0.00611   0.01061   2.26798
    A8        1.92889  -0.00074   0.00079  -0.00626  -0.00547   1.92342
    A9        2.09693  -0.00135  -0.00530   0.00015  -0.00514   2.09179
    D1        2.11626   0.00003   0.00216  -0.00107   0.00107   2.11734
    D2       -1.02538   0.00003   0.00214  -0.00066   0.00146  -1.02392
    D3        0.00008   0.00000   0.00001  -0.00021  -0.00020  -0.00012
    D4       -3.14156   0.00000  -0.00001   0.00021   0.00019  -3.14137
    D5       -2.11608  -0.00003  -0.00214   0.00066  -0.00147  -2.11755
    D6        1.02545  -0.00003  -0.00217   0.00108  -0.00107   1.02438
         Item               Value     Threshold  Converged?
 Maximum Force            0.003200     0.000450     NO 
 RMS     Force            0.001089     0.000300     NO 
 Maximum Displacement     0.009862     0.001800     NO 
 RMS     Displacement     0.004231     0.001200     NO 
 Predicted change in Energy=-4.502769D-05
 GradGradGradGradGradGradGradGradGradGradGradGradGradGradGradGradGradGrad

                          Input orientation:                          
 ---------------------------------------------------------------------
 Center     Atomic      Atomic             Coordinates (Angstroms)
 Number     Number       Type             X           Y           Z
 ---------------------------------------------------------------------
      1          6           0        1.392345   -0.043397    0.000014
      2          1           0        1.716838    0.514827   -0.877844
      3          1           0        1.828243   -1.036721   -0.000086
      4          1           0        1.716922    0.514682    0.877934
      5          6           0       -0.096160   -0.147309    0.000095
      6          8           0       -0.788585   -1.102019   -0.000041
      7          9           0       -0.662974    1.114083   -0.000064
 ---------------------------------------------------------------------
                    Distance matrix (angstroms):
                    1          2          3          4          5
     1  C    0.000000
     2  H    1.089746   0.000000
     3  H    1.084758   1.786105   0.000000
     4  H    1.089746   1.755778   1.786103   0.000000
     5  C    1.492128   2.120416   2.119995   2.120401   0.000000
     6  O    2.424281   3.108356   2.617643   3.108396   1.179374
     7  F    2.358834   2.606360   3.291219   2.606543   1.382892
                    6          7
     6  O    0.000000
     7  F    2.219659   0.000000
 Stoichiometry    C2H3FO
 Framework group  C1[X(C2H3FO)]
 Deg. of freedom    15
 Full point group                 C1      NOp   1
 Largest Abelian subgroup         C1      NOp   1
 Largest concise Abelian subgroup C1      NOp   1
                         Standard orientation:                         
 ---------------------------------------------------------------------
 Center     Atomic      Atomic             Coordinates (Angstroms)
 Number     Number       Type             X           Y           Z
 ---------------------------------------------------------------------
      1          6           0        1.368984   -0.025877    0.000022
      2          1           0        1.685545    0.536884   -0.877837
      3          1           0        1.818894   -1.012933   -0.000078
      4          1           0        1.685631    0.536740    0.877941
      5          6           0       -0.117901   -0.150841    0.000103
      6          8           0       -0.796748   -1.115253   -0.000033
      7          9           0       -0.702509    1.102404   -0.000057
 ---------------------------------------------------------------------
 Rotational constants (GHZ):     10.9049628      9.6593582      5.2887585
 Basis read from rwf:  (5D, 7F)
 Pseudo-potential data read from rwf file.
 There are   216 symmetry adapted basis functions of A   symmetry.
 Integral buffers will be    262144 words long.
 Raffenetti 2 integral format.
 Two-electron integral symmetry is turned on.
   216 basis functions,   322 primitive gaussians,   249 cartesian basis functions
    16 alpha electrons       16 beta electrons
       nuclear repulsion energy       118.3083180242 Hartrees.
 NAtoms=    7 NActive=    7 NUniq=    7 SFac= 7.50D-01 NAtFMM=   80 NAOKFM=F Big=F
 One-electron integrals computed using PRISM.
   1 Symmetry operations used in ECPInt.
 ECPInt:  NShTT=    2775 NPrTT=    8539 LenC2=    2776 LenP2D=    7550.
 LDataN:  DoStor=T MaxTD1= 6 Len=  172
 NBasis=   216 RedAO= T  NBF=   216
 NBsUse=   216 1.00D-06 NBFU=   216
 Initial guess read from the read-write file.
 B after Tr=     0.000000    0.000000    0.000000
         Rot=    1.000000    0.000000    0.000000    0.000000 Ang=   0.00 deg.
 Initial guess orbital symmetries:
       Occupied  (A) (A) (A) (A) (A) (A) (A) (A) (A) (A) (A) (A)
                 (A) (A) (A) (A)
       Virtual   (A) (A) (A) (A) (A) (A) (A) (A) (A) (A) (A) (A)
                 (A) (A) (A) (A) (A) (A) (A) (A) (A) (A) (A) (A)
                 (A) (A) (A) (A) (A) (A) (A) (A) (A) (A) (A) (A)
                 (A) (A) (A) (A) (A) (A) (A) (A) (A) (A) (A) (A)
                 (A) (A) (A) (A) (A) (A) (A) (A) (A) (A) (A) (A)
                 (A) (A) (A) (A) (A) (A) (A) (A) (A) (A) (A) (A)
                 (A) (A) (A) (A) (A) (A) (A) (A) (A) (A) (A) (A)
                 (A) (A) (A) (A) (A) (A) (A) (A) (A) (A) (A) (A)
                 (A) (A) (A) (A) (A) (A) (A) (A) (A) (A) (A) (A)
                 (A) (A) (A) (A) (A) (A) (A) (A) (A) (A) (A) (A)
                 (A) (A) (A) (A) (A) (A) (A) (A) (A) (A) (A) (A)
                 (A) (A) (A) (A) (A) (A) (A) (A) (A) (A) (A) (A)
                 (A) (A) (A) (A) (A) (A) (A) (A) (A) (A) (A) (A)
                 (A) (A) (A) (A) (A) (A) (A) (A) (A) (A) (A) (A)
                 (A) (A) (A) (A) (A) (A) (A) (A) (A) (A) (A) (A)
                 (A) (A) (A) (A) (A) (A) (A) (A) (A) (A) (A) (A)
                 (A) (A) (A) (A) (A) (A) (A) (A)
 Requested convergence on RMS density matrix=1.00D-08 within 128 cycles.
 Requested convergence on MAX density matrix=1.00D-06.
 Requested convergence on             energy=1.00D-06.
 No special actions if energy rises.
 SCF Done:  E(RB3LYP) =  -253.188266241     A.U. after   12 cycles
             Convg  =    0.6473D-08             -V/T =  2.0059
   1 Symmetry operations used in ECPInt.
 ECPInt:  NShTT=    2775 NPrTT=    8539 LenC2=    2776 LenP2D=    7550.
 LDataN:  DoStor=T MaxTD1= 7 Len=  274
 Calling FoFJK, ICntrl=      2127 FMM=F ISym2X=0 I1Cent= 0 IOpClX= 0 NMat=1 NMatS=1 NMatT=0.
 ***** Axes restored to original set *****
 -------------------------------------------------------------------
 Center     Atomic                   Forces (Hartrees/Bohr)
 Number     Number              X              Y              Z
 -------------------------------------------------------------------
      1        6          -0.000950999    0.000472401    0.000014815
      2        1           0.000064707   -0.000095267   -0.000049628
      3        1           0.000312548   -0.000100013    0.000001163
      4        1           0.000071569   -0.000094970    0.000049687
      5        6           0.001297389   -0.001408584   -0.000044541
      6        8          -0.000325237   -0.000052343    0.000016440
      7        9          -0.000469977    0.001278776    0.000012063
 -------------------------------------------------------------------
 Cartesian Forces:  Max     0.001408584 RMS     0.000573303

 GradGradGradGradGradGradGradGradGradGradGradGradGradGradGradGradGradGrad
 Berny optimization.
 Using GEDIIS/GDIIS optimizer.
 Internal  Forces:  Max     0.001361992 RMS     0.000358246
 Search for a local minimum.
 Step number   4 out of a maximum of   31
 All quantities printed in internal units (Hartrees-Bohrs-Radians)
 Mixed Optimization -- En-DIIS/RFO-DIIS
 Update second derivatives using D2CorX and points    1    2    3    4
 DE= -5.12D-05 DEPred=-4.50D-05 R= 1.14D+00
 SS=  1.41D+00  RLast= 2.06D-02 DXNew= 8.0531D-01 6.1797D-02
 Trust test= 1.14D+00 RLast= 2.06D-02 DXMaxT set to 4.79D-01
 Use linear search instead of GDIIS.
     Eigenvalues ---    0.01013   0.01013   0.07571   0.07708   0.13763
     Eigenvalues ---    0.16000   0.16349   0.20260   0.28861   0.33244
     Eigenvalues ---    0.33251   0.33799   0.35350   0.44595   1.08449
     Eigenvalues --- 1000.000001000.000001000.000001000.000001000.00000
     Eigenvalues --- 1000.00000
 RFO step:  Lambda=-6.29736850D-06 EMin= 1.01256166D-02
 Quartic linear search produced a step of  0.20053.
 Iteration  1 RMS(Cart)=  0.00173470 RMS(Int)=  0.00000326
 Iteration  2 RMS(Cart)=  0.00000313 RMS(Int)=  0.00000096
 Iteration  3 RMS(Cart)=  0.00000000 RMS(Int)=  0.00000096
 Variable       Old X    -DE/DX   Delta X   Delta X   Delta X     New X
                                 (Linear)    (Quad)   (Total)
    R1        2.05932   0.00001   0.00019  -0.00026  -0.00007   2.05925
    R2        2.04989   0.00022   0.00020   0.00036   0.00055   2.05045
    R3        2.05932   0.00001   0.00019  -0.00025  -0.00007   2.05926
    R4        2.81971  -0.00049   0.00104  -0.00163  -0.00059   2.81912
    R5        2.22869   0.00023  -0.00084   0.00030  -0.00054   2.22815
    R6        2.61329   0.00136   0.00204   0.00227   0.00431   2.61759
    A1        1.92767  -0.00019   0.00100  -0.00149  -0.00049   1.92718
    A2        1.87334   0.00001   0.00034   0.00024   0.00058   1.87392
    A3        1.91003   0.00003  -0.00079   0.00022  -0.00057   1.90946
    A4        1.92766  -0.00020   0.00100  -0.00151  -0.00051   1.92716
    A5        1.91462   0.00030  -0.00077   0.00221   0.00144   1.91607
    A6        1.91001   0.00004  -0.00079   0.00031  -0.00048   1.90952
    A7        2.26798   0.00044   0.00213   0.00117   0.00330   2.27128
    A8        1.92342  -0.00035  -0.00110  -0.00106  -0.00216   1.92126
    A9        2.09179  -0.00009  -0.00103  -0.00011  -0.00114   2.09064
    D1        2.11734  -0.00002   0.00021   0.00077   0.00098   2.11832
    D2       -1.02392  -0.00004   0.00029  -0.00144  -0.00115  -1.02507
    D3       -0.00012   0.00001  -0.00004   0.00108   0.00104   0.00092
    D4       -3.14137  -0.00001   0.00004  -0.00113  -0.00109   3.14072
    D5       -2.11755   0.00004  -0.00029   0.00136   0.00106  -2.11649
    D6        1.02438   0.00002  -0.00022  -0.00085  -0.00107   1.02331
         Item               Value     Threshold  Converged?
 Maximum Force            0.001362     0.000450     NO 
 RMS     Force            0.000358     0.000300     NO 
 Maximum Displacement     0.004571     0.001800     NO 
 RMS     Displacement     0.001735     0.001200     NO 
 Predicted change in Energy=-4.477676D-06
 GradGradGradGradGradGradGradGradGradGradGradGradGradGradGradGradGradGrad

                          Input orientation:                          
 ---------------------------------------------------------------------
 Center     Atomic      Atomic             Coordinates (Angstroms)
 Number     Number       Type             X           Y           Z
 ---------------------------------------------------------------------
      1          6           0        1.392334   -0.043705   -0.000083
      2          1           0        1.716038    0.514707   -0.878064
      3          1           0        1.830661   -1.036280    0.000077
      4          1           0        1.715596    0.514773    0.878026
      5          6           0       -0.095766   -0.148912   -0.000513
      6          8           0       -0.790327   -1.101716    0.000148
      7          9           0       -0.661908    1.115280    0.000415
 ---------------------------------------------------------------------
                    Distance matrix (angstroms):
                    1          2          3          4          5
     1  C    0.000000
     2  H    1.089707   0.000000
     3  H    1.085051   1.786010   0.000000
     4  H    1.089711   1.756091   1.786000   0.000000
     5  C    1.491814   2.119699   2.120977   2.119750   0.000000
     6  O    2.425571   3.109010   2.621805   3.108593   1.179088
     7  F    2.358634   2.605195   3.292736   2.604483   1.385171
                    6          7
     6  O    0.000000
     7  F    2.220712   0.000000
 Stoichiometry    C2H3FO
 Framework group  C1[X(C2H3FO)]
 Deg. of freedom    15
 Full point group                 C1      NOp   1
 Largest Abelian subgroup         C1      NOp   1
 Largest concise Abelian subgroup C1      NOp   1
                         Standard orientation:                         
 ---------------------------------------------------------------------
 Center     Atomic      Atomic             Coordinates (Angstroms)
 Number     Number       Type             X           Y           Z
 ---------------------------------------------------------------------
      1          6           0        1.368987   -0.028526    0.000081
      2          1           0        1.685822    0.533750   -0.877940
      3          1           0        1.819676   -1.015549    0.000459
      4          1           0        1.685119    0.534080    0.878150
      5          6           0       -0.117683   -0.152309   -0.000550
      6          8           0       -0.800291   -1.113712    0.000157
      7          9           0       -0.699568    1.104714    0.000098
 ---------------------------------------------------------------------
 Rotational constants (GHZ):     10.8928050      9.6572773      5.2853356
 Basis read from rwf:  (5D, 7F)
 Pseudo-potential data read from rwf file.
 There are   216 symmetry adapted basis functions of A   symmetry.
 Integral buffers will be    262144 words long.
 Raffenetti 2 integral format.
 Two-electron integral symmetry is turned on.
   216 basis functions,   322 primitive gaussians,   249 cartesian basis functions
    16 alpha electrons       16 beta electrons
       nuclear repulsion energy       118.2678530538 Hartrees.
 NAtoms=    7 NActive=    7 NUniq=    7 SFac= 7.50D-01 NAtFMM=   80 NAOKFM=F Big=F
 One-electron integrals computed using PRISM.
   1 Symmetry operations used in ECPInt.
 ECPInt:  NShTT=    2775 NPrTT=    8539 LenC2=    2776 LenP2D=    7550.
 LDataN:  DoStor=T MaxTD1= 6 Len=  172
 NBasis=   216 RedAO= T  NBF=   216
 NBsUse=   216 1.00D-06 NBFU=   216
 Initial guess read from the read-write file.
 B after Tr=     0.000000    0.000000    0.000000
         Rot=    1.000000    0.000000    0.000000    0.000000 Ang=   0.00 deg.
 Initial guess orbital symmetries:
       Occupied  (A) (A) (A) (A) (A) (A) (A) (A) (A) (A) (A) (A)
                 (A) (A) (A) (A)
       Virtual   (A) (A) (A) (A) (A) (A) (A) (A) (A) (A) (A) (A)
                 (A) (A) (A) (A) (A) (A) (A) (A) (A) (A) (A) (A)
                 (A) (A) (A) (A) (A) (A) (A) (A) (A) (A) (A) (A)
                 (A) (A) (A) (A) (A) (A) (A) (A) (A) (A) (A) (A)
                 (A) (A) (A) (A) (A) (A) (A) (A) (A) (A) (A) (A)
                 (A) (A) (A) (A) (A) (A) (A) (A) (A) (A) (A) (A)
                 (A) (A) (A) (A) (A) (A) (A) (A) (A) (A) (A) (A)
                 (A) (A) (A) (A) (A) (A) (A) (A) (A) (A) (A) (A)
                 (A) (A) (A) (A) (A) (A) (A) (A) (A) (A) (A) (A)
                 (A) (A) (A) (A) (A) (A) (A) (A) (A) (A) (A) (A)
                 (A) (A) (A) (A) (A) (A) (A) (A) (A) (A) (A) (A)
                 (A) (A) (A) (A) (A) (A) (A) (A) (A) (A) (A) (A)
                 (A) (A) (A) (A) (A) (A) (A) (A) (A) (A) (A) (A)
                 (A) (A) (A) (A) (A) (A) (A) (A) (A) (A) (A) (A)
                 (A) (A) (A) (A) (A) (A) (A) (A) (A) (A) (A) (A)
                 (A) (A) (A) (A) (A) (A) (A) (A) (A) (A) (A) (A)
                 (A) (A) (A) (A) (A) (A) (A) (A)
 Requested convergence on RMS density matrix=1.00D-08 within 128 cycles.
 Requested convergence on MAX density matrix=1.00D-06.
 Requested convergence on             energy=1.00D-06.
 No special actions if energy rises.
 SCF Done:  E(RB3LYP) =  -253.188271825     A.U. after    8 cycles
             Convg  =    0.3253D-08             -V/T =  2.0059
   1 Symmetry operations used in ECPInt.
 ECPInt:  NShTT=    2775 NPrTT=    8539 LenC2=    2776 LenP2D=    7550.
 LDataN:  DoStor=T MaxTD1= 7 Len=  274
 Calling FoFJK, ICntrl=      2127 FMM=F ISym2X=0 I1Cent= 0 IOpClX= 0 NMat=1 NMatS=1 NMatT=0.
 ***** Axes restored to original set *****
 -------------------------------------------------------------------
 Center     Atomic                   Forces (Hartrees/Bohr)
 Number     Number              X              Y              Z
 -------------------------------------------------------------------
      1        6          -0.000770321    0.000137674   -0.000076124
      2        1           0.000099407   -0.000049625   -0.000027545
      3        1           0.000146821    0.000008700   -0.000006253
      4        1           0.000063376   -0.000050770    0.000026217
      5        6           0.000704202   -0.000246239    0.000233227
      6        8          -0.000143321   -0.000218272   -0.000086453
      7        9          -0.000100165    0.000418532   -0.000063070
 -------------------------------------------------------------------
 Cartesian Forces:  Max     0.000770321 RMS     0.000270446

 GradGradGradGradGradGradGradGradGradGradGradGradGradGradGradGradGradGrad
 Berny optimization.
 Using GEDIIS/GDIIS optimizer.
 Internal  Forces:  Max     0.000457139 RMS     0.000165957
 Search for a local minimum.
 Step number   5 out of a maximum of   31
 All quantities printed in internal units (Hartrees-Bohrs-Radians)
 Mixed Optimization -- En-DIIS/RFO-DIIS
 Swaping is turned off.
 Update second derivatives using D2CorX and points    1    2    3    4    5
 DE= -5.58D-06 DEPred=-4.48D-06 R= 1.25D+00
 SS=  1.41D+00  RLast= 6.83D-03 DXNew= 8.0531D-01 2.0498D-02
 Trust test= 1.25D+00 RLast= 6.83D-03 DXMaxT set to 4.79D-01
     Eigenvalues ---    0.01013   0.01088   0.07563   0.07704   0.13712
     Eigenvalues ---    0.15030   0.16091   0.17395   0.28445   0.33249
     Eigenvalues ---    0.33336   0.33549   0.36942   0.39040   1.05844
     Eigenvalues --- 1000.000001000.000001000.000001000.000001000.00000
     Eigenvalues --- 1000.00000
 En-DIIS/RFO-DIIS IScMMF=        0 using points:     5    4
 RFO step:  Lambda=-1.28131178D-06.
 DIIS coeffs:      1.34428     -0.34428
 Iteration  1 RMS(Cart)=  0.00240990 RMS(Int)=  0.00001335
 Iteration  2 RMS(Cart)=  0.00001150 RMS(Int)=  0.00000761
 Iteration  3 RMS(Cart)=  0.00000000 RMS(Int)=  0.00000761
 Variable       Old X    -DE/DX   Delta X   Delta X   Delta X     New X
                                  (DIIS)     (GDIIS)  (Total)
    R1        2.05925   0.00002  -0.00003   0.00010   0.00008   2.05933
    R2        2.05045   0.00005   0.00019   0.00020   0.00039   2.05084
    R3        2.05926   0.00001  -0.00002   0.00006   0.00003   2.05929
    R4        2.81912  -0.00046  -0.00020  -0.00127  -0.00147   2.81765
    R5        2.22815   0.00026  -0.00019   0.00000  -0.00019   2.22797
    R6        2.61759   0.00043   0.00148   0.00155   0.00303   2.62062
    A1        1.92718  -0.00014  -0.00017  -0.00091  -0.00108   1.92610
    A2        1.87392  -0.00003   0.00020   0.00006   0.00026   1.87418
    A3        1.90946   0.00011  -0.00020   0.00066   0.00046   1.90992
    A4        1.92716  -0.00012  -0.00017  -0.00080  -0.00098   1.92618
    A5        1.91607   0.00014   0.00050   0.00083   0.00133   1.91739
    A6        1.90952   0.00005  -0.00017   0.00016  -0.00001   1.90951
    A7        2.27128   0.00007   0.00114   0.00103   0.00215   2.27343
    A8        1.92126  -0.00015  -0.00074  -0.00083  -0.00160   1.91967
    A9        2.09064   0.00008  -0.00039  -0.00018  -0.00059   2.09005
    D1        2.11832  -0.00007   0.00034  -0.00645  -0.00611   2.11221
    D2       -1.02507   0.00003  -0.00040   0.00631   0.00592  -1.01915
    D3        0.00092  -0.00005   0.00036  -0.00627  -0.00591  -0.00499
    D4        3.14072   0.00005  -0.00038   0.00649   0.00611  -3.13635
    D5       -2.11649  -0.00002   0.00037  -0.00590  -0.00553  -2.12202
    D6        1.02331   0.00008  -0.00037   0.00686   0.00649   1.02981
         Item               Value     Threshold  Converged?
 Maximum Force            0.000457     0.000450     NO 
 RMS     Force            0.000166     0.000300     YES
 Maximum Displacement     0.006465     0.001800     NO 
 RMS     Displacement     0.002413     0.001200     NO 
 Predicted change in Energy=-2.304790D-06
 GradGradGradGradGradGradGradGradGradGradGradGradGradGradGradGradGradGrad

                          Input orientation:                          
 ---------------------------------------------------------------------
 Center     Atomic      Atomic             Coordinates (Angstroms)
 Number     Number       Type             X           Y           Z
 ---------------------------------------------------------------------
      1          6           0        1.391829   -0.043826    0.000466
      2          1           0        1.713928    0.515119   -0.877819
      3          1           0        1.832223   -1.035708   -0.000831
      4          1           0        1.716466    0.514027    0.878486
      5          6           0       -0.095422   -0.149981    0.002908
      6          8           0       -0.791336   -1.101667   -0.000941
      7          9           0       -0.661060    1.116183   -0.002263
 ---------------------------------------------------------------------
                    Distance matrix (angstroms):
                    1          2          3          4          5
     1  C    0.000000
     2  H    1.089748   0.000000
     3  H    1.085256   1.785544   0.000000
     4  H    1.089729   1.756307   1.785575   0.000000
     5  C    1.491036   2.119383   2.121401   2.119075   0.000000
     6  O    2.425951   3.107935   2.624389   3.110133   1.178990
     7  F    2.357961   2.601624   3.293494   2.605944   1.386775
                    6          7
     6  O    0.000000
     7  F    2.221673   0.000000
 Stoichiometry    C2H3FO
 Framework group  C1[X(C2H3FO)]
 Deg. of freedom    15
 Full point group                 C1      NOp   1
 Largest Abelian subgroup         C1      NOp   1
 Largest concise Abelian subgroup C1      NOp   1
                         Standard orientation:                         
 ---------------------------------------------------------------------
 Center     Atomic      Atomic             Coordinates (Angstroms)
 Number     Number       Type             X           Y           Z
 ---------------------------------------------------------------------
      1          6           0       -1.368481   -0.030426    0.000468
      2          1           0       -1.683543    0.532794    0.878575
      3          1           0       -1.819985   -1.017298    0.002923
      4          1           0       -1.687573    0.530346   -0.877726
      5          6           0        0.117481   -0.153278   -0.003131
      6          8           0        0.802667   -1.112716    0.000897
      7          9           0        0.697307    1.106457    0.000559
 ---------------------------------------------------------------------
 Rotational constants (GHZ):     10.8825819      9.6602004      5.2838592
 Basis read from rwf:  (5D, 7F)
 Pseudo-potential data read from rwf file.
 There are   216 symmetry adapted basis functions of A   symmetry.
 Integral buffers will be    262144 words long.
 Raffenetti 2 integral format.
 Two-electron integral symmetry is turned on.
   216 basis functions,   322 primitive gaussians,   249 cartesian basis functions
    16 alpha electrons       16 beta electrons
       nuclear repulsion energy       118.2460071331 Hartrees.
 NAtoms=    7 NActive=    7 NUniq=    7 SFac= 7.50D-01 NAtFMM=   80 NAOKFM=F Big=F
 One-electron integrals computed using PRISM.
   1 Symmetry operations used in ECPInt.
 ECPInt:  NShTT=    2775 NPrTT=    8539 LenC2=    2776 LenP2D=    7549.
 LDataN:  DoStor=T MaxTD1= 6 Len=  172
 NBasis=   216 RedAO= T  NBF=   216
 NBsUse=   216 1.00D-06 NBFU=   216
 Initial guess read from the read-write file.
 B after Tr=     0.000000    0.000000    0.000000
         Rot=    1.000000    0.000000    0.000000    0.000000 Ang=   0.00 deg.
 Initial guess orbital symmetries:
       Occupied  (A) (A) (A) (A) (A) (A) (A) (A) (A) (A) (A) (A)
                 (A) (A) (A) (A)
       Virtual   (A) (A) (A) (A) (A) (A) (A) (A) (A) (A) (A) (A)
                 (A) (A) (A) (A) (A) (A) (A) (A) (A) (A) (A) (A)
                 (A) (A) (A) (A) (A) (A) (A) (A) (A) (A) (A) (A)
                 (A) (A) (A) (A) (A) (A) (A) (A) (A) (A) (A) (A)
                 (A) (A) (A) (A) (A) (A) (A) (A) (A) (A) (A) (A)
                 (A) (A) (A) (A) (A) (A) (A) (A) (A) (A) (A) (A)
                 (A) (A) (A) (A) (A) (A) (A) (A) (A) (A) (A) (A)
                 (A) (A) (A) (A) (A) (A) (A) (A) (A) (A) (A) (A)
                 (A) (A) (A) (A) (A) (A) (A) (A) (A) (A) (A) (A)
                 (A) (A) (A) (A) (A) (A) (A) (A) (A) (A) (A) (A)
                 (A) (A) (A) (A) (A) (A) (A) (A) (A) (A) (A) (A)
                 (A) (A) (A) (A) (A) (A) (A) (A) (A) (A) (A) (A)
                 (A) (A) (A) (A) (A) (A) (A) (A) (A) (A) (A) (A)
                 (A) (A) (A) (A) (A) (A) (A) (A) (A) (A) (A) (A)
                 (A) (A) (A) (A) (A) (A) (A) (A) (A) (A) (A) (A)
                 (A) (A) (A) (A) (A) (A) (A) (A) (A) (A) (A) (A)
                 (A) (A) (A) (A) (A) (A) (A) (A)
[...]
 IR Inten    --     0.0578                 0.3241                 5.7498
  Atom  AN      X      Y      Z        X      Y      Z        X      Y      Z
     1   6     0.00   0.00   0.00    -0.07   0.20   0.00     0.00   0.00  -0.01
     2   1     0.00  -0.50  -0.32    -0.34   0.38   0.01     0.57  -0.01   0.20
     3   1     0.00   0.00   0.53     0.39   0.42   0.00     0.00   0.00   0.36
     4   1     0.00   0.50  -0.32    -0.34   0.38  -0.01    -0.57   0.01   0.20
     5   6     0.00   0.00   0.01    -0.03  -0.16   0.00     0.00   0.00  -0.34
     6   8     0.00   0.00  -0.05    -0.17  -0.06   0.00     0.00   0.00   0.12
     7   9     0.00   0.00   0.04     0.22  -0.04   0.00     0.00   0.00   0.08
                     4                      5                      6
                     A                      A                      A
 Frequencies --   590.3209               809.1859               998.8896
 Red. masses --     8.2168                 6.4355                 2.0346
 Frc consts  --     1.6871                 2.4827                 1.1961
 IR Inten    --    17.8445                78.5842                49.1224
  Atom  AN      X      Y      Z        X      Y      Z        X      Y      Z
     1   6     0.38   0.06   0.00    -0.34   0.04   0.00     0.10   0.17   0.00
     2   1     0.33   0.09  -0.01    -0.14  -0.09  -0.01     0.53  -0.20  -0.07
     3   1     0.51   0.12   0.00    -0.74  -0.13   0.00    -0.50  -0.12   0.00
     4   1     0.33   0.09   0.01    -0.14  -0.09   0.01     0.53  -0.20   0.07
     5   6     0.17  -0.02   0.00     0.01   0.26   0.00    -0.16   0.06   0.00
     6   8    -0.31   0.33   0.00     0.13   0.20   0.00    -0.05  -0.10   0.00
     7   9    -0.15  -0.32   0.00     0.16  -0.34   0.00     0.06  -0.03   0.00
                     7                      8                      9
                     A                      A                      A
 Frequencies --  1070.2633              1175.4561              1402.9624
 Red. masses --     1.7693                 2.8645                 1.2855
 Frc consts  --     1.1941                 2.3319                 1.4908
 IR Inten    --     9.1280               173.0525                30.5109
  Atom  AN      X      Y      Z        X      Y      Z        X      Y      Z
     1   6     0.00   0.00   0.17    -0.10   0.14   0.00     0.15   0.01   0.00
     2   1    -0.59  -0.13  -0.15     0.08  -0.24  -0.16    -0.56  -0.02  -0.27
     3   1     0.00   0.00  -0.39    -0.79  -0.18   0.00    -0.40  -0.23   0.00
     4   1     0.59   0.13  -0.15     0.08  -0.24   0.16    -0.56  -0.02   0.27
     5   6     0.00   0.00  -0.19     0.27  -0.23   0.00    -0.03   0.03   0.00
     6   8     0.00   0.00   0.04    -0.04   0.04   0.00     0.00  -0.01   0.00
     7   9     0.00   0.00   0.02    -0.04   0.06   0.00     0.00  -0.01   0.00
                    10                     11                     12
                     A                      A                      A
 Frequencies --  1468.7017              1474.4955              1913.8994
 Red. masses --     1.0473                 1.0446                12.2233
 Frc consts  --     1.3310                 1.3382                26.3800
 IR Inten    --    14.9501                 7.8766               308.8041
  Atom  AN      X      Y      Z        X      Y      Z        X      Y      Z
     1   6     0.03  -0.04   0.00     0.00   0.00  -0.05    -0.07  -0.03   0.00
     2   1     0.05   0.50   0.35    -0.35   0.34   0.05    -0.12  -0.07  -0.07
     3   1    -0.43  -0.24   0.00     0.00   0.00   0.72     0.15   0.11   0.00
     4   1     0.05   0.50  -0.35     0.35  -0.34   0.05    -0.12  -0.07   0.07
     5   6     0.02   0.00   0.00     0.00   0.00  -0.03     0.53   0.59   0.00
     6   8    -0.01  -0.01   0.00     0.00   0.00   0.00    -0.32  -0.42   0.00
     7   9     0.00   0.00   0.00     0.00   0.00   0.00    -0.02   0.01   0.00
                    13                     14                     15
                     A                      A                      A
 Frequencies --  3055.6030              3113.8777              3160.4114
 Red. masses --     1.0359                 1.0994                 1.1037
 Frc consts  --     5.6987                 6.2808                 6.4951
 IR Inten    --     0.0538                 0.8810                 2.6920
  Atom  AN      X      Y      Z        X      Y      Z        X      Y      Z
     1   6     0.05   0.02   0.00     0.00   0.00   0.09     0.02  -0.09   0.00
     2   1    -0.18  -0.32   0.52     0.21   0.37  -0.56     0.09   0.14  -0.24
     3   1    -0.17   0.39   0.00     0.00   0.00   0.02    -0.38   0.82   0.00
     4   1    -0.18  -0.32  -0.52    -0.21  -0.37  -0.56     0.09   0.14   0.24
     5   6     0.00   0.00   0.00     0.00   0.00   0.00     0.00   0.00   0.00
     6   8     0.00   0.00   0.00     0.00   0.00   0.00     0.00   0.00   0.00
     7   9     0.00   0.00   0.00     0.00   0.00   0.00     0.00   0.00   0.00

 -------------------
 - Thermochemistry -
 -------------------
 Temperature   298.150 Kelvin.  Pressure   1.00000 Atm.
 Atom     1 has atomic number  6 and mass  12.00000
 Atom     2 has atomic number  1 and mass   1.00783
 Atom     3 has atomic number  1 and mass   1.00783
 Atom     4 has atomic number  1 and mass   1.00783
 Atom     5 has atomic number  6 and mass  12.00000
 Atom     6 has atomic number  8 and mass  15.99491
 Atom     7 has atomic number  9 and mass  18.99840
 Molecular mass:    62.01679 amu.
 Principal axes and moments of inertia in atomic units:
                           1         2         3
     Eigenvalues --   165.79309 186.77423 341.46720
           X            0.99434   0.10625  -0.00002
           Y           -0.10625   0.99434   0.00000
           Z            0.00002   0.00001   1.00000
 This molecule is an asymmetric top.
 Rotational symmetry number  1.
 Rotational temperatures (Kelvin)      0.52242     0.46374     0.25365
 Rotational constants (GHZ):          10.88550     9.66269     5.28525
 Zero-point vibrational energy     127598.0 (Joules/Mol)
                                   30.49665 (Kcal/Mol)
 Warning -- explicit consideration of   4 degrees of freedom as
           vibrations may cause significant error
 Vibrational temperatures:    175.44   588.46   816.80   849.34  1164.24
          (Kelvin)           1437.18  1539.87  1691.22  2018.55  2113.13
                             2121.47  2753.67  4396.33  4480.17  4547.12
 
 Zero-point correction=                           0.048599 (Hartree/Particle)
 Thermal correction to Energy=                    0.052949
 Thermal correction to Enthalpy=                  0.053893
 Thermal correction to Gibbs Free Energy=         0.021775
 Sum of electronic and zero-point Energies=           -253.139674
 Sum of electronic and thermal Energies=              -253.135324
 Sum of electronic and thermal Enthalpies=            -253.134380
 Sum of electronic and thermal Free Energies=         -253.166498
 
                     E (Thermal)             CV                S
                      KCal/Mol        Cal/Mol-Kelvin    Cal/Mol-Kelvin
 Total                   33.226             13.326             67.598
 Electronic               0.000              0.000              0.000
 Translational            0.889              2.981             38.294
 Rotational               0.889              2.981             23.873
 Vibrational             31.448              7.364              5.431
 Vibration     1          0.609              1.931              3.069
 Vibration     2          0.773              1.451              0.930
 Vibration     3          0.924              1.101              0.509
 Vibration     4          0.948              1.052              0.467
                       Q            Log10(Q)             Ln(Q)
 Total Bot       0.964538D-10        -10.015681        -23.061957
 Total V=0       0.218017D+13         12.338490         28.410422
 Vib (Bot)       0.136502D-21        -21.864862        -50.345706
 Vib (Bot)    1  0.167515D+01          0.224054          0.515903
 Vib (Bot)    2  0.432891D+00         -0.363622         -0.837270
 Vib (Bot)    3  0.271715D+00         -0.565886         -1.303001
 Vib (Bot)    4  0.255461D+00         -0.592675         -1.364684
 Vib (V=0)       0.308537D+01          0.489308          1.126673
 Vib (V=0)    1  0.224818D+01          0.351831          0.810120
 Vib (V=0)    2  0.116136D+01          0.064966          0.149590
 Vib (V=0)    3  0.106906D+01          0.029002          0.066780
 Vib (V=0)    4  0.106148D+01          0.025912          0.059665
 Electronic      0.100000D+01          0.000000          0.000000
 Translational   0.191964D+08          7.283219         16.770232
 Rotational      0.368097D+05          4.565963         10.513517
 ***** Axes restored to original set *****
 -------------------------------------------------------------------
 Center     Atomic                   Forces (Hartrees/Bohr)
 Number     Number              X              Y              Z
 -------------------------------------------------------------------
      1        6          -0.000047170   -0.000017332    0.000008038
      2        1          -0.000002444    0.000000800    0.000013010
      3        1           0.000001781    0.000017285    0.000000595
      4        1           0.000001208    0.000001028   -0.000013003
      5        6           0.000020776   -0.000080118   -0.000024092
      6        8           0.000050214    0.000030595    0.000008876
      7        9          -0.000024365    0.000047742    0.000006575
 -------------------------------------------------------------------
 Cartesian Forces:  Max     0.000080118 RMS     0.000028555

 GradGradGradGradGradGradGradGradGradGradGradGradGradGradGradGradGradGrad
 Berny optimization.
 Internal  Forces:  Max     0.000056626 RMS     0.000021920
 Search for a local minimum.
 Step number   1 out of a maximum of    2
 All quantities printed in internal units (Hartrees-Bohrs-Radians)
 Second derivative matrix not updated -- analytic derivatives used.
     Eigenvalues ---    0.00103   0.05011   0.05480   0.05588   0.12392
     Eigenvalues ---    0.12720   0.14034   0.17403   0.24813   0.32016
     Eigenvalues ---    0.33137   0.33819   0.34412   0.35282   0.97290
     Eigenvalues --- 1000.000001000.000001000.000001000.000001000.00000
     Eigenvalues --- 1000.00000
 Angle between quadratic step and forces=  39.71 degrees.
 Linear search not attempted -- first point.
 Iteration  1 RMS(Cart)=  0.00007943 RMS(Int)=  0.00000000
 Iteration  2 RMS(Cart)=  0.00000000 RMS(Int)=  0.00000000
 Variable       Old X    -DE/DX   Delta X   Delta X   Delta X     New X
                                 (Linear)    (Quad)   (Total)
    R1        2.05936  -0.00001   0.00000  -0.00003  -0.00003   2.05934
    R2        2.05074  -0.00001   0.00000  -0.00004  -0.00004   2.05070
    R3        2.05936  -0.00001   0.00000  -0.00003  -0.00003   2.05934
    R4        2.81732  -0.00005   0.00000  -0.00018  -0.00018   2.81713
    R5        2.22833  -0.00006   0.00000  -0.00008  -0.00008   2.22826
    R6        2.61920   0.00006   0.00000   0.00023   0.00023   2.61942
    A1        1.92588   0.00000   0.00000  -0.00002  -0.00002   1.92586
    A2        1.87393  -0.00001   0.00000  -0.00012  -0.00012   1.87381
    A3        1.91018   0.00000   0.00000   0.00005   0.00005   1.91023
    A4        1.92588   0.00000   0.00000  -0.00002  -0.00002   1.92586
    A5        1.91726   0.00000   0.00000   0.00004   0.00004   1.91730
    A6        1.91017   0.00001   0.00000   0.00006   0.00006   1.91023
    A7        2.27229  -0.00002   0.00000  -0.00003  -0.00003   2.27227
    A8        1.92037   0.00001   0.00000   0.00000   0.00000   1.92037
    A9        2.09052   0.00001   0.00000   0.00002   0.00002   2.09055
    D1        2.11694   0.00001   0.00000   0.00009   0.00009   2.11704
    D2       -1.02447   0.00000   0.00000  -0.00009  -0.00009  -1.02456
    D3       -0.00006   0.00001   0.00000   0.00006   0.00006   0.00000
    D4       -3.14147   0.00000   0.00000  -0.00012  -0.00012  -3.14159
    D5       -2.11705   0.00000   0.00000   0.00002   0.00002  -2.11703
    D6        1.02473  -0.00001   0.00000  -0.00017  -0.00017   1.02456
         Item               Value     Threshold  Converged?
 Maximum Force            0.000057     0.000450     YES
 RMS     Force            0.000022     0.000300     YES
 Maximum Displacement     0.000163     0.001800     YES
 RMS     Displacement     0.000079     0.001200     YES
 Predicted change in Energy=-1.649193D-08
 Optimization completed.
    -- Stationary point found.
                           ----------------------------
                           !   Optimized Parameters   !
                           ! (Angstroms and Degrees)  !
 --------------------------                            --------------------------
 ! Name  Definition              Value          Derivative Info.                !
 --------------------------------------------------------------------------------
 ! R1    R(1,2)                  1.0898         -DE/DX =    0.0                 !
 ! R2    R(1,3)                  1.0852         -DE/DX =    0.0                 !
 ! R3    R(1,4)                  1.0898         -DE/DX =    0.0                 !
 ! R4    R(1,5)                  1.4909         -DE/DX =    0.0                 !
 ! R5    R(5,6)                  1.1792         -DE/DX =   -0.0001              !
 ! R6    R(5,7)                  1.386          -DE/DX =    0.0001              !
 ! A1    A(2,1,3)              110.3448         -DE/DX =    0.0                 !
 ! A2    A(2,1,4)              107.3684         -DE/DX =    0.0                 !
 ! A3    A(2,1,5)              109.4454         -DE/DX =    0.0                 !
 ! A4    A(3,1,4)              110.3446         -DE/DX =    0.0                 !
 ! A5    A(3,1,5)              109.8506         -DE/DX =    0.0                 !
 ! A6    A(4,1,5)              109.4447         -DE/DX =    0.0                 !
 ! A7    A(1,5,6)              130.1927         -DE/DX =    0.0                 !
 ! A8    A(1,5,7)              110.0292         -DE/DX =    0.0                 !
 ! A9    A(6,5,7)              119.7781         -DE/DX =    0.0                 !
 ! D1    D(2,1,5,6)            121.292          -DE/DX =    0.0                 !
 ! D2    D(2,1,5,7)            -58.6976         -DE/DX =    0.0                 !
 ! D3    D(3,1,5,6)             -0.0033         -DE/DX =    0.0                 !
 ! D4    D(3,1,5,7)           -179.9929         -DE/DX =    0.0                 !
 ! D5    D(4,1,5,6)           -121.2979         -DE/DX =    0.0                 !
 ! D6    D(4,1,5,7)             58.7126         -DE/DX =    0.0                 !
 --------------------------------------------------------------------------------
 GradGradGradGradGradGradGradGradGradGradGradGradGradGradGradGradGradGrad

 1|1|UNPC-WST-PGHS-014|Freq|RB3LYP|GenECP|C2H3F1O1|214584429|25-Mar-201
 5|0||#N Geom=AllCheck Guess=TCheck SCRF=Check GenChk RB3LYP/GenECP Fre
 q||gen calculation FAc-C H O=aug-cc-pvtz/F=lanl2dz||0,1|C,1.3915732793
 ,-0.0436896611,0.0000072415|H,1.7155748154,0.5145334511,-0.8780610641|
 H,1.831524894,-1.0357141566,-0.0000668217|H,1.715620384,0.5144179663,0
 .8781324845|C,-0.0955348054,-0.1494026965,0.0000496712|O,-0.790746953,
 -1.1018470816,-0.0000367061|F,-0.6613836143,1.1158491784,-0.0000180552
 ||Version=IA32W-G09RevA.02|State=1-A|HF=-253.1882732|RMSD=5.546e-010|R
 MSF=2.855e-005|ZeroPoint=0.0485995|Thermal=0.0529488|Dipole=1.1933144,
 0.1907572,0.0000618|DipoleDeriv=-0.2794622,-0.0454608,0.000028,-0.1285
 961,-0.0098188,0.000022,0.000005,-0.0000218,0.0478502,0.0519197,-0.006
 877,0.0024414,0.0115132,0.0734971,0.0566203,0.0319825,0.0581219,0.0157
 848,0.0372407,0.019039,-0.0000081,0.0546272,-0.0243945,0.0000055,0.000
 0109,-0.0000073,0.092008,0.0519421,-0.0068727,-0.0024817,0.011534,0.07
 35306,-0.0566576,-0.031965,-0.0580916,0.0156974,1.4659479,0.0605589,0.
 ,-0.0182603,1.8698395,0.0000266,0.0000317,-0.000013,0.3264188,-0.77321
 87,-0.3919731,0.0000031,-0.1857735,-0.9112496,-0.0000018,-0.0000327,-0
 .0000405,-0.3096945,-0.5543695,0.3715857,0.0000173,0.2549556,-1.071404
 3,-0.000015,-0.0000325,0.0000523,-0.1880647|Polar=33.0281058,2.1282911
 ,32.2202437,0.0009743,0.0008431,23.4901426|PG=C01 [X(C2H3F1O1)]|NImag=
 0||0.48201042,-0.02371676,0.60421822,0.00000239,0.00000038,0.53051039,
 -0.06931798,-0.03655892,0.06615236,0.07490202,-0.03673089,-0.11419547,
 0.11343439,0.04459230,0.12092507,0.06559667,0.11231992,-0.21644524,-0.
 07074893,-0.12255996,0.23518337,-0.09243053,0.09595167,0.00000798,0.00
 433885,-0.00992898,-0.00185126,0.10062613,0.10383967,-0.28131877,-0.00
 001692,0.00537728,-0.01192313,-0.00133152,-0.11060659,0.30049593,0.000
 00878,-0.00001677,-0.04810248,-0.01209252,0.02273269,0.00160814,-0.000
 00861,0.00001864,0.04577551,-0.06932649,-0.03655701,-0.06616547,0.0034
 1899,0.00604195,0.00828879,0.00434000,0.00537592,0.01209294,0.07491150
 ,-0.03672868,-0.11416521,-0.11341744,0.00604448,0.00860854,0.01356138,
 -0.00993100,-0.01192058,-0.02273433,0.04459150,0.12089284,-0.06560878,
 -0.11230338,-0.21646669,-0.00828995,-0.01355839,-0.02109474,0.00185003
 ,0.00132949,0.00160406,0.07076517,0.12254238,0.23520734,-0.20465952,-0
 .00067808,0.00000909,-0.00880526,-0.00424378,0.00050775,-0.01145973,-0
 .00218888,-0.00000032,-0.00880617,-0.00424463,-0.00050973,0.75396564,-
 0.00228172,-0.07128452,0.00000141,-0.02112184,-0.00483218,0.00059626,0
 .03332311,0.00061198,-0.00000050,-0.02111868,-0.00483253,-0.00059659,0
 .31819390,0.75897213,-0.00000355,-0.00000061,-0.09272148,0.03335277,0.
 00015124,0.00118662,0.00000263,0.00000074,-0.00325199,-0.03335480,-0.0
 0015127,0.00118955,0.00003767,0.00003762,0.22028557,-0.02430351,-0.041
 08547,-0.00000508,-0.00527483,-0.00084024,-0.00173709,0.00302641,-0.00
 050074,0.00000005,-0.00527543,-0.00084048,0.00173767,-0.39829574,-0.35
 131961,-0.00003198,0.39361734,-0.01623988,-0.00714649,-0.00000392,0.00
 006708,0.00181163,-0.00147197,-0.00182015,0.00145627,0.00000023,0.0000
 6629,0.00181185,0.00147294,-0.37774447,-0.55002796,-0.00004143,0.40567
 455,0.66158899,0.00000210,-0.00000181,0.02941636,-0.00518046,-0.000067
 36,-0.00101032,-0.00000025,-0.00000002,-0.00029034,0.00518027,0.000067
 82,-0.00101040,-0.00003795,-0.00004298,-0.07460507,0.00003549,0.000045
 60,0.02801315,-0.02197240,0.04264456,-0.00000127,0.00073821,0.00110965
 ,-0.00005593,-0.00844112,-0.00129667,-0.00000032,0.00073761,0.00110881
 ,0.00005558,-0.12193922,0.04432484,-0.00000274,0.03650575,-0.01000342,
 0.00000080,0.11437117,0.01185826,-0.01610776,0.00000210,0.00159963,-0.
 00039446,-0.00111410,0.00301194,0.00259831,0.00000005,0.00160002,-0.00
 039491,0.00111355,0.07090592,-0.12860692,0.00000370,-0.01108802,-0.109
 49430,-0.00000124,-0.07788776,0.25240004,0.00000239,0.00000227,0.01380
 913,-0.00319328,-0.00013261,0.00057217,-0.00000052,-0.00000041,0.00265
 710,0.00319310,0.00013147,0.00057087,-0.00000651,0.00000478,-0.0520832
 0,0.00000095,-0.00000145,0.01948662,0.00000388,-0.00000406,0.01498731|
 |0.00004717,0.00001733,-0.00000804,0.00000244,-0.00000080,-0.00001301,
 -0.00000178,-0.00001728,-0.00000059,-0.00000121,-0.00000103,0.00001300
 ,-0.00002078,0.00008012,0.00002409,-0.00005021,-0.00003059,-0.00000888
 ,0.00002436,-0.00004774,-0.00000657|||@


 A warm smile is the universal language of kindness.
                             -- William Arthur Ward
 Job cpu time:  0 days  0 hours 25 minutes 56.0 seconds.
 File lengths (MBytes):  RWF=     36 Int=      0 D2E=      0 Chk=      4 Scr=      1
 Normal termination of Gaussian 09 at Wed Mar 25 15:22:23 2015.
