 Entering Gaussian System, Link 0=g09
 Initial command:
 /opt/gridware/applications/gaussian/g09/l1.exe "/lustre/SCRATCH5/gau/mlawal/854152.sched01/Gau-32065.inp" -scrdir="/lustre/SCRATCH5/gau/mlawal/854152.sched01/"
 Entering Link 1 = /opt/gridware/applications/gaussian/g09/l1.exe PID=     32066.
  
 Copyright (c) 1988,1990,1992,1993,1995,1998,2003,2009,2013,
            Gaussian, Inc.  All Rights Reserved.
  
 This is part of the Gaussian(R) 09 program.  It is based on
 the Gaussian(R) 03 system (copyright 2003, Gaussian, Inc.),
 the Gaussian(R) 98 system (copyright 1998, Gaussian, Inc.),
 the Gaussian(R) 94 system (copyright 1995, Gaussian, Inc.),
 the Gaussian 92(TM) system (copyright 1992, Gaussian, Inc.),
 the Gaussian 90(TM) system (copyright 1990, Gaussian, Inc.),
 the Gaussian 88(TM) system (copyright 1988, Gaussian, Inc.),
 the Gaussian 86(TM) system (copyright 1986, Carnegie Mellon
 University), and the Gaussian 82(TM) system (copyright 1983,
 Carnegie Mellon University). Gaussian is a federally registered
 trademark of Gaussian, Inc.
  
 This software contains proprietary and confidential information,
 including trade secrets, belonging to Gaussian, Inc.
  
 This software is provided under written license and may be
 used, copied, transmitted, or stored only in accord with that
 written license.
  
 The following legend is applicable only to US Government
 contracts under FAR:
  
                    RESTRICTED RIGHTS LEGEND
  
 Use, reproduction and disclosure by the US Government is
 subject to restrictions as set forth in subparagraphs (a)
 and (c) of the Commercial Computer Software - Restricted
 Rights clause in FAR 52.227-19.
  
 Gaussian, Inc.
 340 Quinnipiac St., Bldg. 40, Wallingford CT 06492
  
  
 ---------------------------------------------------------------
 Warning -- This program may not be used in any manner that
 competes with the business of Gaussian, Inc. or will provide
 assistance to any competitor of Gaussian, Inc.  The licensee
 of this program is prohibited from giving any competitor of
 Gaussian, Inc. access to this program.  By using this program,
 the user acknowledges that Gaussian, Inc. is engaged in the
 business of creating and licensing software in the field of
 computational chemistry and represents and warrants to the
 licensee that it is not a competitor of Gaussian, Inc. and that
 it will not use this program in any manner prohibited above.
 ---------------------------------------------------------------
  

 Cite this work as:
 Gaussian 09, Revision D.01,
 M. J. Frisch, G. W. Trucks, H. B. Schlegel, G. E. Scuseria, 
 M. A. Robb, J. R. Cheeseman, G. Scalmani, V. Barone, B. Mennucci, 
 G. A. Petersson, H. Nakatsuji, M. Caricato, X. Li, H. P. Hratchian, 
 A. F. Izmaylov, J. Bloino, G. Zheng, J. L. Sonnenberg, M. Hada, 
 M. Ehara, K. Toyota, R. Fukuda, J. Hasegawa, M. Ishida, T. Nakajima, 
 Y. Honda, O. Kitao, H. Nakai, T. Vreven, J. A. Montgomery, Jr., 
 J. E. Peralta, F. Ogliaro, M. Bearpark, J. J. Heyd, E. Brothers, 
 K. N. Kudin, V. N. Staroverov, T. Keith, R. Kobayashi, J. Normand, 
 K. Raghavachari, A. Rendell, J. C. Burant, S. S. Iyengar, J. Tomasi, 
 M. Cossi, N. Rega, J. M. Millam, M. Klene, J. E. Knox, J. B. Cross, 
 V. Bakken, C. Adamo, J. Jaramillo, R. Gomperts, R. E. Stratmann, 
 O. Yazyev, A. J. Austin, R. Cammi, C. Pomelli, J. W. Ochterski, 
 R. L. Martin, K. Morokuma, V. G. Zakrzewski, G. A. Voth, 
 P. Salvador, J. J. Dannenberg, S. Dapprich, A. D. Daniels, 
 O. Farkas, J. B. Foresman, J. V. Ortiz, J. Cioslowski, 
 and D. J. Fox, Gaussian, Inc., Wallingford CT, 2013.
 
 ******************************************
 Gaussian 09:  EM64L-G09RevD.01 24-Apr-2013
                27-Mar-2015 
 ******************************************
 %nprocshared=8
 Will use up to    8 processors via shared memory.
 %nprocl=1
 Will use up to    1 processors via Linda.
 -------------------------------------------------------------
 # opt freq b3lyp/genecp geom=connectivity gfinput pseudo=read
 -------------------------------------------------------------
 1/14=-1,18=20,19=15,26=3,38=1,57=2/1,3;
 2/9=110,12=2,17=6,18=5,40=1/2;
 3/5=7,11=2,16=1,17=8,24=10,25=1,30=1,71=1,74=-5/1,2,3;
 4//1;
 5/5=2,38=5/2;
 6/7=2,8=2,9=2,10=2,28=1/1;
 7//1,2,3,16;
 1/14=-1,18=20,19=15,26=3/3(2);
 2/9=110/2;
 99//99;
 2/9=110/2;
 3/5=7,6=1,11=2,16=1,17=8,25=1,30=1,71=1,74=-5,82=7/1,2,3;
 4/5=5,16=3,69=1/1;
 5/5=2,38=5/2;
 7//1,2,3,16;
 1/14=-1,18=20,19=15,26=3/3(-5);
 2/9=110/2;
 6/7=2,8=2,9=2,10=2,19=2,28=1/1;
 99/9=1/99;
 ------------------------------------------------
 gen calculation FAc-C H O=aug-cc-pvtz/F=def2tzvp
 ------------------------------------------------
 Symbolic Z-matrix:
 Charge =  0 Multiplicity = 1
 C                     1.37869  -0.03125   0. 
 H                     1.7614    0.50902  -0.88336 
 H                     1.84595  -1.03091  -0.00007 
 H                     1.76139   0.50889   0.88344 
 C                    -0.09921  -0.13237  0. 
 O                    -0.82872  -1.07777   0. 
 F                    -0.71287   1.06854   0. 
 

 GradGradGradGradGradGradGradGradGradGradGradGradGradGradGradGradGradGrad
 Berny optimization.
 Initialization pass.
                           ----------------------------
                           !    Initial Parameters    !
                           ! (Angstroms and Degrees)  !
 --------------------------                            --------------------------
 ! Name  Definition              Value          Derivative Info.                !
 --------------------------------------------------------------------------------
 ! R1    R(1,2)                  1.1039         estimate D2E/DX2                !
 ! R2    R(1,3)                  1.1035         estimate D2E/DX2                !
 ! R3    R(1,4)                  1.1039         estimate D2E/DX2                !
 ! R4    R(1,5)                  1.4814         estimate D2E/DX2                !
 ! R5    R(5,6)                  1.1941         estimate D2E/DX2                !
 ! R6    R(5,7)                  1.3486         estimate D2E/DX2                !
 ! A1    A(2,1,3)              107.2481         estimate D2E/DX2                !
 ! A2    A(2,1,4)              106.3041         estimate D2E/DX2                !
 ! A3    A(2,1,5)              112.2884         estimate D2E/DX2                !
 ! A4    A(3,1,4)              107.2479         estimate D2E/DX2                !
 ! A5    A(3,1,5)              111.1378         estimate D2E/DX2                !
 ! A6    A(4,1,5)              112.288          estimate D2E/DX2                !
 ! A7    A(1,5,6)              131.57           estimate D2E/DX2                !
 ! A8    A(1,5,7)              113.1526         estimate D2E/DX2                !
 ! A9    A(6,5,7)              115.2773         estimate D2E/DX2                !
 ! D1    D(2,1,5,6)            120.1395         estimate D2E/DX2                !
 ! D2    D(2,1,5,7)            -59.861          estimate D2E/DX2                !
 ! D3    D(3,1,5,6)              0.0042         estimate D2E/DX2                !
 ! D4    D(3,1,5,7)           -179.9964         estimate D2E/DX2                !
 ! D5    D(4,1,5,6)           -120.1306         estimate D2E/DX2                !
 ! D6    D(4,1,5,7)             59.8688         estimate D2E/DX2                !
 --------------------------------------------------------------------------------
 Trust Radius=3.00D-01 FncErr=1.00D-07 GrdErr=1.00D-06
 Number of steps in this run=     31 maximum allowed number of steps=    100.
 GradGradGradGradGradGradGradGradGradGradGradGradGradGradGradGradGradGrad

                          Input orientation:                          
 ---------------------------------------------------------------------
 Center     Atomic      Atomic             Coordinates (Angstroms)
 Number     Number       Type             X           Y           Z
 ---------------------------------------------------------------------
      1          6           0        1.378693   -0.031247    0.000000
      2          1           0        1.761395    0.509015   -0.883364
      3          1           0        1.845953   -1.030909   -0.000068
      4          1           0        1.761393    0.508889    0.883441
      5          6           0       -0.099208   -0.132373   -0.000003
      6          8           0       -0.828724   -1.077768    0.000001
      7          9           0       -0.712874    1.068540    0.000001
 ---------------------------------------------------------------------
                    Distance matrix (angstroms):
                    1          2          3          4          5
     1  C    0.000000
     2  H    1.103937   0.000000
     3  H    1.103475   1.777281   0.000000
     4  H    1.103936   1.766805   1.777278   0.000000
     5  C    1.481357   2.157209   2.142666   2.157203   0.000000
     6  O    2.442928   3.163373   2.675087   3.163329   1.194138
     7  F    2.363088   2.686151   3.309876   2.686200   1.348621
                    6          7
     6  O    0.000000
     7  F    2.149432   0.000000
 Stoichiometry    C2H3FO
 Framework group  C1[X(C2H3FO)]
 Deg. of freedom    15
 Full point group                 C1      NOp   1
 Largest Abelian subgroup         C1      NOp   1
 Largest concise Abelian subgroup C1      NOp   1
                         Standard orientation:                         
 ---------------------------------------------------------------------
 Center     Atomic      Atomic             Coordinates (Angstroms)
 Number     Number       Type             X           Y           Z
 ---------------------------------------------------------------------
      1          6           0        1.378693   -0.031247    0.000000
      2          1           0        1.761395    0.509015   -0.883364
      3          1           0        1.845953   -1.030909   -0.000068
      4          1           0        1.761393    0.508889    0.883441
      5          6           0       -0.099208   -0.132373   -0.000003
      6          8           0       -0.828724   -1.077767    0.000001
      7          9           0       -0.712873    1.068541    0.000001
 ---------------------------------------------------------------------
 Rotational constants (GHZ):     11.5880396      9.3123761      5.3346202
 General basis read from cards:  (5D, 7F)
 ======================================================================================================
                                       Pseudopotential Parameters
 ======================================================================================================
  Center     Atomic      Valence      Angular      Power
  Number     Number     Electrons     Momentum     of R      Exponent        Coefficient   SO-Coeffient
 ======================================================================================================
    1          6
                                   No pseudopotential on this center.
    2          1
                                   No pseudopotential on this center.
    3          1
                                   No pseudopotential on this center.
    4          1
                                   No pseudopotential on this center.
    5          6
                                   No pseudopotential on this center.
    6          8
                                   No pseudopotential on this center.
    7          9
                                   No pseudopotential on this center.
 ======================================================================================================
 AO basis set in the form of general basis input (Overlap normalization):
      1 0
 S   7 1.00       0.000000000000
      0.8236000000D+04  0.5419783203D-03
      0.1235000000D+04  0.4192873817D-02
      0.2808000000D+03  0.2152216205D-01
      0.7927000000D+02  0.8353432195D-01
      0.2559000000D+02  0.2395828457D+00
      0.8997000000D+01  0.4428528419D+00
      0.3319000000D+01  0.3517995618D+00
 S   6 1.00       0.000000000000
      0.2808000000D+03 -0.5949224937D-04
      0.7927000000D+02 -0.1148158310D-02
      0.2559000000D+02 -0.1001913745D-01
      0.8997000000D+01 -0.6121949230D-01
      0.3319000000D+01 -0.1732698541D+00
      0.3643000000D+00  0.1072915192D+01
 S   1 1.00       0.000000000000
      0.9059000000D+00  0.1000000000D+01
 S   1 1.00       0.000000000000
      0.1285000000D+00  0.1000000000D+01
 S   1 1.00       0.000000000000
      0.4402000000D-01  0.1000000000D+01
 P   3 1.00       0.000000000000
      0.1871000000D+02  0.3942638716D-01
      0.4133000000D+01  0.2440889849D+00
      0.1200000000D+01  0.8154920089D+00
 P   1 1.00       0.000000000000
      0.3827000000D+00  0.1000000000D+01
 P   1 1.00       0.000000000000
      0.1209000000D+00  0.1000000000D+01
 P   1 1.00       0.000000000000
      0.3569000000D-01  0.1000000000D+01
 D   1 1.00       0.000000000000
      0.1097000000D+01  0.1000000000D+01
 D   1 1.00       0.000000000000
      0.3180000000D+00  0.1000000000D+01
 D   1 1.00       0.000000000000
      0.1000000000D+00  0.1000000000D+01
 F   1 1.00       0.000000000000
      0.7610000000D+00  0.1000000000D+01
 F   1 1.00       0.000000000000
      0.2680000000D+00  0.1000000000D+01
 ****
      2 0
 S   3 1.00       0.000000000000
      0.3387000000D+02  0.2549486323D-01
      0.5095000000D+01  0.1903627659D+00
      0.1159000000D+01  0.8521620222D+00
 S   1 1.00       0.000000000000
      0.3258000000D+00  0.1000000000D+01
 S   1 1.00       0.000000000000
      0.1027000000D+00  0.1000000000D+01
 S   1 1.00       0.000000000000
      0.2526000000D-01  0.1000000000D+01
 P   1 1.00       0.000000000000
      0.1407000000D+01  0.1000000000D+01
 P   1 1.00       0.000000000000
      0.3880000000D+00  0.1000000000D+01
 P   1 1.00       0.000000000000
      0.1020000000D+00  0.1000000000D+01
 D   1 1.00       0.000000000000
      0.1057000000D+01  0.1000000000D+01
 D   1 1.00       0.000000000000
      0.2470000000D+00  0.1000000000D+01
 ****
      3 0
 S   3 1.00       0.000000000000
      0.3387000000D+02  0.2549486323D-01
      0.5095000000D+01  0.1903627659D+00
      0.1159000000D+01  0.8521620222D+00
 S   1 1.00       0.000000000000
      0.3258000000D+00  0.1000000000D+01
 S   1 1.00       0.000000000000
      0.1027000000D+00  0.1000000000D+01
 S   1 1.00       0.000000000000
      0.2526000000D-01  0.1000000000D+01
 P   1 1.00       0.000000000000
      0.1407000000D+01  0.1000000000D+01
 P   1 1.00       0.000000000000
      0.3880000000D+00  0.1000000000D+01
 P   1 1.00       0.000000000000
      0.1020000000D+00  0.1000000000D+01
 D   1 1.00       0.000000000000
      0.1057000000D+01  0.1000000000D+01
 D   1 1.00       0.000000000000
      0.2470000000D+00  0.1000000000D+01
 ****
      4 0
 S   3 1.00       0.000000000000
      0.3387000000D+02  0.2549486323D-01
      0.5095000000D+01  0.1903627659D+00
      0.1159000000D+01  0.8521620222D+00
 S   1 1.00       0.000000000000
      0.3258000000D+00  0.1000000000D+01
 S   1 1.00       0.000000000000
      0.1027000000D+00  0.1000000000D+01
 S   1 1.00       0.000000000000
      0.2526000000D-01  0.1000000000D+01
 P   1 1.00       0.000000000000
      0.1407000000D+01  0.1000000000D+01
 P   1 1.00       0.000000000000
      0.3880000000D+00  0.1000000000D+01
 P   1 1.00       0.000000000000
      0.1020000000D+00  0.1000000000D+01
 D   1 1.00       0.000000000000
      0.1057000000D+01  0.1000000000D+01
 D   1 1.00       0.000000000000
      0.2470000000D+00  0.1000000000D+01
 ****
      5 0
 S   7 1.00       0.000000000000
      0.8236000000D+04  0.5419783203D-03
      0.1235000000D+04  0.4192873817D-02
      0.2808000000D+03  0.2152216205D-01
      0.7927000000D+02  0.8353432195D-01
      0.2559000000D+02  0.2395828457D+00
      0.8997000000D+01  0.4428528419D+00
      0.3319000000D+01  0.3517995618D+00
 S   6 1.00       0.000000000000
      0.2808000000D+03 -0.5949224937D-04
      0.7927000000D+02 -0.1148158310D-02
      0.2559000000D+02 -0.1001913745D-01
      0.8997000000D+01 -0.6121949230D-01
      0.3319000000D+01 -0.1732698541D+00
      0.3643000000D+00  0.1072915192D+01
 S   1 1.00       0.000000000000
      0.9059000000D+00  0.1000000000D+01
 S   1 1.00       0.000000000000
      0.1285000000D+00  0.1000000000D+01
 S   1 1.00       0.000000000000
      0.4402000000D-01  0.1000000000D+01
 P   3 1.00       0.000000000000
      0.1871000000D+02  0.3942638716D-01
      0.4133000000D+01  0.2440889849D+00
      0.1200000000D+01  0.8154920089D+00
 P   1 1.00       0.000000000000
      0.3827000000D+00  0.1000000000D+01
 P   1 1.00       0.000000000000
      0.1209000000D+00  0.1000000000D+01
 P   1 1.00       0.000000000000
      0.3569000000D-01  0.1000000000D+01
 D   1 1.00       0.000000000000
      0.1097000000D+01  0.1000000000D+01
 D   1 1.00       0.000000000000
      0.3180000000D+00  0.1000000000D+01
 D   1 1.00       0.000000000000
      0.1000000000D+00  0.1000000000D+01
 F   1 1.00       0.000000000000
      0.7610000000D+00  0.1000000000D+01
 F   1 1.00       0.000000000000
      0.2680000000D+00  0.1000000000D+01
 ****
      6 0
 S   7 1.00       0.000000000000
      0.1533000000D+05  0.5198089434D-03
      0.2299000000D+04  0.4020256215D-02
      0.5224000000D+03  0.2071282673D-01
      0.1473000000D+03  0.8101055358D-01
      0.4755000000D+02  0.2359629851D+00
      0.1676000000D+02  0.4426534455D+00
      0.6207000000D+01  0.3570644227D+00
 S   6 1.00       0.000000000000
      0.5224000000D+03 -0.4421150084D-04
      0.1473000000D+03 -0.1225910413D-02
      0.4755000000D+02 -0.1055177248D-01
      0.1676000000D+02 -0.6744526326D-01
      0.6207000000D+01 -0.1711986073D+00
      0.6882000000D+00  0.1073298561D+01
 S   1 1.00       0.000000000000
      0.1752000000D+01  0.1000000000D+01
 S   1 1.00       0.000000000000
      0.2384000000D+00  0.1000000000D+01
 S   1 1.00       0.000000000000
      0.7376000000D-01  0.1000000000D+01
 P   3 1.00       0.000000000000
      0.3446000000D+02  0.4116348957D-01
      0.7749000000D+01  0.2577628359D+00
      0.2280000000D+01  0.8024192744D+00
 P   1 1.00       0.000000000000
      0.7156000000D+00  0.1000000000D+01
 P   1 1.00       0.000000000000
      0.2140000000D+00  0.1000000000D+01
 P   1 1.00       0.000000000000
      0.5974000000D-01  0.1000000000D+01
 D   1 1.00       0.000000000000
      0.2314000000D+01  0.1000000000D+01
 D   1 1.00       0.000000000000
      0.6450000000D+00  0.1000000000D+01
 D   1 1.00       0.000000000000
      0.2140000000D+00  0.1000000000D+01
 F   1 1.00       0.000000000000
      0.1428000000D+01  0.1000000000D+01
 F   1 1.00       0.000000000000
      0.5000000000D+00  0.1000000000D+01
 ****
      7 0
 S   6 1.00       0.000000000000
      0.3547910044D+05  0.5618499111D-03
      0.5318472898D+04  0.4355197381D-02
      0.1210481098D+04  0.2261824715D-01
      0.3428551814D+03  0.9140305514D-01
      0.1120194318D+03  0.2911687069D+00
      0.4071474025D+02  0.6777270856D+00
 S   2 1.00       0.000000000000
      0.1603967811D+02  0.6329641788D+00
      0.6503818674D+01  0.4013647573D+00
 S   1 1.00       0.000000000000
      0.1544047751D+01  0.1000000000D+01
 S   1 1.00       0.000000000000
      0.6122345286D+00  0.1000000000D+01
 S   1 1.00       0.000000000000
      0.2402797970D+00  0.1000000000D+01
 P   4 1.00       0.000000000000
      0.8023390048D+02  0.1232134514D-01
      0.1859401074D+02  0.8571339535D-01
      0.5686790265D+01  0.3263310550D+00
      0.1951100629D+01  0.6997111464D+00
 P   1 1.00       0.000000000000
      0.6697021130D+00  0.1000000000D+01
 P   1 1.00       0.000000000000
      0.2165130041D+00  0.1000000000D+01
 D   1 1.00       0.000000000000
      0.3107000000D+01  0.1000000000D+01
 D   1 1.00       0.000000000000
      0.8550000000D+00  0.1000000000D+01
 F   1 1.00       0.000000000000
      0.1917000000D+01  0.1000000000D+01
 ****

 There are   276 symmetry adapted cartesian basis functions of A   symmetry.
 There are   238 symmetry adapted basis functions of A   symmetry.
   238 basis functions,   348 primitive gaussians,   276 cartesian basis functions
    16 alpha electrons       16 beta electrons
       nuclear repulsion energy       118.7299102006 Hartrees.
 NAtoms=    7 NActive=    7 NUniq=    7 SFac= 1.00D+00 NAtFMM=   60 NAOKFM=F Big=F
 Integral buffers will be    131072 words long.
 Raffenetti 2 integral format.
 Two-electron integral symmetry is turned on.
 One-electron integrals computed using PRISM.
 PrsmSu:  requested number of processors reduced to:   4 ShMem   1 Linda.
   1 Symmetry operations used in ECPInt.
 ECPInt:  NShTT=    3240 NPrTT=    9193 LenC2=    3239 LenP2D=    8166.
 LDataN:  DoStor=T MaxTD1= 6 Len=  172
 NBasis=   238 RedAO= T EigKep=  3.35D-05  NBF=   238
 NBsUse=   238 1.00D-06 EigRej= -1.00D+00 NBFU=   238
 ExpMin= 2.53D-02 ExpMax= 3.55D+04 ExpMxC= 1.21D+03 IAcc=3 IRadAn=         5 AccDes= 0.00D+00
 Harris functional with IExCor=  402 and IRadAn=       5 diagonalized for initial guess.
 HarFok:  IExCor=  402 AccDes= 0.00D+00 IRadAn=         5 IDoV= 1 UseB2=F ITyADJ=14
 ICtDFT=  3500011 ScaDFX=  1.000000  1.000000  1.000000  1.000000
 FoFCou: FMM=F IPFlag=           0 FMFlag=      100000 FMFlg1=           0
         NFxFlg=           0 DoJE=T BraDBF=F KetDBF=T FulRan=T
         wScrn=  0.000000 ICntrl=     500 IOpCl=  0 I1Cent=   200000004 NGrid=           0
         NMat0=    1 NMatS0=      1 NMatT0=    0 NMatD0=    1 NMtDS0=    0 NMtDT0=    0
 Petite list used in FoFCou.
 Requested convergence on RMS density matrix=1.00D-08 within 128 cycles.
 Requested convergence on MAX density matrix=1.00D-06.
 Requested convergence on             energy=1.00D-06.
 No special actions if energy rises.
 SCF Done:  E(RB3LYP) =  -253.204593046     A.U. after   11 cycles
            NFock= 11  Conv=0.32D-08     -V/T= 2.0054

 **********************************************************************

            Population analysis using the SCF density.

 **********************************************************************

 Orbital symmetries:
       Occupied  (A) (A) (A) (A) (A) (A) (A) (A) (A) (A) (A) (A)
                 (A) (A) (A) (A)
       Virtual   (A) (A) (A) (A) (A) (A) (A) (A) (A) (A) (A) (A)
                 (A) (A) (A) (A) (A) (A) (A) (A) (A) (A) (A) (A)
                 (A) (A) (A) (A) (A) (A) (A) (A) (A) (A) (A) (A)
                 (A) (A) (A) (A) (A) (A) (A) (A) (A) (A) (A) (A)
                 (A) (A) (A) (A) (A) (A) (A) (A) (A) (A) (A) (A)
                 (A) (A) (A) (A) (A) (A) (A) (A) (A) (A) (A) (A)
                 (A) (A) (A) (A) (A) (A) (A) (A) (A) (A) (A) (A)
                 (A) (A) (A) (A) (A) (A) (A) (A) (A) (A) (A) (A)
                 (A) (A) (A) (A) (A) (A) (A) (A) (A) (A) (A) (A)
                 (A) (A) (A) (A) (A) (A) (A) (A) (A) (A) (A) (A)
                 (A) (A) (A) (A) (A) (A) (A) (A) (A) (A) (A) (A)
                 (A) (A) (A) (A) (A) (A) (A) (A) (A) (A) (A) (A)
                 (A) (A) (A) (A) (A) (A) (A) (A) (A) (A) (A) (A)
                 (A) (A) (A) (A) (A) (A) (A) (A) (A) (A) (A) (A)
                 (A) (A) (A) (A) (A) (A) (A) (A) (A) (A) (A) (A)
                 (A) (A) (A) (A) (A) (A) (A) (A) (A) (A) (A) (A)
                 (A) (A) (A) (A) (A) (A) (A) (A) (A) (A) (A) (A)
                 (A) (A) (A) (A) (A) (A) (A) (A) (A) (A) (A) (A)
                 (A) (A) (A) (A) (A) (A)
 The electronic state is 1-A.
 Alpha  occ. eigenvalues --  -24.71024 -19.15188 -10.35219 -10.21959  -1.25584
 Alpha  occ. eigenvalues --   -1.07601  -0.78913  -0.62340  -0.53557  -0.51873
 Alpha  occ. eigenvalues --   -0.50381  -0.43956  -0.43851  -0.41125  -0.37921
 Alpha  occ. eigenvalues --   -0.31936
 Alpha virt. eigenvalues --   -0.03609  -0.01980   0.01617   0.01717   0.02357
 Alpha virt. eigenvalues --    0.05837   0.06115   0.06800   0.07086   0.07941
 Alpha virt. eigenvalues --    0.07945   0.10310   0.10943   0.11942   0.15325
 Alpha virt. eigenvalues --    0.16099   0.16640   0.17111   0.20064   0.20934
 Alpha virt. eigenvalues --    0.21941   0.24491   0.25527   0.25530   0.26719
 Alpha virt. eigenvalues --    0.26804   0.28429   0.29478   0.29915   0.30941
 Alpha virt. eigenvalues --    0.31559   0.33041   0.33856   0.35028   0.37614
 Alpha virt. eigenvalues --    0.39494   0.40089   0.41111   0.42460   0.42959
 Alpha virt. eigenvalues --    0.48924   0.49095   0.52243   0.56207   0.57752
 Alpha virt. eigenvalues --    0.60093   0.60574   0.61920   0.63531   0.65905
 Alpha virt. eigenvalues --    0.67623   0.69457   0.71660   0.71998   0.73575
 Alpha virt. eigenvalues --    0.74997   0.77302   0.79291   0.80983   0.82131
 Alpha virt. eigenvalues --    0.82557   0.83117   0.84354   0.84982   0.87125
 Alpha virt. eigenvalues --    0.88634   0.90227   0.92150   0.92421   0.93291
 Alpha virt. eigenvalues --    0.96839   0.98559   0.99595   1.01779   1.06054
 Alpha virt. eigenvalues --    1.06381   1.07450   1.09875   1.12959   1.15825
 Alpha virt. eigenvalues --    1.20010   1.20922   1.24502   1.25931   1.27011
 Alpha virt. eigenvalues --    1.29991   1.32127   1.34990   1.35730   1.38911
 Alpha virt. eigenvalues --    1.40895   1.43921   1.45223   1.48537   1.49330
 Alpha virt. eigenvalues --    1.51297   1.56146   1.56790   1.59214   1.60354
 Alpha virt. eigenvalues --    1.63703   1.70505   1.71321   1.80708   1.82409
 Alpha virt. eigenvalues --    1.86459   1.86959   1.93853   1.95374   1.97595
 Alpha virt. eigenvalues --    2.04321   2.05401   2.09607   2.14767   2.18998
 Alpha virt. eigenvalues --    2.21808   2.25964   2.27029   2.35179   2.41590
 Alpha virt. eigenvalues --    2.43170   2.47853   2.48604   2.55252   2.56189
 Alpha virt. eigenvalues --    2.57107   2.60918   2.66962   2.74496   2.78695
 Alpha virt. eigenvalues --    2.79740   2.88858   2.94834   2.95515   3.05050
 Alpha virt. eigenvalues --    3.05483   3.13108   3.16681   3.17996   3.19548
 Alpha virt. eigenvalues --    3.25276   3.27819   3.30125   3.32002   3.38180
 Alpha virt. eigenvalues --    3.40651   3.42215   3.47442   3.47758   3.55017
 Alpha virt. eigenvalues --    3.56613   3.60516   3.66562   3.69632   3.72093
 Alpha virt. eigenvalues --    3.72101   3.77337   3.77344   3.82379   3.83877
 Alpha virt. eigenvalues --    3.91776   3.93299   4.00251   4.03110   4.12066
 Alpha virt. eigenvalues --    4.17968   4.19455   4.27423   4.30360   4.33284
 Alpha virt. eigenvalues --    4.37457   4.37714   4.42001   4.50016   4.57292
 Alpha virt. eigenvalues --    4.63405   4.72131   4.75039   4.83346   4.90402
 Alpha virt. eigenvalues --    4.95453   5.01858   5.09661   5.11871   5.22519
 Alpha virt. eigenvalues --    5.29004   5.35599   5.47572   5.70148   5.70438
 Alpha virt. eigenvalues --    5.73308   5.90185   6.14321   6.17898   6.22938
 Alpha virt. eigenvalues --    6.26176   6.43925   6.46533   6.66854   6.68241
 Alpha virt. eigenvalues --    6.70994   6.78086   6.91645   6.92477   6.94220
 Alpha virt. eigenvalues --    6.99401   7.04284   7.09577   7.19567   7.29195
 Alpha virt. eigenvalues --    7.33310   7.57869   7.73733   8.52580   8.61818
 Alpha virt. eigenvalues --    8.83026   9.06824   9.18527  14.26079  15.21240
 Alpha virt. eigenvalues --   16.96437  57.65426
          Condensed to atoms (all electrons):
               1          2          3          4          5          6
     1  C    5.244903   0.408902   0.351759   0.408899   0.115250  -0.046211
     2  H    0.408902   0.391360  -0.009652   0.018721  -0.050873  -0.000399
     3  H    0.351759  -0.009652   0.389967  -0.009653   0.019480  -0.006943
     4  H    0.408899   0.018721  -0.009653   0.391364  -0.050871  -0.000398
     5  C    0.115250  -0.050873   0.019480  -0.050871   4.935501   0.409151
     6  O   -0.046211  -0.000399  -0.006943  -0.000398   0.409151   8.172212
     7  F   -0.001214   0.011559  -0.003461   0.011558   0.233621  -0.051435
               7
     1  C   -0.001214
     2  H    0.011559
     3  H   -0.003461
     4  H    0.011558
     5  C    0.233621
     6  O   -0.051435
     7  F    8.959113
 Mulliken charges:
               1
     1  C   -0.482288
     2  H    0.230382
     3  H    0.268503
     4  H    0.230380
     5  C    0.388742
     6  O   -0.475978
     7  F   -0.159741
 Sum of Mulliken charges =   0.00000
 Mulliken charges with hydrogens summed into heavy atoms:
               1
     1  C    0.246977
     5  C    0.388742
     6  O   -0.475978
     7  F   -0.159741
 Electronic spatial extent (au):  <R**2>=            244.4688
 Charge=              0.0000 electrons
 Dipole moment (field-independent basis, Debye):
    X=              3.1976    Y=              0.7946    Z=              0.0000  Tot=              3.2949
 Quadrupole moment (field-independent basis, Debye-Ang):
   XX=            -22.1353   YY=            -25.9203   ZZ=            -21.5553
   XY=             -0.9290   XZ=              0.0000   YZ=              0.0000
 Traceless Quadrupole moment (field-independent basis, Debye-Ang):
   XX=              1.0683   YY=             -2.7167   ZZ=              1.6483
   XY=             -0.9290   XZ=              0.0000   YZ=              0.0000
 Octapole moment (field-independent basis, Debye-Ang**2):
  XXX=             -1.3766  YYY=              5.7662  ZZZ=              0.0002  XYY=              1.2034
  XXY=              2.3774  XXZ=              0.0000  XZZ=             -1.4283  YZZ=              2.1962
  YYZ=             -0.0002  XYZ=              0.0000
 Hexadecapole moment (field-independent basis, Debye-Ang**3):
 XXXX=           -156.8197 YYYY=           -106.0297 ZZZZ=            -25.6474 XXXY=             -4.4419
 XXXZ=              0.0001 YYYX=             -6.0715 YYYZ=              0.0000 ZZZX=              0.0003
 ZZZY=              0.0000 XXYY=            -42.7305 XXZZ=            -28.9464 YYZZ=            -21.1421
 XXYZ=              0.0000 YYXZ=             -0.0003 ZZXY=              0.5680
 N-N= 1.187299102006D+02 E-N=-8.342679880341D+02  KE= 2.518512809499D+02
 PrsmSu:  requested number of processors reduced to:   4 ShMem   1 Linda.
   1 Symmetry operations used in ECPInt.
 ECPInt:  NShTT=    3240 NPrTT=    9193 LenC2=    3239 LenP2D=    8166.
 LDataN:  DoStor=T MaxTD1= 7 Len=  274
 Calling FoFJK, ICntrl=      2127 FMM=F ISym2X=0 I1Cent= 0 IOpClX= 0 NMat=1 NMatS=1 NMatT=0.
 ***** Axes restored to original set *****
 -------------------------------------------------------------------
 Center     Atomic                   Forces (Hartrees/Bohr)
 Number     Number              X              Y              Z
 -------------------------------------------------------------------
      1        6           0.024100335   -0.005197486   -0.000001493
      2        1          -0.007771174   -0.002001896    0.005895875
      3        1          -0.008471591    0.007616071    0.000000721
      4        1          -0.007770893   -0.002000672   -0.005895485
      5        6          -0.028919122   -0.016595083    0.000000983
      6        8           0.021547682   -0.000068489   -0.000000468
      7        9           0.007284763    0.018247554   -0.000000134
 -------------------------------------------------------------------
 Cartesian Forces:  Max     0.028919122 RMS     0.011747298

 GradGradGradGradGradGradGradGradGradGradGradGradGradGradGradGradGradGrad
 Berny optimization.
 FormGI is forming the generalized inverse of G from B-inverse, IUseBI=4.
 Internal  Forces:  Max     0.025427986 RMS     0.009028457
 Search for a local minimum.
 Step number   1 out of a maximum of   31
 All quantities printed in internal units (Hartrees-Bohrs-Radians)
 Mixed Optimization -- RFO/linear search
 Second derivative matrix not updated -- first step.
 ITU=  0
     Eigenvalues ---    0.01013   0.01013   0.07158   0.07246   0.16000
     Eigenvalues ---    0.16000   0.16000   0.25000   0.25000   0.33251
     Eigenvalues ---    0.33251   0.33301   0.34415   0.55316   1.07825
 RFO step:  Lambda=-5.95677909D-03 EMin= 1.01256184D-02
 Linear search not attempted -- first point.
 Iteration  1 RMS(Cart)=  0.04525282 RMS(Int)=  0.00107901
 Iteration  2 RMS(Cart)=  0.00102857 RMS(Int)=  0.00032273
 Iteration  3 RMS(Cart)=  0.00000025 RMS(Int)=  0.00032273
 Variable       Old X    -DE/DX   Delta X   Delta X   Delta X     New X
                                 (Linear)    (Quad)   (Total)
    R1        2.08614  -0.00839   0.00000  -0.02480  -0.02480   2.06134
    R2        2.08526  -0.01048   0.00000  -0.03093  -0.03093   2.05434
    R3        2.08614  -0.00839   0.00000  -0.02480  -0.02480   2.06134
    R4        2.79936  -0.00002   0.00000  -0.00007  -0.00007   2.79929
    R5        2.25659  -0.01311   0.00000  -0.01209  -0.01209   2.24450
    R6        2.54852   0.01294   0.00000   0.02314   0.02314   2.57167
    A1        1.87183   0.00551   0.00000   0.03773   0.03757   1.90941
    A2        1.85536   0.00418   0.00000   0.01627   0.01528   1.87063
    A3        1.95980  -0.00537   0.00000  -0.03480  -0.03538   1.92442
    A4        1.87183   0.00551   0.00000   0.03773   0.03757   1.90940
    A5        1.93972  -0.00328   0.00000  -0.01483  -0.01499   1.92473
    A6        1.95980  -0.00537   0.00000  -0.03480  -0.03538   1.92441
    A7        2.29633  -0.01314   0.00000  -0.05133  -0.05133   2.24500
    A8        1.97489  -0.01229   0.00000  -0.04802  -0.04802   1.92687
    A9        2.01197   0.02543   0.00000   0.09934   0.09934   2.11131
    D1        2.09683   0.00109   0.00000   0.01406   0.01372   2.11055
    D2       -1.04477   0.00109   0.00000   0.01408   0.01374  -1.03103
    D3        0.00007   0.00000   0.00000  -0.00002  -0.00001   0.00006
    D4       -3.14153   0.00000   0.00000   0.00001   0.00001  -3.14152
    D5       -2.09667  -0.00109   0.00000  -0.01409  -0.01375  -2.11042
    D6        1.04491  -0.00109   0.00000  -0.01407  -0.01373   1.03118
         Item               Value     Threshold  Converged?
 Maximum Force            0.025428     0.000450     NO 
 RMS     Force            0.009028     0.000300     NO 
 Maximum Displacement     0.107508     0.001800     NO 
 RMS     Displacement     0.045405     0.001200     NO 
 Predicted change in Energy=-3.047620D-03
 GradGradGradGradGradGradGradGradGradGradGradGradGradGradGradGradGradGrad

                          Input orientation:                          
 ---------------------------------------------------------------------
 Center     Atomic      Atomic             Coordinates (Angstroms)
 Number     Number       Type             X           Y           Z
 ---------------------------------------------------------------------
      1          6           0        1.378470   -0.038644    0.000000
      2          1           0        1.721251    0.510704   -0.877834
      3          1           0        1.820706   -1.031736   -0.000068
      4          1           0        1.721254    0.510580    0.877910
      5          6           0       -0.099722   -0.134889    0.000002
      6          8           0       -0.779348   -1.108967   -0.000003
      7          9           0       -0.655983    1.107098    0.000000
 ---------------------------------------------------------------------
                    Distance matrix (angstroms):
                    1          2          3          4          5
     1  C    0.000000
     2  H    1.090813   0.000000
     3  H    1.087109   1.777495   0.000000
     4  H    1.090814   1.755744   1.777492   0.000000
     5  C    1.481322   2.122105   2.119524   2.122100   0.000000
     6  O    2.408687   3.105949   2.601201   3.105910   1.187738
     7  F    2.334893   2.603367   3.272401   2.603425   1.360867
                    6          7
     6  O    0.000000
     7  F    2.219497   0.000000
 Stoichiometry    C2H3FO
 Framework group  C1[X(C2H3FO)]
 Deg. of freedom    15
 Full point group                 C1      NOp   1
 Largest Abelian subgroup         C1      NOp   1
 Largest concise Abelian subgroup C1      NOp   1
                         Standard orientation:                         
 ---------------------------------------------------------------------
 Center     Atomic      Atomic             Coordinates (Angstroms)
 Number     Number       Type             X           Y           Z
 ---------------------------------------------------------------------
      1          6           0        1.353455   -0.043375    0.000000
      2          1           0        1.697641    0.505094   -0.877834
      3          1           0        1.793147   -1.037596   -0.000067
      4          1           0        1.697644    0.504970    0.877911
      5          6           0       -0.124978   -0.135835    0.000003
      6          8           0       -0.807096   -1.108170   -0.000003
      7          9           0       -0.678058    1.107572    0.000000
 ---------------------------------------------------------------------
 Rotational constants (GHZ):     10.9214105      9.8266068      5.3424395
 Basis read from rwf:  (5D, 7F)
 Pseudo-potential data read from rwf file.
 There are   276 symmetry adapted cartesian basis functions of A   symmetry.
 There are   238 symmetry adapted basis functions of A   symmetry.
   238 basis functions,   348 primitive gaussians,   276 cartesian basis functions
    16 alpha electrons       16 beta electrons
       nuclear repulsion energy       118.7912889702 Hartrees.
 NAtoms=    7 NActive=    7 NUniq=    7 SFac= 1.00D+00 NAtFMM=   60 NAOKFM=F Big=F
 Integral buffers will be    131072 words long.
 Raffenetti 2 integral format.
 Two-electron integral symmetry is turned on.
 One-electron integrals computed using PRISM.
 PrsmSu:  requested number of processors reduced to:   4 ShMem   1 Linda.
   1 Symmetry operations used in ECPInt.
 ECPInt:  NShTT=    3240 NPrTT=    9193 LenC2=    3239 LenP2D=    8167.
 LDataN:  DoStor=T MaxTD1= 6 Len=  172
 NBasis=   238 RedAO= T EigKep=  3.25D-05  NBF=   238
 NBsUse=   238 1.00D-06 EigRej= -1.00D+00 NBFU=   238
 Initial guess from the checkpoint file:  "/lustre/SCRATCH5/gau/mlawal/854152.sched01/Gau-32066.chk"
 B after Tr=     0.000000    0.000000    0.000000
         Rot=    0.999995    0.000000    0.000000    0.003224 Ang=  -0.37 deg.
 ExpMin= 2.53D-02 ExpMax= 3.55D+04 ExpMxC= 1.21D+03 IAcc=3 IRadAn=         5 AccDes= 0.00D+00
 Harris functional with IExCor=  402 and IRadAn=       5 diagonalized for initial guess.
 HarFok:  IExCor=  402 AccDes= 0.00D+00 IRadAn=         5 IDoV= 1 UseB2=F ITyADJ=14
 ICtDFT=  3500011 ScaDFX=  1.000000  1.000000  1.000000  1.000000
 FoFCou: FMM=F IPFlag=           0 FMFlag=      100000 FMFlg1=           0
         NFxFlg=           0 DoJE=T BraDBF=F KetDBF=T FulRan=T
         wScrn=  0.000000 ICntrl=     500 IOpCl=  0 I1Cent=   200000004 NGrid=           0
         NMat0=    1 NMatS0=      1 NMatT0=    0 NMatD0=    1 NMtDS0=    0 NMtDT0=    0
 Petite list used in FoFCou.
 Requested convergence on RMS density matrix=1.00D-08 within 128 cycles.
 Requested convergence on MAX density matrix=1.00D-06.
 Requested convergence on             energy=1.00D-06.
 No special actions if energy rises.
 SCF Done:  E(RB3LYP) =  -253.207345400     A.U. after   10 cycles
            NFock= 10  Conv=0.17D-08     -V/T= 2.0052
 PrsmSu:  requested number of processors reduced to:   4 ShMem   1 Linda.
   1 Symmetry operations used in ECPInt.
 ECPInt:  NShTT=    3240 NPrTT=    9193 LenC2=    3239 LenP2D=    8167.
 LDataN:  DoStor=T MaxTD1= 7 Len=  274
 Calling FoFJK, ICntrl=      2127 FMM=F ISym2X=0 I1Cent= 0 IOpClX= 0 NMat=1 NMatS=1 NMatT=0.
 ***** Axes restored to original set *****
 -------------------------------------------------------------------
 Center     Atomic                   Forces (Hartrees/Bohr)
 Number     Number              X              Y              Z
 -------------------------------------------------------------------
      1        6           0.010044031   -0.001212903    0.000000230
      2        1          -0.001124499    0.000585689    0.000308442
      3        1          -0.001388492    0.000497513    0.000000224
      4        1          -0.001124225    0.000585857   -0.000308280
      5        6          -0.005323636   -0.010276231   -0.000001934
      6        8           0.002173234    0.009556713    0.000000674
      7        9          -0.003256413    0.000263361    0.000000644
 -------------------------------------------------------------------
 Cartesian Forces:  Max     0.010276231 RMS     0.004074329

 GradGradGradGradGradGradGradGradGradGradGradGradGradGradGradGradGradGrad
 Berny optimization.
 Using GEDIIS/GDIIS optimizer.
 FormGI is forming the generalized inverse of G from B-inverse, IUseBI=4.
 Internal  Forces:  Max     0.009083843 RMS     0.002899297
 Search for a local minimum.
 Step number   2 out of a maximum of   31
 All quantities printed in internal units (Hartrees-Bohrs-Radians)
 Mixed Optimization -- RFO/linear search
 Update second derivatives using D2CorX and points    1    2
 DE= -2.75D-03 DEPred=-3.05D-03 R= 9.03D-01
 TightC=F SS=  1.41D+00  RLast= 1.56D-01 DXNew= 5.0454D-01 4.6686D-01
 Trust test= 9.03D-01 RLast= 1.56D-01 DXMaxT set to 4.67D-01
 ITU=  1  0
 Use linear search instead of GDIIS.
     Eigenvalues ---    0.01013   0.01013   0.07462   0.07470   0.14884
     Eigenvalues ---    0.16000   0.16001   0.24985   0.28847   0.32098
     Eigenvalues ---    0.33251   0.33284   0.37863   0.54571   1.05643
 RFO step:  Lambda=-3.55427430D-04 EMin= 1.01256184D-02
 Quartic linear search produced a step of -0.05953.
 Iteration  1 RMS(Cart)=  0.00692776 RMS(Int)=  0.00004784
 Iteration  2 RMS(Cart)=  0.00004982 RMS(Int)=  0.00001033
 Iteration  3 RMS(Cart)=  0.00000000 RMS(Int)=  0.00001033
 Variable       Old X    -DE/DX   Delta X   Delta X   Delta X     New X
                                 (Linear)    (Quad)   (Total)
    R1        2.06134  -0.00031   0.00148  -0.00381  -0.00234   2.05900
    R2        2.05434  -0.00102   0.00184  -0.00654  -0.00470   2.04964
    R3        2.06134  -0.00031   0.00148  -0.00381  -0.00234   2.05900
    R4        2.79929   0.00642   0.00000   0.01752   0.01752   2.81682
    R5        2.24450  -0.00908   0.00072  -0.00936  -0.00864   2.23586
    R6        2.57167   0.00157  -0.00138   0.00543   0.00405   2.57572
    A1        1.90941   0.00134  -0.00224   0.01373   0.01149   1.92090
    A2        1.87063   0.00055  -0.00091   0.00181   0.00087   1.87150
    A3        1.92442  -0.00117   0.00211  -0.01184  -0.00975   1.91467
    A4        1.90940   0.00134  -0.00224   0.01373   0.01149   1.92089
    A5        1.92473  -0.00081   0.00089  -0.00498  -0.00409   1.92064
    A6        1.92441  -0.00117   0.00211  -0.01184  -0.00975   1.91466
    A7        2.24500   0.00308   0.00306   0.00549   0.00854   2.25354
    A8        1.92687   0.00213   0.00286   0.00234   0.00519   1.93206
    A9        2.11131  -0.00521  -0.00591  -0.00782  -0.01373   2.09758
    D1        2.11055   0.00038  -0.00082   0.00622   0.00539   2.11594
    D2       -1.03103   0.00038  -0.00082   0.00614   0.00531  -1.02572
    D3        0.00006   0.00000   0.00000   0.00003   0.00003   0.00009
    D4       -3.14152   0.00000   0.00000  -0.00005  -0.00005  -3.14157
    D5       -2.11042  -0.00038   0.00082  -0.00615  -0.00532  -2.11574
    D6        1.03118  -0.00038   0.00082  -0.00623  -0.00540   1.02578
         Item               Value     Threshold  Converged?
 Maximum Force            0.009084     0.000450     NO 
 RMS     Force            0.002899     0.000300     NO 
 Maximum Displacement     0.018167     0.001800     NO 
 RMS     Displacement     0.006921     0.001200     NO 
 Predicted change in Energy=-1.893214D-04
 GradGradGradGradGradGradGradGradGradGradGradGradGradGradGradGradGradGrad

                          Input orientation:                          
 ---------------------------------------------------------------------
 Center     Atomic      Atomic             Coordinates (Angstroms)
 Number     Number       Type             X           Y           Z
 ---------------------------------------------------------------------
      1          6           0        1.388084   -0.041629   -0.000005
      2          1           0        1.720461    0.512778   -0.877123
      3          1           0        1.824596   -1.034536   -0.000059
      4          1           0        1.720443    0.512666    0.877193
      5          6           0       -0.099425   -0.137493   -0.000021
      6          8           0       -0.785334   -1.101551    0.000002
      7          9           0       -0.662196    1.103912    0.000021
 ---------------------------------------------------------------------
                    Distance matrix (angstroms):
                    1          2          3          4          5
     1  C    0.000000
     2  H    1.089577   0.000000
     3  H    1.084624   1.781647   0.000000
     4  H    1.089578   1.754316   1.781643   0.000000
     5  C    1.490595   2.122298   2.122862   2.122294   0.000000
     6  O    2.418095   3.107156   2.610791   3.107102   1.183165
     7  F    2.348598   2.606890   3.279802   2.606909   1.363011
                    6          7
     6  O    0.000000
     7  F    2.208898   0.000000
 Stoichiometry    C2H3FO
 Framework group  C1[X(C2H3FO)]
 Deg. of freedom    15
 Full point group                 C1      NOp   1
 Largest Abelian subgroup         C1      NOp   1
 Largest concise Abelian subgroup C1      NOp   1
                         Standard orientation:                         
 ---------------------------------------------------------------------
 Center     Atomic      Atomic             Coordinates (Angstroms)
 Number     Number       Type             X           Y           Z
 ---------------------------------------------------------------------
      1          6           0        1.364738   -0.034039   -0.000007
      2          1           0        1.693530    0.522501   -0.877125
      3          1           0        1.807649   -1.024109   -0.000061
      4          1           0        1.693513    0.522389    0.877191
      5          6           0       -0.122121   -0.139502   -0.000023
      6          8           0       -0.801794   -1.107967    0.000000
      7          9           0       -0.692893    1.098245    0.000019
 ---------------------------------------------------------------------
 Rotational constants (GHZ):     11.0148911      9.7071089      5.3286133
 Basis read from rwf:  (5D, 7F)
 Pseudo-potential data read from rwf file.
 There are   276 symmetry adapted cartesian basis functions of A   symmetry.
 There are   238 symmetry adapted basis functions of A   symmetry.
   238 basis functions,   348 primitive gaussians,   276 cartesian basis functions
    16 alpha electrons       16 beta electrons
       nuclear repulsion energy       118.7251162631 Hartrees.
 NAtoms=    7 NActive=    7 NUniq=    7 SFac= 1.00D+00 NAtFMM=   60 NAOKFM=F Big=F
 Integral buffers will be    131072 words long.
 Raffenetti 2 integral format.
 Two-electron integral symmetry is turned on.
 One-electron integrals computed using PRISM.
 PrsmSu:  requested number of processors reduced to:   4 ShMem   1 Linda.
   1 Symmetry operations used in ECPInt.
 ECPInt:  NShTT=    3240 NPrTT=    9193 LenC2=    3239 LenP2D=    8166.
 LDataN:  DoStor=T MaxTD1= 6 Len=  172
 NBasis=   238 RedAO= T EigKep=  3.26D-05  NBF=   238
 NBsUse=   238 1.00D-06 EigRej= -1.00D+00 NBFU=   238
 Initial guess from the checkpoint file:  "/lustre/SCRATCH5/gau/mlawal/854152.sched01/Gau-32066.chk"
 B after Tr=     0.000000    0.000000    0.000000
         Rot=    0.999991   -0.000004   -0.000003   -0.004196 Ang=  -0.48 deg.
 Requested convergence on RMS density matrix=1.00D-08 within 128 cycles.
 Requested convergence on MAX density matrix=1.00D-06.
 Requested convergence on             energy=1.00D-06.
 No special actions if energy rises.
 SCF Done:  E(RB3LYP) =  -253.207573033     A.U. after    8 cycles
            NFock=  8  Conv=0.69D-08     -V/T= 2.0051
 PrsmSu:  requested number of processors reduced to:   4 ShMem   1 Linda.
   1 Symmetry operations used in ECPInt.
 ECPInt:  NShTT=    3240 NPrTT=    9193 LenC2=    3239 LenP2D=    8166.
 LDataN:  DoStor=T MaxTD1= 7 Len=  274
 Calling FoFJK, ICntrl=      2127 FMM=F ISym2X=0 I1Cent= 0 IOpClX= 0 NMat=1 NMatS=1 NMatT=0.
 ***** Axes restored to original set *****
 -------------------------------------------------------------------
 Center     Atomic                   Forces (Hartrees/Bohr)
 Number     Number              X              Y              Z
 -------------------------------------------------------------------
      1        6           0.001860266    0.000572727   -0.000002818
      2        1          -0.000172547    0.000321004   -0.000309398
      3        1          -0.000250555   -0.000471874   -0.000000211
      4        1          -0.000173874    0.000321017    0.000309310
      5        6          -0.000752114   -0.003741718    0.000008794
      6        8           0.000172663    0.001816384   -0.000003355
      7        9          -0.000683840    0.001182459   -0.000002321
 -------------------------------------------------------------------
 Cartesian Forces:  Max     0.003741718 RMS     0.001075544

 GradGradGradGradGradGradGradGradGradGradGradGradGradGradGradGradGradGrad
 Berny optimization.
 Using GEDIIS/GDIIS optimizer.
 FormGI is forming the generalized inverse of G from B-inverse, IUseBI=4.
 Internal  Forces:  Max     0.001581991 RMS     0.000676142
 Search for a local minimum.
 Step number   3 out of a maximum of   31
 All quantities printed in internal units (Hartrees-Bohrs-Radians)
 Mixed Optimization -- En-DIIS/RFO-DIIS
 Update second derivatives using D2CorX and points    1    2    3
 DE= -2.28D-04 DEPred=-1.89D-04 R= 1.20D+00
 TightC=F SS=  1.41D+00  RLast= 3.61D-02 DXNew= 7.8516D-01 1.0841D-01
 Trust test= 1.20D+00 RLast= 3.61D-02 DXMaxT set to 4.67D-01
 ITU=  1  1  0
 Use linear search instead of GDIIS.
     Eigenvalues ---    0.01013   0.01013   0.07515   0.07555   0.13422
     Eigenvalues ---    0.16000   0.16015   0.24483   0.28647   0.33251
     Eigenvalues ---    0.33280   0.33585   0.34100   0.53860   1.03144
 RFO step:  Lambda=-1.56262097D-05 EMin= 1.01256181D-02
 Quartic linear search produced a step of  0.24672.
 Iteration  1 RMS(Cart)=  0.00263795 RMS(Int)=  0.00001370
 Iteration  2 RMS(Cart)=  0.00000997 RMS(Int)=  0.00001027
 Iteration  3 RMS(Cart)=  0.00000000 RMS(Int)=  0.00001027
 Variable       Old X    -DE/DX   Delta X   Delta X   Delta X     New X
                                 (Linear)    (Quad)   (Total)
    R1        2.05900   0.00036  -0.00058   0.00142   0.00085   2.05985
    R2        2.04964   0.00033  -0.00116   0.00173   0.00057   2.05021
    R3        2.05900   0.00036  -0.00058   0.00142   0.00085   2.05985
    R4        2.81682   0.00131   0.00432   0.00097   0.00530   2.82211
    R5        2.23586  -0.00158  -0.00213  -0.00020  -0.00233   2.23352
    R6        2.57572   0.00136   0.00100   0.00262   0.00362   2.57934
    A1        1.92090   0.00041   0.00283   0.00149   0.00432   1.92521
    A2        1.87150   0.00021   0.00021   0.00133   0.00151   1.87301
    A3        1.91467  -0.00028  -0.00241  -0.00076  -0.00318   1.91149
    A4        1.92089   0.00041   0.00283   0.00149   0.00432   1.92521
    A5        1.92064  -0.00045  -0.00101  -0.00268  -0.00370   1.91694
    A6        1.91466  -0.00028  -0.00241  -0.00077  -0.00320   1.91146
    A7        2.25354   0.00126   0.00211   0.00355   0.00566   2.25920
    A8        1.93206  -0.00046   0.00128  -0.00428  -0.00300   1.92906
    A9        2.09758  -0.00080  -0.00339   0.00073  -0.00266   2.09492
    D1        2.11594   0.00004   0.00133  -0.00060   0.00072   2.11665
    D2       -1.02572   0.00004   0.00131  -0.00010   0.00120  -1.02453
    D3        0.00009   0.00000   0.00001  -0.00025  -0.00024  -0.00015
    D4       -3.14157   0.00000  -0.00001   0.00025   0.00024  -3.14133
    D5       -2.11574  -0.00004  -0.00131   0.00011  -0.00119  -2.11694
    D6        1.02578  -0.00004  -0.00133   0.00061  -0.00071   1.02507
         Item               Value     Threshold  Converged?
 Maximum Force            0.001582     0.000450     NO 
 RMS     Force            0.000676     0.000300     NO 
 Maximum Displacement     0.005640     0.001800     NO 
 RMS     Displacement     0.002636     0.001200     NO 
 Predicted change in Energy=-1.738446D-05
 GradGradGradGradGradGradGradGradGradGradGradGradGradGradGradGradGradGrad

                          Input orientation:                          
 ---------------------------------------------------------------------
 Center     Atomic      Atomic             Coordinates (Angstroms)
 Number     Number       Type             X           Y           Z
 ---------------------------------------------------------------------
      1          6           0        1.390991   -0.041870    0.000017
      2          1           0        1.719227    0.514520   -0.877962
      3          1           0        1.825481   -1.035993   -0.000090
      4          1           0        1.719328    0.514370    0.878054
      5          6           0       -0.099165   -0.140210    0.000115
      6          8           0       -0.788319   -1.100432   -0.000048
      7          9           0       -0.660915    1.103762   -0.000079
 ---------------------------------------------------------------------
                    Distance matrix (angstroms):
                    1          2          3          4          5
     1  C    0.000000
     2  H    1.090026   0.000000
     3  H    1.084926   1.784949   0.000000
     4  H    1.090026   1.756016   1.784946   0.000000
     5  C    1.493397   2.122791   2.122896   2.122773   0.000000
     6  O    2.422797   3.109114   2.614594   3.109170   1.181930
     7  F    2.350061   2.604411   3.280353   2.604622   1.364929
                    6          7
     6  O    0.000000
     7  F    2.207872   0.000000
 Stoichiometry    C2H3FO
 Framework group  C1[X(C2H3FO)]
 Deg. of freedom    15
 Full point group                 C1      NOp   1
 Largest Abelian subgroup         C1      NOp   1
 Largest concise Abelian subgroup C1      NOp   1
                         Standard orientation:                         
 ---------------------------------------------------------------------
 Center     Atomic      Atomic             Coordinates (Angstroms)
 Number     Number       Type             X           Y           Z
 ---------------------------------------------------------------------
      1          6           0        1.367315   -0.040160    0.000026
      2          1           0        1.694463    0.516871   -0.877953
      3          1           0        1.803749   -1.033432   -0.000081
      4          1           0        1.694564    0.516721    0.878063
      5          6           0       -0.122645   -0.141413    0.000125
      6          8           0       -0.809920   -1.102981   -0.000038
      7          9           0       -0.686826    1.101458   -0.000070
 ---------------------------------------------------------------------
 Rotational constants (GHZ):     11.0179075      9.6837423      5.3226056
 Basis read from rwf:  (5D, 7F)
 Pseudo-potential data read from rwf file.
 There are   276 symmetry adapted cartesian basis functions of A   symmetry.
 There are   238 symmetry adapted basis functions of A   symmetry.
   238 basis functions,   348 primitive gaussians,   276 cartesian basis functions
    16 alpha electrons       16 beta electrons
       nuclear repulsion energy       118.6678394544 Hartrees.
 NAtoms=    7 NActive=    7 NUniq=    7 SFac= 1.00D+00 NAtFMM=   60 NAOKFM=F Big=F
 Integral buffers will be    131072 words long.
 Raffenetti 2 integral format.
 Two-electron integral symmetry is turned on.
 One-electron integrals computed using PRISM.
 PrsmSu:  requested number of processors reduced to:   4 ShMem   1 Linda.
   1 Symmetry operations used in ECPInt.
 ECPInt:  NShTT=    3240 NPrTT=    9193 LenC2=    3239 LenP2D=    8166.
 LDataN:  DoStor=T MaxTD1= 6 Len=  172
 NBasis=   238 RedAO= T EigKep=  3.26D-05  NBF=   238
 NBsUse=   238 1.00D-06 EigRej= -1.00D+00 NBFU=   238
 Initial guess from the checkpoint file:  "/lustre/SCRATCH5/gau/mlawal/854152.sched01/Gau-32066.chk"
 B after Tr=     0.000000    0.000000    0.000000
         Rot=    0.999997    0.000012    0.000014    0.002624 Ang=   0.30 deg.
 Requested convergence on RMS density matrix=1.00D-08 within 128 cycles.
 Requested convergence on MAX density matrix=1.00D-06.
 Requested convergence on             energy=1.00D-06.
 No special actions if energy rises.
 SCF Done:  E(RB3LYP) =  -253.207591829     A.U. after    8 cycles
            NFock=  8  Conv=0.42D-08     -V/T= 2.0052
 PrsmSu:  requested number of processors reduced to:   4 ShMem   1 Linda.
   1 Symmetry operations used in ECPInt.
 ECPInt:  NShTT=    3240 NPrTT=    9193 LenC2=    3239 LenP2D=    8166.
 LDataN:  DoStor=T MaxTD1= 7 Len=  274
 Calling FoFJK, ICntrl=      2127 FMM=F ISym2X=0 I1Cent= 0 IOpClX= 0 NMat=1 NMatS=1 NMatT=0.
 ***** Axes restored to original set *****
 -------------------------------------------------------------------
 Center     Atomic                   Forces (Hartrees/Bohr)
 Number     Number              X              Y              Z
 -------------------------------------------------------------------
      1        6          -0.000178389    0.000269969    0.000018239
      2        1          -0.000028111   -0.000055366   -0.000004374
      3        1           0.000123743   -0.000053170    0.000001366
      4        1          -0.000019809   -0.000055014    0.000004422
      5        6           0.000460282   -0.000987694   -0.000055126
      6        8          -0.000068567    0.000093711    0.000020251
      7        9          -0.000289148    0.000787565    0.000015222
 -------------------------------------------------------------------
 Cartesian Forces:  Max     0.000987694 RMS     0.000311595

 GradGradGradGradGradGradGradGradGradGradGradGradGradGradGradGradGradGrad
 Berny optimization.
 Using GEDIIS/GDIIS optimizer.
 FormGI is forming the generalized inverse of G from B-inverse, IUseBI=4.
 Internal  Forces:  Max     0.000839699 RMS     0.000201197
 Search for a local minimum.
 Step number   4 out of a maximum of   31
 All quantities printed in internal units (Hartrees-Bohrs-Radians)
 Mixed Optimization -- En-DIIS/RFO-DIIS
 Swapping is turned off.
 Update second derivatives using D2CorX and points    1    2    3    4
 DE= -1.88D-05 DEPred=-1.74D-05 R= 1.08D+00
 TightC=F SS=  1.41D+00  RLast= 1.32D-02 DXNew= 7.8516D-01 3.9581D-02
 Trust test= 1.08D+00 RLast= 1.32D-02 DXMaxT set to 4.67D-01
 ITU=  1  1  1  0
     Eigenvalues ---    0.01013   0.01013   0.07551   0.07643   0.13258
     Eigenvalues ---    0.16000   0.16340   0.22374   0.28648   0.33178
     Eigenvalues ---    0.33251   0.33683   0.34541   0.52078   1.05177
 En-DIIS/RFO-DIIS IScMMF=        0 using points:     4    3
 RFO step:  Lambda=-1.38430774D-06.
 DidBck=F Rises=F RFO-DIIS coefs:    1.12983   -0.12983
 Iteration  1 RMS(Cart)=  0.00095831 RMS(Int)=  0.00000152
 Iteration  2 RMS(Cart)=  0.00000139 RMS(Int)=  0.00000058
 Iteration  3 RMS(Cart)=  0.00000000 RMS(Int)=  0.00000058
 Variable       Old X    -DE/DX   Delta X   Delta X   Delta X     New X
                                 (Linear)    (Quad)   (Total)
    R1        2.05985  -0.00003   0.00011  -0.00024  -0.00013   2.05972
    R2        2.05021   0.00010   0.00007   0.00019   0.00026   2.05047
    R3        2.05985  -0.00003   0.00011  -0.00023  -0.00012   2.05973
    R4        2.82211  -0.00010   0.00069  -0.00042   0.00027   2.82238
    R5        2.23352  -0.00004  -0.00030  -0.00002  -0.00033   2.23320
    R6        2.57934   0.00084   0.00047   0.00152   0.00200   2.58134
    A1        1.92521  -0.00005   0.00056  -0.00049   0.00007   1.92528
    A2        1.87301   0.00005   0.00020   0.00035   0.00054   1.87356
    A3        1.91149  -0.00004  -0.00041  -0.00024  -0.00066   1.91083
    A4        1.92521  -0.00005   0.00056  -0.00051   0.00005   1.92526
    A5        1.91694   0.00012  -0.00048   0.00101   0.00053   1.91747
    A6        1.91146  -0.00003  -0.00042  -0.00014  -0.00056   1.91091
    A7        2.25920   0.00023   0.00073   0.00070   0.00143   2.26063
    A8        1.92906  -0.00020  -0.00039  -0.00066  -0.00105   1.92802
    A9        2.09492  -0.00003  -0.00035  -0.00004  -0.00039   2.09453
    D1        2.11665   0.00000   0.00009   0.00119   0.00129   2.11794
    D2       -1.02453  -0.00002   0.00016  -0.00149  -0.00133  -1.02586
    D3       -0.00015   0.00001  -0.00003   0.00131   0.00128   0.00113
    D4       -3.14133  -0.00001   0.00003  -0.00137  -0.00134   3.14052
    D5       -2.11694   0.00002  -0.00015   0.00139   0.00124  -2.11570
    D6        1.02507   0.00000  -0.00009  -0.00129  -0.00138   1.02368
         Item               Value     Threshold  Converged?
 Maximum Force            0.000840     0.000450     NO 
 RMS     Force            0.000201     0.000300     YES
 Maximum Displacement     0.002231     0.001800     NO 
 RMS     Displacement     0.000959     0.001200     YES
 Predicted change in Energy=-1.236953D-06
 GradGradGradGradGradGradGradGradGradGradGradGradGradGradGradGradGradGrad

                          Input orientation:                          
 ---------------------------------------------------------------------
 Center     Atomic      Atomic             Coordinates (Angstroms)
 Number     Number       Type             X           Y           Z
 ---------------------------------------------------------------------
      1          6           0        1.391218   -0.042036   -0.000102
      2          1           0        1.718919    0.514418   -0.878154
      3          1           0        1.826662   -1.035892    0.000096
      4          1           0        1.718374    0.514506    0.878104
      5          6           0       -0.099044   -0.140938   -0.000629
      6          8           0       -0.789116   -1.100286    0.000197
      7          9           0       -0.660386    1.104376    0.000496
 ---------------------------------------------------------------------
                    Distance matrix (angstroms):
                    1          2          3          4          5
     1  C    0.000000
     2  H    1.089956   0.000000
     3  H    1.085063   1.785047   0.000000
     4  H    1.089961   1.756257   1.785037   0.000000
     5  C    1.493540   2.122388   2.123508   2.122448   0.000000
     6  O    2.423582   3.109503   2.616570   3.108984   1.181757
     7  F    2.350179   2.604068   3.281182   2.603199   1.365984
                    6          7
     6  O    0.000000
     7  F    2.208417   0.000000
 Stoichiometry    C2H3FO
 Framework group  C1[X(C2H3FO)]
 Deg. of freedom    15
 Full point group                 C1      NOp   1
 Largest Abelian subgroup         C1      NOp   1
 Largest concise Abelian subgroup C1      NOp   1
                         Standard orientation:                         
 ---------------------------------------------------------------------
 Center     Atomic      Atomic             Coordinates (Angstroms)
 Number     Number       Type             X           Y           Z
 ---------------------------------------------------------------------
      1          6           0        1.367504   -0.041278    0.000099
      2          1           0        1.694644    0.515443   -0.877993
      3          1           0        1.804231   -1.034570    0.000552
      4          1           0        1.693782    0.515842    0.878265
      5          6           0       -0.122629   -0.142105   -0.000679
      6          8           0       -0.811461   -1.102345    0.000193
      7          9           0       -0.685580    1.102482    0.000124
 ---------------------------------------------------------------------
 Rotational constants (GHZ):     11.0118070      9.6813800      5.3205167
 Basis read from rwf:  (5D, 7F)
 Pseudo-potential data read from rwf file.
 There are   276 symmetry adapted cartesian basis functions of A   symmetry.
 There are   238 symmetry adapted basis functions of A   symmetry.
   238 basis functions,   348 primitive gaussians,   276 cartesian basis functions
    16 alpha electrons       16 beta electrons
       nuclear repulsion energy       118.6448798934 Hartrees.
 NAtoms=    7 NActive=    7 NUniq=    7 SFac= 1.00D+00 NAtFMM=   60 NAOKFM=F Big=F
 Integral buffers will be    131072 words long.
 Raffenetti 2 integral format.
 Two-electron integral symmetry is turned on.
 One-electron integrals computed using PRISM.
 PrsmSu:  requested number of processors reduced to:   4 ShMem   1 Linda.
   1 Symmetry operations used in ECPInt.
 ECPInt:  NShTT=    3240 NPrTT=    9193 LenC2=    3239 LenP2D=    8166.
 LDataN:  DoStor=T MaxTD1= 6 Len=  172
 NBasis=   238 RedAO= T EigKep=  3.26D-05  NBF=   238
 NBsUse=   238 1.00D-06 EigRej= -1.00D+00 NBFU=   238
 Initial guess from the checkpoint file:  "/lustre/SCRATCH5/gau/mlawal/854152.sched01/Gau-32066.chk"
 B after Tr=     0.000000    0.000000    0.000000
         Rot=    1.000000    0.000011    0.000012    0.000481 Ang=   0.06 deg.
 Requested convergence on RMS density matrix=1.00D-08 within 128 cycles.
 Requested convergence on MAX density matrix=1.00D-06.
 Requested convergence on             energy=1.00D-06.
 No special actions if energy rises.
 SCF Done:  E(RB3LYP) =  -253.207593182     A.U. after    7 cycles
            NFock=  7  Conv=0.62D-08     -V/T= 2.0052
 PrsmSu:  requested number of processors reduced to:   4 ShMem   1 Linda.
   1 Symmetry operations used in ECPInt.
 ECPInt:  NShTT=    3240 NPrTT=    9193 LenC2=    3239 LenP2D=    8166.
 LDataN:  DoStor=T MaxTD1= 7 Len=  274
 Calling FoFJK, ICntrl=      2127 FMM=F ISym2X=0 I1Cent= 0 IOpClX= 0 NMat=1 NMatS=1 NMatT=0.
 ***** Axes restored to original set *****
 -------------------------------------------------------------------
 Center     Atomic                   Forces (Hartrees/Bohr)
 Number     Number              X              Y              Z
 -------------------------------------------------------------------
      1        6          -0.000321594    0.000096968   -0.000096294
      2        1           0.000046466   -0.000025854   -0.000007041
      3        1           0.000060394    0.000012433   -0.000007282
      4        1           0.000002266   -0.000027224    0.000006037
      5        6           0.000348285   -0.000390029    0.000293950
      6        8          -0.000027822   -0.000008191   -0.000108377
      7        9          -0.000107996    0.000341897   -0.000080994
 -------------------------------------------------------------------
 Cartesian Forces:  Max     0.000390029 RMS     0.000174185

 GradGradGradGradGradGradGradGradGradGradGradGradGradGradGradGradGradGrad
 Berny optimization.
 Using GEDIIS/GDIIS optimizer.
 FormGI is forming the generalized inverse of G from B-inverse, IUseBI=4.
 Internal  Forces:  Max     0.000359033 RMS     0.000104311
 Search for a local minimum.
 Step number   5 out of a maximum of   31
 All quantities printed in internal units (Hartrees-Bohrs-Radians)
 Mixed Optimization -- En-DIIS/RFO-DIIS
 Swapping is turned off.
 Update second derivatives using D2CorX and points    1    2    3    4    5
 DE= -1.35D-06 DEPred=-1.24D-06 R= 1.09D+00
 TightC=F SS=  1.41D+00  RLast= 4.38D-03 DXNew= 7.8516D-01 1.3136D-02
 Trust test= 1.09D+00 RLast= 4.38D-03 DXMaxT set to 4.67D-01
 ITU=  1  1  1  1  0
     Eigenvalues ---    0.01013   0.01504   0.07544   0.07688   0.12177
     Eigenvalues ---    0.15510   0.16366   0.17890   0.28556   0.33202
     Eigenvalues ---    0.33267   0.33711   0.35895   0.40837   1.03872
 En-DIIS/RFO-DIIS IScMMF=        0 using points:     5    4    3
 RFO step:  Lambda=-7.28909850D-07.
 DidBck=F Rises=F RFO-DIIS coefs:    0.81723    0.36959   -0.18682
 Iteration  1 RMS(Cart)=  0.00145786 RMS(Int)=  0.00000470
 Iteration  2 RMS(Cart)=  0.00000424 RMS(Int)=  0.00000212
 Iteration  3 RMS(Cart)=  0.00000000 RMS(Int)=  0.00000212
 Variable       Old X    -DE/DX   Delta X   Delta X   Delta X     New X
                                 (Linear)    (Quad)   (Total)
    R1        2.05972   0.00001   0.00018  -0.00025  -0.00007   2.05965
    R2        2.05047   0.00002   0.00006   0.00022   0.00028   2.05075
    R3        2.05973  -0.00001   0.00018  -0.00027  -0.00009   2.05963
    R4        2.82238  -0.00021   0.00094  -0.00081   0.00013   2.82251
    R5        2.23320   0.00002  -0.00038  -0.00003  -0.00041   2.23279
    R6        2.58134   0.00036   0.00031   0.00208   0.00239   2.58373
    A1        1.92528  -0.00007   0.00079  -0.00079   0.00000   1.92528
    A2        1.87356  -0.00001   0.00018   0.00041   0.00059   1.87415
    A3        1.91083   0.00006  -0.00047   0.00001  -0.00046   1.91037
    A4        1.92526  -0.00004   0.00080  -0.00075   0.00004   1.92530
    A5        1.91747   0.00006  -0.00079   0.00131   0.00052   1.91799
    A6        1.91091  -0.00001  -0.00050  -0.00021  -0.00071   1.91020
    A7        2.26063   0.00008   0.00080   0.00100   0.00179   2.26242
    A8        1.92802  -0.00010  -0.00037  -0.00094  -0.00131   1.92670
    A9        2.09453   0.00002  -0.00043  -0.00004  -0.00048   2.09406
    D1        2.11794  -0.00007  -0.00010  -0.00296  -0.00306   2.11488
    D2       -1.02586   0.00006   0.00047   0.00275   0.00321  -1.02265
    D3        0.00113  -0.00007  -0.00028  -0.00281  -0.00309  -0.00196
    D4        3.14052   0.00006   0.00029   0.00290   0.00319  -3.13948
    D5       -2.11570  -0.00005  -0.00045  -0.00258  -0.00303  -2.11873
    D6        1.02368   0.00008   0.00012   0.00313   0.00325   1.02694
         Item               Value     Threshold  Converged?
 Maximum Force            0.000359     0.000450     YES
 RMS     Force            0.000104     0.000300     YES
 Maximum Displacement     0.003373     0.001800     NO 
 RMS     Displacement     0.001459     0.001200     NO 
 Predicted change in Energy=-1.596617D-06
 GradGradGradGradGradGradGradGradGradGradGradGradGradGradGradGradGradGrad

                          Input orientation:                          
 ---------------------------------------------------------------------
 Center     Atomic      Atomic             Coordinates (Angstroms)
 Number     Number       Type             X           Y           Z
 ---------------------------------------------------------------------
      1          6           0        1.391416   -0.042195    0.000184
      2          1           0        1.717444    0.514733   -0.878143
      3          1           0        1.827933   -1.035743   -0.000345
      4          1           0        1.718449    0.514263    0.878428
      5          6           0       -0.098862   -0.141850    0.001156
      6          8           0       -0.790039   -1.100134   -0.000399
      7          9           0       -0.659713    1.105073   -0.000872
 ---------------------------------------------------------------------
                    Distance matrix (angstroms):
                    1          2          3          4          5
     1  C    0.000000
     2  H    1.089919   0.000000
     3  H    1.085211   1.785137   0.000000
     4  H    1.089912   1.756571   1.785146   0.000000
     5  C    1.493607   2.122083   2.124050   2.121959   0.000000
     6  O    2.424455   3.108971   2.618764   3.109844   1.181540
     7  F    2.350182   2.601726   3.281992   2.603436   1.367250
                    6          7
     6  O    0.000000
     7  F    2.209054   0.000000
 Stoichiometry    C2H3FO
 Framework group  C1[X(C2H3FO)]
 Deg. of freedom    15
 Full point group                 C1      NOp   1
 Largest Abelian subgroup         C1      NOp   1
 Largest concise Abelian subgroup C1      NOp   1
                         Standard orientation:                         
 ---------------------------------------------------------------------
 Center     Atomic      Atomic             Coordinates (Angstroms)
 Number     Number       Type             X           Y           Z
 ---------------------------------------------------------------------
      1          6           0        1.367636   -0.042779   -0.000186
      2          1           0        1.693183    0.514517   -0.878459
      3          1           0        1.804491   -1.036178   -0.001150
      4          1           0        1.694771    0.513534    0.878112
      5          6           0       -0.122608   -0.142941    0.001250
      6          8           0       -0.813459   -1.101460   -0.000356
      7          9           0       -0.683883    1.103791   -0.000227
 ---------------------------------------------------------------------
 Rotational constants (GHZ):     11.0046079      9.6793956      5.3183004
 Basis read from rwf:  (5D, 7F)
 Pseudo-potential data read from rwf file.
 There are   276 symmetry adapted cartesian basis functions of A   symmetry.
 There are   238 symmetry adapted basis functions of A   symmetry.
   238 basis functions,   348 primitive gaussians,   276 cartesian basis functions
    16 alpha electrons       16 beta electrons
       nuclear repulsion energy       118.6196711005 Hartrees.
 NAtoms=    7 NActive=    7 NUniq=    7 SFac= 1.00D+00 NAtFMM=   60 NAOKFM=F Big=F
 Integral buffers will be    131072 words long.
 Raffenetti 2 integral format.
 Two-electron integral symmetry is turned on.
 One-electron integrals computed using PRISM.
 PrsmSu:  requested number of processors reduced to:   4 ShMem   1 Linda.
   1 Symmetry operations used in ECPInt.
 ECPInt:  NShTT=    3240 NPrTT=    9193 LenC2=    3239 LenP2D=    8166.
 LDataN:  DoStor=T MaxTD1= 6 Len=  172
 NBasis=   238 RedAO= T EigKep=  3.26D-05  NBF=   238
 NBsUse=   238 1.00D-06 EigRej= -1.00D+00 NBFU=   238
 Initial guess from the checkpoint file:  "/lustre/SCRATCH5/gau/mlawal/854152.sched01/Gau-32066.chk"
 B after Tr=     0.000000    0.000000    0.000000
         Rot=    1.000000   -0.000051   -0.000069    0.000649 Ang=  -0.08 deg.
 Requested convergence on RMS density matrix=1.00D-08 within 128 cycles.
 Requested convergence on MAX density matrix=1.00D-06.
 Requested convergence on             energy=1.00D-06.
 No special actions if energy rises.
 SCF Done:  E(RB3LYP) =  -253.207592612     A.U. after    7 cycles
            NFock=  7  Conv=0.90D-08     -V/T= 2.0052
 PrsmSu:  requested number of processors reduced to:   4 ShMem   1 Linda.
   1 Symmetry operations used in ECPInt.
 ECPInt:  NShTT=    3240 NPrTT=    9193 LenC2=    3239 LenP2D=    8166.
 LDataN:  DoStor=T MaxTD1= 7 Len=  274
 Calling FoFJK, ICntrl=      2127 FMM=F ISym2X=0 I1Cent= 0 IOpClX= 0 NMat=1 NMatS=1 NMatT=0.
 ***** Axes restored to original set *****
 -------------------------------------------------------------------
 Center     Atomic                   Forces (Hartrees/Bohr)
 Number     Number              X              Y              Z
 -------------------------------------------------------------------
      1        6          -0.000416049   -0.000105854    0.000177985
      2        1           0.000023242   -0.000004565    0.000008389
      3        1           0.000000431    0.000081627    0.000013560
      4        1           0.000104834   -0.000001675   -0.000006805
      5        6           0.000180915    0.000359486   -0.000543225
      6        8           0.000014613   -0.000150531    0.000199754
      7        9           0.000092014   -0.000178489    0.000150342
 -------------------------------------------------------------------
 Cartesian Forces:  Max     0.000543225 RMS     0.000197274

 GradGradGradGradGradGradGradGradGradGradGradGradGradGradGradGradGradGrad
 Berny optimization.
 Using GEDIIS/GDIIS optimizer.
 FormGI is forming the generalized inverse of G from B-inverse, IUseBI=4.
 Internal  Forces:  Max     0.000289815 RMS     0.000115656
 Search for a local minimum.
 Step number   6 out of a maximum of   31
 All quantities printed in internal units (Hartrees-Bohrs-Radians)
 Mixed Optimization -- En-DIIS/RFO-DIIS
 Swapping is turned off.
 Update second derivatives using D2CorX and points    1    2    3    4    5
                                                      6
 DE=  5.70D-07 DEPred=-1.60D-06 R=-3.57D-01
 Trust test=-3.57D-01 RLast= 8.47D-03 DXMaxT set to 2.33D-01
 ITU= -1  1  1  1  1  0
     Eigenvalues ---    0.01013   0.03332   0.07274   0.07605   0.09904
     Eigenvalues ---    0.14396   0.16619   0.17455   0.28178   0.31795
     Eigenvalues ---    0.33276   0.33610   0.34553   0.39050   1.00502
 En-DIIS/RFO-DIIS IScMMF=        0 using points:     6    5    4    3
 RFO step:  Lambda=-7.75514758D-07.
 DidBck=T Rises=F RFO-DIIS coefs:    0.49774    0.79450   -0.40632    0.11409
 Iteration  1 RMS(Cart)=  0.00090455 RMS(Int)=  0.00000166
 Iteration  2 RMS(Cart)=  0.00000147 RMS(Int)=  0.00000072
 Iteration  3 RMS(Cart)=  0.00000000 RMS(Int)=  0.00000072
 Variable       Old X    -DE/DX   Delta X   Delta X   Delta X     New X
                                 (Linear)    (Quad)   (Total)
    R1        2.05965   0.00000  -0.00010   0.00017   0.00007   2.05972
    R2        2.05075  -0.00007  -0.00013  -0.00006  -0.00019   2.05057
    R3        2.05963   0.00002  -0.00009   0.00017   0.00009   2.05972
    R4        2.82251  -0.00029  -0.00059  -0.00041  -0.00100   2.82151
    R5        2.23279   0.00011   0.00038  -0.00008   0.00030   2.23309
    R6        2.58373  -0.00020  -0.00103   0.00009  -0.00094   2.58278
    A1        1.92528  -0.00003  -0.00047  -0.00008  -0.00055   1.92473
    A2        1.87415  -0.00006  -0.00031  -0.00013  -0.00044   1.87371
    A3        1.91037   0.00001   0.00040   0.00029   0.00070   1.91106
    A4        1.92530  -0.00007  -0.00050  -0.00008  -0.00058   1.92472
    A5        1.91799   0.00000   0.00032  -0.00028   0.00003   1.91802
    A6        1.91020   0.00015   0.00056   0.00030   0.00085   1.91105
    A7        2.26242  -0.00012  -0.00112   0.00026  -0.00086   2.26156
    A8        1.92670   0.00004   0.00070  -0.00015   0.00054   1.92724
    A9        2.09406   0.00008   0.00043  -0.00010   0.00033   2.09438
    D1        2.11488   0.00010   0.00183  -0.00007   0.00177   2.11664
    D2       -1.02265  -0.00014  -0.00214  -0.00014  -0.00228  -1.02492
    D3       -0.00196   0.00012   0.00196   0.00003   0.00199   0.00002
    D4       -3.13948  -0.00011  -0.00202  -0.00004  -0.00206  -3.14154
    D5       -2.11873   0.00012   0.00202   0.00012   0.00214  -2.11659
    D6        1.02694  -0.00012  -0.00196   0.00005  -0.00190   1.02503
         Item               Value     Threshold  Converged?
 Maximum Force            0.000290     0.000450     YES
 RMS     Force            0.000116     0.000300     YES
 Maximum Displacement     0.002173     0.001800     NO 
 RMS     Displacement     0.000904     0.001200     YES
 Predicted change in Energy=-1.162236D-06
 GradGradGradGradGradGradGradGradGradGradGradGradGradGradGradGradGradGrad

                          Input orientation:                          
 ---------------------------------------------------------------------
 Center     Atomic      Atomic             Coordinates (Angstroms)
 Number     Number       Type             X           Y           Z
 ---------------------------------------------------------------------
      1          6           0        1.390915   -0.042058    0.000000
      2          1           0        1.718363    0.514397   -0.878146
      3          1           0        1.827257   -1.035575   -0.000057
      4          1           0        1.718370    0.514294    0.878210
      5          6           0       -0.098855   -0.141425    0.000006
      6          8           0       -0.789457   -1.100320   -0.000021
      7          9           0       -0.659965    1.104835    0.000015
 ---------------------------------------------------------------------
                    Distance matrix (angstroms):
[...]
 Frequencies --    119.3585               414.2843               572.5102
 Red. masses --      1.0807                 3.1353                 2.5942
 Frc consts  --      0.0091                 0.3170                 0.5010
 IR Inten    --      0.0332                 0.1495                 5.5739
  Atom  AN      X      Y      Z        X      Y      Z        X      Y      Z
     1   6     0.00   0.00   0.00    -0.06   0.20   0.00     0.00   0.00  -0.01
     2   1    -0.01  -0.50  -0.32    -0.33   0.38   0.01     0.57  -0.02   0.20
     3   1     0.00   0.00   0.53     0.41   0.41   0.00     0.00   0.00   0.36
     4   1     0.01   0.50  -0.32    -0.33   0.38  -0.01    -0.57   0.02   0.20
     5   6     0.00   0.00   0.01    -0.03  -0.16   0.00     0.00   0.00  -0.34
     6   8     0.00   0.00  -0.05    -0.17  -0.05   0.00     0.00   0.00   0.12
     7   9     0.00   0.00   0.04     0.22  -0.05   0.00     0.00   0.00   0.08
                      4                      5                      6
                      A                      A                      A
 Frequencies --    597.5796               826.1493              1003.7157
 Red. masses --      8.0246                 6.4378                 1.9406
 Frc consts  --      1.6884                 2.5889                 1.1519
 IR Inten    --     17.2037                68.9846                48.8122
  Atom  AN      X      Y      Z        X      Y      Z        X      Y      Z
     1   6     0.39   0.05   0.00    -0.35   0.04   0.00     0.09   0.17   0.00
     2   1     0.34   0.07  -0.01    -0.17  -0.08  -0.02     0.51  -0.21  -0.07
     3   1     0.50   0.10   0.00    -0.73  -0.11   0.00    -0.53  -0.12   0.00
     4   1     0.34   0.07   0.01    -0.17  -0.08   0.02     0.51  -0.21   0.07
     5   6     0.17  -0.02   0.00     0.04   0.24   0.00    -0.15   0.06   0.00
     6   8    -0.30   0.32   0.00     0.12   0.22   0.00    -0.05  -0.10   0.00
     7   9    -0.17  -0.30   0.00     0.15  -0.35   0.00     0.06  -0.03   0.00
                      7                      8                      9
                      A                      A                      A
 Frequencies --   1072.0668              1187.9938              1403.4765
 Red. masses --      1.7874                 3.1029                 1.2908
 Frc consts  --      1.2104                 2.5801                 1.4980
 IR Inten    --      8.7725               194.2829                31.8925
  Atom  AN      X      Y      Z        X      Y      Z        X      Y      Z
     1   6     0.00   0.00   0.17    -0.10   0.14   0.00     0.15   0.01   0.00
     2   1    -0.59  -0.12  -0.15     0.05  -0.24  -0.16    -0.56  -0.01  -0.26
     3   1     0.00   0.00  -0.38    -0.78  -0.17   0.00    -0.40  -0.23   0.00
     4   1     0.59   0.12  -0.15     0.05  -0.24   0.16    -0.56  -0.01   0.26
     5   6     0.00   0.00  -0.20     0.29  -0.25   0.00    -0.03   0.03   0.00
     6   8     0.00   0.00   0.04    -0.04   0.04   0.00     0.00  -0.01   0.00
     7   9     0.00   0.00   0.02    -0.05   0.07   0.00     0.01  -0.01   0.00
                     10                     11                     12
                      A                      A                      A
 Frequencies --   1468.8110              1475.5616              1901.4944
 Red. masses --      1.0474                 1.0447                12.1704
 Frc consts  --      1.3313                 1.3402                25.9265
 IR Inten    --     14.8943                 7.8733               309.7330
  Atom  AN      X      Y      Z        X      Y      Z        X      Y      Z
     1   6     0.03  -0.04   0.00     0.00   0.00  -0.05    -0.07  -0.03   0.00
     2   1     0.07   0.50   0.35    -0.35   0.34   0.05    -0.12  -0.07  -0.07
     3   1    -0.43  -0.23   0.00     0.00   0.00   0.72     0.16   0.11   0.00
     4   1     0.07   0.50  -0.35     0.35  -0.34   0.05    -0.12  -0.07   0.07
     5   6     0.02   0.00   0.00     0.00   0.00  -0.03     0.53   0.59   0.00
     6   8    -0.01  -0.01   0.00     0.00   0.00   0.00    -0.32  -0.42   0.00
     7   9     0.00   0.00   0.00     0.00   0.00   0.00    -0.02   0.00   0.00
                     13                     14                     15
                      A                      A                      A
 Frequencies --   3054.0915              3111.8270              3160.7014
 Red. masses --      1.0362                 1.0994                 1.1034
 Frc consts  --      5.6948                 6.2726                 6.4945
 IR Inten    --      0.1691                 1.2070                 2.9523
  Atom  AN      X      Y      Z        X      Y      Z        X      Y      Z
     1   6     0.05   0.02   0.00     0.00   0.00   0.09     0.02  -0.09   0.00
     2   1    -0.19  -0.32   0.52     0.22   0.37  -0.56     0.09   0.13  -0.24
     3   1    -0.16   0.39   0.00     0.00   0.00   0.02    -0.37   0.83   0.00
     4   1    -0.19  -0.32  -0.52    -0.22  -0.37  -0.56     0.09   0.13   0.24
     5   6     0.00   0.00   0.00     0.00   0.00   0.00     0.00   0.00   0.00
     6   8     0.00   0.00   0.00     0.00   0.00   0.00     0.00   0.00   0.00
     7   9     0.00   0.00   0.00     0.00   0.00   0.00     0.00   0.00   0.00

 -------------------
 - Thermochemistry -
 -------------------
 Temperature   298.150 Kelvin.  Pressure   1.00000 Atm.
 Atom     1 has atomic number  6 and mass  12.00000
 Atom     2 has atomic number  1 and mass   1.00783
 Atom     3 has atomic number  1 and mass   1.00783
 Atom     4 has atomic number  1 and mass   1.00783
 Atom     5 has atomic number  6 and mass  12.00000
 Atom     6 has atomic number  8 and mass  15.99491
 Atom     7 has atomic number  9 and mass  18.99840
 Molecular mass:    62.01679 amu.
 Principal axes and moments of inertia in atomic units:
                           1         2         3
     Eigenvalues --   163.97210 186.36637 339.23629
           X            0.99639   0.08494   0.00000
           Y           -0.08494   0.99639  -0.00002
           Z            0.00000   0.00002   1.00000
 This molecule is an asymmetric top.
 Rotational symmetry number  1.
 Rotational temperatures (Kelvin)      0.52822     0.46475     0.25532
 Rotational constants (GHZ):          11.00639     9.68384     5.32001
 Zero-point vibrational energy     127818.7 (Joules/Mol)
                                   30.54941 (Kcal/Mol)
 Warning -- explicit consideration of   4 degrees of freedom as
           vibrations may cause significant error
 Vibrational temperatures:    171.73   596.06   823.71   859.78  1188.64
          (Kelvin)           1444.12  1542.46  1709.26  2019.29  2113.29
                             2123.00  2735.82  4394.15  4477.22  4547.54
 
 Zero-point correction=                           0.048684 (Hartree/Particle)
 Thermal correction to Energy=                    0.053019
 Thermal correction to Enthalpy=                  0.053963
 Thermal correction to Gibbs Free Energy=         0.021863
 Sum of electronic and zero-point Energies=           -253.158910
 Sum of electronic and thermal Energies=              -253.154575
 Sum of electronic and thermal Enthalpies=            -253.153630
 Sum of electronic and thermal Free Energies=         -253.185731
 
                     E (Thermal)             CV                S
                      KCal/Mol        Cal/Mol-Kelvin    Cal/Mol-Kelvin
 Total                   33.270             13.248             67.562
 Electronic               0.000              0.000              0.000
 Translational            0.889              2.981             38.294
 Rotational               0.889              2.981             23.854
 Vibrational             31.493              7.287              5.414
 Vibration     1          0.609              1.933              3.111
 Vibration     2          0.778              1.439              0.912
 Vibration     3          0.929              1.091              0.499
 Vibration     4          0.955              1.037              0.454
                       Q            Log10(Q)             Ln(Q)
 Total Bot       0.878893D-10        -10.056064        -23.154944
 Total V=0       0.217160D+13         12.336780         28.406486
 Vib (Bot)       0.125618D-21        -21.900950        -50.428800
 Vib (Bot)    1  0.171239D+01          0.233601          0.537887
 Vib (Bot)    2  0.425682D+00         -0.370915         -0.854062
 Vib (Bot)    3  0.268159D+00         -0.571608         -1.316176
 Vib (Bot)    4  0.250496D+00         -0.601199         -1.384312
 Vib (V=0)       0.310381D+01          0.491895          1.132630
 Vib (V=0)    1  0.228389D+01          0.358675          0.825880
 Vib (V=0)    2  0.115666D+01          0.063207          0.145538
 Vib (V=0)    3  0.106737D+01          0.028315          0.065198
 Vib (V=0)    4  0.105924D+01          0.024994          0.057551
 Electronic      0.100000D+01          0.000000          0.000000
 Translational   0.191964D+08          7.283219         16.770232
 Rotational      0.364474D+05          4.561666         10.503625
 ***** Axes restored to original set *****
 -------------------------------------------------------------------
 Center     Atomic                   Forces (Hartrees/Bohr)
 Number     Number              X              Y              Z
 -------------------------------------------------------------------
      1        6          -0.000021992   -0.000012615    0.000001464
      2        1          -0.000000126    0.000007215    0.000005770
      3        1           0.000006037    0.000002889    0.000000082
      4        1           0.000000445    0.000007297   -0.000005885
      5        6           0.000007511   -0.000026341   -0.000003957
      6        8           0.000023766    0.000016280    0.000001392
      7        9          -0.000015641    0.000005275    0.000001133
 -------------------------------------------------------------------
 Cartesian Forces:  Max     0.000026341 RMS     0.000011411
 FormGI is forming the generalized inverse of G from B-inverse, IUseBI=4.

 GradGradGradGradGradGradGradGradGradGradGradGradGradGradGradGradGradGrad
 Berny optimization.
 Internal  Forces:  Max     0.000029438 RMS     0.000009033
 Search for a local minimum.
 Step number   1 out of a maximum of    2
 All quantities printed in internal units (Hartrees-Bohrs-Radians)
 Second derivative matrix not updated -- analytic derivatives used.
 ITU=  0
     Eigenvalues ---    0.00097   0.05057   0.05500   0.05683   0.12436
     Eigenvalues ---    0.12795   0.14036   0.17958   0.25035   0.32754
     Eigenvalues ---    0.33773   0.34036   0.34425   0.35396   0.96331
 Angle between quadratic step and forces=  52.42 degrees.
 Linear search not attempted -- first point.
 Iteration  1 RMS(Cart)=  0.00004209 RMS(Int)=  0.00000000
 Iteration  2 RMS(Cart)=  0.00000000 RMS(Int)=  0.00000000
 Variable       Old X    -DE/DX   Delta X   Delta X   Delta X     New X
                                 (Linear)    (Quad)   (Total)
    R1        2.05972   0.00000   0.00000   0.00000   0.00000   2.05972
    R2        2.05057   0.00000   0.00000   0.00000   0.00000   2.05057
    R3        2.05972   0.00000   0.00000   0.00000   0.00000   2.05972
    R4        2.82151  -0.00002   0.00000  -0.00007  -0.00007   2.82144
    R5        2.23309  -0.00003   0.00000  -0.00003  -0.00003   2.23306
    R6        2.58278   0.00001   0.00000   0.00005   0.00005   2.58284
    A1        1.92473   0.00000   0.00000   0.00001   0.00001   1.92473
    A2        1.87371  -0.00001   0.00000  -0.00011  -0.00011   1.87360
    A3        1.91106   0.00000   0.00000   0.00003   0.00003   1.91109
    A4        1.92472   0.00000   0.00000   0.00001   0.00001   1.92473
    A5        1.91802   0.00000   0.00000   0.00003   0.00003   1.91805
    A6        1.91105   0.00000   0.00000   0.00003   0.00003   1.91109
    A7        2.26156  -0.00001   0.00000  -0.00003  -0.00003   2.26152
    A8        1.92724   0.00001   0.00000   0.00005   0.00005   1.92729
    A9        2.09438   0.00000   0.00000  -0.00001  -0.00001   2.09437
    D1        2.11664   0.00000   0.00000   0.00002   0.00002   2.11667
    D2       -1.02492   0.00000   0.00000   0.00000   0.00000  -1.02493
    D3        0.00002   0.00000   0.00000  -0.00002  -0.00002   0.00000
    D4       -3.14154   0.00000   0.00000  -0.00005  -0.00005  -3.14159
    D5       -2.11659   0.00000   0.00000  -0.00008  -0.00008  -2.11666
    D6        1.02503   0.00000   0.00000  -0.00010  -0.00010   1.02493
         Item               Value     Threshold  Converged?
 Maximum Force            0.000029     0.000450     YES
 RMS     Force            0.000009     0.000300     YES
 Maximum Displacement     0.000086     0.001800     YES
 RMS     Displacement     0.000042     0.001200     YES
 Predicted change in Energy=-2.704036D-09
 Optimization completed.
    -- Stationary point found.
                           ----------------------------
                           !   Optimized Parameters   !
                           ! (Angstroms and Degrees)  !
 --------------------------                            --------------------------
 ! Name  Definition              Value          Derivative Info.                !
 --------------------------------------------------------------------------------
 ! R1    R(1,2)                  1.09           -DE/DX =    0.0                 !
 ! R2    R(1,3)                  1.0851         -DE/DX =    0.0                 !
 ! R3    R(1,4)                  1.09           -DE/DX =    0.0                 !
 ! R4    R(1,5)                  1.4931         -DE/DX =    0.0                 !
 ! R5    R(5,6)                  1.1817         -DE/DX =    0.0                 !
 ! R6    R(5,7)                  1.3668         -DE/DX =    0.0                 !
 ! A1    A(2,1,3)              110.2787         -DE/DX =    0.0                 !
 ! A2    A(2,1,4)              107.3558         -DE/DX =    0.0                 !
 ! A3    A(2,1,5)              109.4958         -DE/DX =    0.0                 !
 ! A4    A(3,1,4)              110.2784         -DE/DX =    0.0                 !
 ! A5    A(3,1,5)              109.8947         -DE/DX =    0.0                 !
 ! A6    A(4,1,5)              109.4954         -DE/DX =    0.0                 !
 ! A7    A(1,5,6)              129.5776         -DE/DX =    0.0                 !
 ! A8    A(1,5,7)              110.423          -DE/DX =    0.0                 !
 ! A9    A(6,5,7)              119.9994         -DE/DX =    0.0                 !
 ! D1    D(2,1,5,6)            121.2747         -DE/DX =    0.0                 !
 ! D2    D(2,1,5,7)            -58.7237         -DE/DX =    0.0                 !
 ! D3    D(3,1,5,6)              0.0013         -DE/DX =    0.0                 !
 ! D4    D(3,1,5,7)           -179.9972         -DE/DX =    0.0                 !
 ! D5    D(4,1,5,6)           -121.2716         -DE/DX =    0.0                 !
 ! D6    D(4,1,5,7)             58.7299         -DE/DX =    0.0                 !
 --------------------------------------------------------------------------------
 GradGradGradGradGradGradGradGradGradGradGradGradGradGradGradGradGradGrad

 1\1\GINC-CNODE-5-79\Freq\RB3LYP\GenECP\C2H3F1O1\MLAWAL\27-Mar-2015\0\\
 #N Geom=AllCheck Guess=TCheck SCRF=Check GenChk RB3LYP/GenECP Freq\\ge
 n calculation FAc-C H O=aug-cc-pvtz/F=def2tzvp\\0,1\C,1.3909145537,-0.
 0420581139,0.0000002851\H,1.7183630817,0.514396934,-0.8781459369\H,1.8
 272574695,-1.0355749808,-0.0000568475\H,1.7183699308,0.5142935857,0.87
 82101855\C,-0.0988550721,-0.141425044,0.0000059535\O,-0.789457282,-1.1
 003199911,-0.0000208156\F,-0.6599646816,1.1048346101,0.0000151758\\Ver
 sion=EM64L-G09RevD.01\State=1-A\HF=-253.2075938\RMSD=1.884e-09\RMSF=1.
 141e-05\ZeroPoint=0.0486836\Thermal=0.0530193\Dipole=1.1604389,0.26122
 92,0.0000143\DipoleDeriv=-0.2834277,-0.043688,-0.000003,-0.1253535,-0.
 0050393,-0.0000018,-0.000003,0.000015,0.0513813,0.049713,-0.0088483,0.
 0025882,0.0097335,0.0707526,0.0580326,0.0335135,0.0604584,0.0120647,0.
 0382009,0.0184909,-0.0000001,0.056005,-0.0260141,-0.0000081,0.0000068,
 -0.0000061,0.0908927,0.0497132,-0.0088553,-0.0025866,0.0097322,0.07075
 69,-0.0580228,-0.0335159,-0.0604697,0.0120551,1.4691607,0.0330175,0.00
 00001,-0.0311316,1.8977261,0.0000162,0.0000026,0.0000203,0.3198252,-0.
 7800473,-0.3856494,-0.000004,-0.1892901,-0.9128325,-0.0000083,-0.00000
 59,-0.0000142,-0.3185977,-0.5433126,0.3955325,0.0000055,0.2703046,-1.0
 953497,-0.0000078,0.0000018,-0.0000037,-0.1676213\Polar=33.3419789,2.1
 810583,32.4126648,0.0001544,0.0001799,23.7699518\PG=C01 [X(C2H3F1O1)]\
 NImag=0\\0.48123860,-0.02407846,0.60526146,-0.00000176,0.00000058,0.53
 017798,-0.06982770,-0.03678675,0.06677727,0.07529647,-0.03691269,-0.11
 374824,0.11278821,0.04472983,0.12034888,0.06596481,0.11169115,-0.21620
 047,-0.07130050,-0.12194532,0.23496471,-0.09164136,0.09527691,0.000005
 72,0.00432308,-0.00999558,-0.00179333,0.09971647,0.10329832,-0.2822509
 8,-0.00001296,0.00531840,-0.01190967,-0.00130345,-0.10994057,0.3014714
 2,0.00000639,-0.00001325,-0.04804932,-0.01199952,0.02287024,0.00155424
 ,-0.00000642,0.00001462,0.04579729,-0.06982881,-0.03678006,-0.06678314
 ,0.00344532,0.00606342,0.00837423,0.00432334,0.00531699,0.01200013,0.0
 7529771,-0.03690568,-0.11372069,-0.11277504,0.00606464,0.00857300,0.01
 354825,-0.00999594,-0.01190756,-0.02287185,0.04472257,0.12031948,-0.06
 596985,-0.11167779,-0.21622499,-0.00837372,-0.01354483,-0.02113333,0.0
 0179236,0.00130144,0.00155157,0.07130722,0.12193085,0.23499156,-0.2023
 7501,-0.00037377,0.00000242,-0.00861494,-0.00411818,0.00034263,-0.0109
 8138,-0.00220777,-0.00000040,-0.00861538,-0.00411837,-0.00034376,0.750
 88591,-0.00150577,-0.07233487,0.00000091,-0.02083683,-0.00466456,0.000
 67147,0.03334800,0.00063024,-0.00000007,-0.02083332,-0.00466435,-0.000
 67206,0.30312058,0.76967525,-0.00000034,0.00000050,-0.09395512,0.03336
 665,0.00003649,0.00130836,0.00000204,0.00000038,-0.00314300,-0.0333690
 8,-0.00003716,0.00130879,0.00000989,0.00001358,0.22439792,-0.02452572,
 -0.04133603,-0.00000135,-0.00538327,-0.00089171,-0.00164733,0.00304307
 ,-0.00049967,0.00000007,-0.00538297,-0.00089194,0.00164731,-0.39089243
 ,-0.34309530,-0.00000959,0.38533839,-0.01641313,-0.00727925,-0.0000014
 1,-0.00005390,0.00178213,-0.00148317,-0.00179447,0.00146186,0.00000020
 ,-0.00005429,0.00178181,0.00148347,-0.36886870,-0.54602190,-0.00001301
 ,0.39773669,0.66038941,0.00000010,-0.00000121,0.02964249,-0.00519317,-
 0.00008639,-0.00101666,-0.00000027,0.00000011,-0.00032331,0.00519336,0
 .00008682,-0.00101672,-0.00001079,-0.00001307,-0.07564670,0.00001082,0
 .00001599,0.02817541,-0.02304000,0.04407815,0.00000084,0.00076105,0.00
 112491,0.00005949,-0.00878322,-0.00128571,-0.00000026,0.00076079,0.001
 12471,-0.00005956,-0.12940677,0.04980263,0.00000044,0.03780295,-0.0105
 5219,-0.00000005,0.12190519,0.01251740,-0.01592743,-0.00000029,0.00156
 462,-0.00038154,-0.00117893,0.00310165,0.00250469,0.00000010,0.0015646
 9,-0.00038170,0.00117893,0.07656620,-0.14261981,-0.00000078,-0.0110220
 4,-0.11211407,-0.00000224,-0.08429252,0.26891986,0.00000064,0.00000002
 ,0.01460942,-0.00327701,-0.00011840,0.00052315,-0.00000010,-0.00000014
 ,0.00261254,0.00327728,0.00011813,0.00052313,0.,-0.00000075,-0.0542702
 5,0.00000006,-0.00000206,0.02018549,-0.00000089,0.00000321,0.01581652\
 \0.00002199,0.00001261,-0.00000146,0.00000013,-0.00000721,-0.00000577,
 -0.00000604,-0.00000289,-0.00000008,-0.00000044,-0.00000730,0.00000588
 ,-0.00000751,0.00002634,0.00000396,-0.00002377,-0.00001628,-0.00000139
 ,0.00001564,-0.00000528,-0.00000113\\\@


  DISAPPOINTMENT IS THE NURSE OF WISDOM.               
                              SIR BOYLE ROCHE                 
 Job cpu time:       0 days  0 hours 38 minutes 10.5 seconds.
 File lengths (MBytes):  RWF=     43 Int=      0 D2E=      0 Chk=      5 Scr=      1
 Normal termination of Gaussian 09 at Fri Mar 27 11:50:50 2015.
