 Entering Link 1 = C:\G09W\l1.exe PID=      3756.
  
 Copyright (c) 1988,1990,1992,1993,1995,1998,2003,2009, Gaussian, Inc.
                  All Rights Reserved.
  
 This is part of the Gaussian(R) 09 program.  It is based on
 the Gaussian(R) 03 system (copyright 2003, Gaussian, Inc.),
 the Gaussian(R) 98 system (copyright 1998, Gaussian, Inc.),
 the Gaussian(R) 94 system (copyright 1995, Gaussian, Inc.),
 the Gaussian 92(TM) system (copyright 1992, Gaussian, Inc.),
 the Gaussian 90(TM) system (copyright 1990, Gaussian, Inc.),
 the Gaussian 88(TM) system (copyright 1988, Gaussian, Inc.),
 the Gaussian 86(TM) system (copyright 1986, Carnegie Mellon
 University), and the Gaussian 82(TM) system (copyright 1983,
 Carnegie Mellon University). Gaussian is a federally registered
 trademark of Gaussian, Inc.
  
 This software contains proprietary and confidential information,
 including trade secrets, belonging to Gaussian, Inc.
  
 This software is provided under written license and may be
 used, copied, transmitted, or stored only in accord with that
 written license.
  
 The following legend is applicable only to US Government
 contracts under FAR:
  
                    RESTRICTED RIGHTS LEGEND
  
 Use, reproduction and disclosure by the US Government is
 subject to restrictions as set forth in subparagraphs (a)
 and (c) of the Commercial Computer Software - Restricted
 Rights clause in FAR 52.227-19.
  
 Gaussian, Inc.
 340 Quinnipiac St., Bldg. 40, Wallingford CT 06492
  
  
 ---------------------------------------------------------------
 Warning -- This program may not be used in any manner that
 competes with the business of Gaussian, Inc. or will provide
 assistance to any competitor of Gaussian, Inc.  The licensee
 of this program is prohibited from giving any competitor of
 Gaussian, Inc. access to this program.  By using this program,
 the user acknowledges that Gaussian, Inc. is engaged in the
 business of creating and licensing software in the field of
 computational chemistry and represents and warrants to the
 licensee that it is not a competitor of Gaussian, Inc. and that
 it will not use this program in any manner prohibited above.
 ---------------------------------------------------------------
  

 Cite this work as:
 Gaussian 09, Revision A.02,
 M. J. Frisch, G. W. Trucks, H. B. Schlegel, G. E. Scuseria, 
 M. A. Robb, J. R. Cheeseman, G. Scalmani, V. Barone, B. Mennucci, 
 G. A. Petersson, H. Nakatsuji, M. Caricato, X. Li, H. P. Hratchian, 
 A. F. Izmaylov, J. Bloino, G. Zheng, J. L. Sonnenberg, M. Hada, 
 M. Ehara, K. Toyota, R. Fukuda, J. Hasegawa, M. Ishida, T. Nakajima, 
 Y. Honda, O. Kitao, H. Nakai, T. Vreven, J. A. Montgomery, Jr., 
 J. E. Peralta, F. Ogliaro, M. Bearpark, J. J. Heyd, E. Brothers, 
 K. N. Kudin, V. N. Staroverov, R. Kobayashi, J. Normand, 
 K. Raghavachari, A. Rendell, J. C. Burant, S. S. Iyengar, J. Tomasi, 
 M. Cossi, N. Rega, J. M. Millam, M. Klene, J. E. Knox, J. B. Cross, 
 V. Bakken, C. Adamo, J. Jaramillo, R. Gomperts, R. E. Stratmann, 
 O. Yazyev, A. J. Austin, R. Cammi, C. Pomelli, J. W. Ochterski, 
 R. L. Martin, K. Morokuma, V. G. Zakrzewski, G. A. Voth, 
 P. Salvador, J. J. Dannenberg, S. Dapprich, A. D. Daniels, 
 O. Farkas, J. B. Foresman, J. V. Ortiz, J. Cioslowski, 
 and D. J. Fox, Gaussian, Inc., Wallingford CT, 2009.
 
 ******************************************
 Gaussian 09:  IA32W-G09RevA.02 11-Jun-2009
                25-Feb-2015 
 ******************************************
 %chk=C:\Users\214584429\Dropbox\Ester(COOH)\FAC631.chk
 --------------------------------------------
 # opt freq b3lyp/6-31+g(d) geom=connectivity
 --------------------------------------------
 1/14=-1,18=20,19=15,26=3,38=1,57=2/1,3;
 2/9=110,12=2,17=6,18=5,40=1/2;
 3/5=1,6=6,7=11,11=2,16=1,25=1,30=1,71=1,74=-5/1,2,3;
 4//1;
 5/5=2,38=5/2;
 6/7=2,8=2,9=2,10=2,28=1/1;
 7//1,2,3,16;
 1/14=-1,18=20,19=15/3(2);
 2/9=110/2;
 99//99;
 2/9=110/2;
 3/5=1,6=6,7=11,11=2,16=1,25=1,30=1,71=1,74=-5/1,2,3;
 4/5=5,16=3/1;
 5/5=2,38=5/2;
 7//1,2,3,16;
 1/14=-1,18=20,19=15/3(-5);
 2/9=110/2;
 6/7=2,8=2,9=2,10=2,19=2,28=1/1;
 99/9=1/99;
 -------------------
 Title Card Required
 -------------------
 Symbolic Z-matrix:
 Charge =  0 Multiplicity = 1
 C                     1.37869  -0.03125   0. 
 H                     1.7614    0.50902  -0.88336 
 H                     1.84595  -1.03091  -0.00007 
 H                     1.76139   0.50889   0.88344 
 C                    -0.09921  -0.13237  0. 
 O                    -0.82872  -1.07777   0. 
 F                    -0.71287   1.06854   0. 
 

 GradGradGradGradGradGradGradGradGradGradGradGradGradGradGradGradGradGrad
 Berny optimization.
 Initialization pass.
                           ----------------------------
                           !    Initial Parameters    !
                           ! (Angstroms and Degrees)  !
 --------------------------                            --------------------------
 ! Name  Definition              Value          Derivative Info.                !
 --------------------------------------------------------------------------------
 ! R1    R(1,2)                  1.1039         estimate D2E/DX2                !
 ! R2    R(1,3)                  1.1035         estimate D2E/DX2                !
 ! R3    R(1,4)                  1.1039         estimate D2E/DX2                !
 ! R4    R(1,5)                  1.4814         estimate D2E/DX2                !
 ! R5    R(5,6)                  1.1941         estimate D2E/DX2                !
 ! R6    R(5,7)                  1.3486         estimate D2E/DX2                !
 ! A1    A(2,1,3)              107.2481         estimate D2E/DX2                !
 ! A2    A(2,1,4)              106.3041         estimate D2E/DX2                !
 ! A3    A(2,1,5)              112.2884         estimate D2E/DX2                !
 ! A4    A(3,1,4)              107.2479         estimate D2E/DX2                !
 ! A5    A(3,1,5)              111.1378         estimate D2E/DX2                !
 ! A6    A(4,1,5)              112.288          estimate D2E/DX2                !
 ! A7    A(1,5,6)              131.57           estimate D2E/DX2                !
 ! A8    A(1,5,7)              113.1526         estimate D2E/DX2                !
 ! A9    A(6,5,7)              115.2773         estimate D2E/DX2                !
 ! D1    D(2,1,5,6)            120.1395         estimate D2E/DX2                !
 ! D2    D(2,1,5,7)            -59.861          estimate D2E/DX2                !
 ! D3    D(3,1,5,6)              0.0042         estimate D2E/DX2                !
 ! D4    D(3,1,5,7)           -179.9964         estimate D2E/DX2                !
 ! D5    D(4,1,5,6)           -120.1306         estimate D2E/DX2                !
 ! D6    D(4,1,5,7)             59.8688         estimate D2E/DX2                !
 --------------------------------------------------------------------------------
 Trust Radius=3.00D-01 FncErr=1.00D-07 GrdErr=1.00D-06
 Number of steps in this run=  31 maximum allowed number of steps= 100.
 GradGradGradGradGradGradGradGradGradGradGradGradGradGradGradGradGradGrad

                          Input orientation:                          
 ---------------------------------------------------------------------
 Center     Atomic      Atomic             Coordinates (Angstroms)
 Number     Number       Type             X           Y           Z
 ---------------------------------------------------------------------
      1          6           0        1.378693   -0.031247    0.000000
      2          1           0        1.761395    0.509015   -0.883364
      3          1           0        1.845953   -1.030909   -0.000068
      4          1           0        1.761393    0.508889    0.883441
      5          6           0       -0.099208   -0.132373   -0.000003
      6          8           0       -0.828724   -1.077768    0.000001
      7          9           0       -0.712874    1.068540    0.000001
 ---------------------------------------------------------------------
                    Distance matrix (angstroms):
                    1          2          3          4          5
     1  C    0.000000
     2  H    1.103937   0.000000
     3  H    1.103475   1.777281   0.000000
     4  H    1.103936   1.766805   1.777278   0.000000
     5  C    1.481357   2.157209   2.142666   2.157203   0.000000
     6  O    2.442928   3.163373   2.675087   3.163329   1.194138
     7  F    2.363088   2.686151   3.309876   2.686200   1.348621
                    6          7
     6  O    0.000000
     7  F    2.149432   0.000000
 Stoichiometry    C2H3FO
 Framework group  C1[X(C2H3FO)]
 Deg. of freedom    15
 Full point group                 C1      NOp   1
 Largest Abelian subgroup         C1      NOp   1
 Largest concise Abelian subgroup C1      NOp   1
                         Standard orientation:                         
 ---------------------------------------------------------------------
 Center     Atomic      Atomic             Coordinates (Angstroms)
 Number     Number       Type             X           Y           Z
 ---------------------------------------------------------------------
      1          6           0        1.378693   -0.031247    0.000000
      2          1           0        1.761395    0.509015   -0.883364
      3          1           0        1.845953   -1.030909   -0.000068
      4          1           0        1.761393    0.508889    0.883441
      5          6           0       -0.099208   -0.132373   -0.000003
      6          8           0       -0.828724   -1.077767    0.000000
      7          9           0       -0.712873    1.068541    0.000000
 ---------------------------------------------------------------------
 Rotational constants (GHZ):     11.5880396      9.3123761      5.3346202
 Standard basis: 6-31+G(d) (6D, 7F)
 There are    82 symmetry adapted basis functions of A   symmetry.
 Integral buffers will be    262144 words long.
 Raffenetti 2 integral format.
 Two-electron integral symmetry is turned on.
    82 basis functions,   140 primitive gaussians,    82 cartesian basis functions
    16 alpha electrons       16 beta electrons
       nuclear repulsion energy       118.7299102007 Hartrees.
 NAtoms=    7 NActive=    7 NUniq=    7 SFac= 7.50D-01 NAtFMM=   80 NAOKFM=F Big=F
 One-electron integrals computed using PRISM.
 NBasis=    82 RedAO= T  NBF=    82
 NBsUse=    82 1.00D-06 NBFU=    82
 Harris functional with IExCor=  402 diagonalized for initial guess.
 ExpMin= 4.38D-02 ExpMax= 7.00D+03 ExpMxC= 1.05D+03 IAcc=2 IRadAn=         0 AccDes= 0.00D+00
 HarFok:  IExCor=  402 AccDes= 0.00D+00 IRadAn=         0 IDoV= 1
 ScaDFX=  1.000000  1.000000  1.000000  1.000000
 FoFCou: FMM=F IPFlag=           0 FMFlag=      100000 FMFlg1=           0
         NFxFlg=           0 DoJE=T BraDBF=F KetDBF=T FulRan=T
         Omega=  0.000000  0.000000  1.000000  0.000000  0.000000 ICntrl=     500 IOpCl=  0
         NMat0=    1 NMatS0=    1 NMatT0=    0 NMatD0=    1 NMtDS0=    0 NMtDT0=    0
         I1Cent=           4 NGrid=           0.
 Petite list used in FoFCou.
 Initial guess orbital symmetries:
       Occupied  (A) (A) (A) (A) (A) (A) (A) (A) (A) (A) (A) (A)
                 (A) (A) (A) (A)
       Virtual   (A) (A) (A) (A) (A) (A) (A) (A) (A) (A) (A) (A)
                 (A) (A) (A) (A) (A) (A) (A) (A) (A) (A) (A) (A)
                 (A) (A) (A) (A) (A) (A) (A) (A) (A) (A) (A) (A)
                 (A) (A) (A) (A) (A) (A) (A) (A) (A) (A) (A) (A)
                 (A) (A) (A) (A) (A) (A) (A) (A) (A) (A) (A) (A)
                 (A) (A) (A) (A) (A) (A)
 The electronic state of the initial guess is 1-A.
 Requested convergence on RMS density matrix=1.00D-08 within 128 cycles.
 Requested convergence on MAX density matrix=1.00D-06.
 Requested convergence on             energy=1.00D-06.
 No special actions if energy rises.
 Keep R1 ints in memory in canonical form, NReq=6787651.
 SCF Done:  E(RB3LYP) =  -253.107019672     A.U. after   11 cycles
             Convg  =    0.7959D-08             -V/T =  2.0086

 **********************************************************************

            Population analysis using the SCF density.

 **********************************************************************

 Orbital symmetries:
       Occupied  (A) (A) (A) (A) (A) (A) (A) (A) (A) (A) (A) (A)
                 (A) (A) (A) (A)
       Virtual   (A) (A) (A) (A) (A) (A) (A) (A) (A) (A) (A) (A)
                 (A) (A) (A) (A) (A) (A) (A) (A) (A) (A) (A) (A)
                 (A) (A) (A) (A) (A) (A) (A) (A) (A) (A) (A) (A)
                 (A) (A) (A) (A) (A) (A) (A) (A) (A) (A) (A) (A)
                 (A) (A) (A) (A) (A) (A) (A) (A) (A) (A) (A) (A)
                 (A) (A) (A) (A) (A) (A)
 The electronic state is 1-A.
 Alpha  occ. eigenvalues --  -24.74131 -19.18261 -10.37190 -10.23510  -1.26120
 Alpha  occ. eigenvalues --   -1.08164  -0.79167  -0.62510  -0.53710  -0.51997
 Alpha  occ. eigenvalues --   -0.50430  -0.44107  -0.43999  -0.41167  -0.38016
 Alpha  occ. eigenvalues --   -0.32005
 Alpha virt. eigenvalues --   -0.03487  -0.00511   0.03599   0.04441   0.04570
 Alpha virt. eigenvalues --    0.07348   0.07775   0.08720   0.12598   0.13929
 Alpha virt. eigenvalues --    0.15822   0.19618   0.21881   0.24547   0.24667
 Alpha virt. eigenvalues --    0.26347   0.28100   0.30953   0.31087   0.33601
 Alpha virt. eigenvalues --    0.34650   0.37430   0.48685   0.61991   0.62214
 Alpha virt. eigenvalues --    0.67004   0.70078   0.77166   0.78358   0.88437
 Alpha virt. eigenvalues --    0.95002   1.03319   1.06304   1.18256   1.20100
 Alpha virt. eigenvalues --    1.26562   1.33190   1.33298   1.38554   1.56388
 Alpha virt. eigenvalues --    1.57286   1.60000   1.63981   1.69565   1.75534
 Alpha virt. eigenvalues --    1.75855   1.82086   1.82563   1.87064   1.94972
 Alpha virt. eigenvalues --    2.00826   2.05320   2.11260   2.18496   2.21401
 Alpha virt. eigenvalues --    2.39005   2.48817   2.62697   2.75172   2.99136
 Alpha virt. eigenvalues --    3.10626   3.15775   4.16218   4.21832   4.51243
 Alpha virt. eigenvalues --    5.39969
          Condensed to atoms (all electrons):
              1          2          3          4          5          6
     1  C    5.670384   0.367529   0.400472   0.367521   0.152928  -0.083451
     2  H    0.367529   0.461071  -0.023971  -0.023141  -0.028759   0.001081
     3  H    0.400472  -0.023971   0.456806  -0.023970  -0.063209  -0.000238
     4  H    0.367521  -0.023141  -0.023970   0.461069  -0.028750   0.001080
     5  C    0.152928  -0.028759  -0.063209  -0.028750   4.698489   0.486680
     6  O   -0.083451   0.001081  -0.000238   0.001080   0.486680   8.097940
     7  F   -0.147771  -0.000789   0.006120  -0.000789   0.140823  -0.107150
              7
     1  C   -0.147771
     2  H   -0.000789
     3  H    0.006120
     4  H   -0.000789
     5  C    0.140823
     6  O   -0.107150
     7  F    9.369751
 Mulliken atomic charges:
              1
     1  C   -0.727612
     2  H    0.246979
     3  H    0.247991
     4  H    0.246981
     5  C    0.641799
     6  O   -0.395941
     7  F   -0.260195
 Sum of Mulliken atomic charges =   0.00000
 Mulliken charges with hydrogens summed into heavy atoms:
              1
     1  C    0.014338
     5  C    0.641799
     6  O   -0.395941
     7  F   -0.260195
 Sum of Mulliken charges with hydrogens summed into heavy atoms =   0.00000
 Electronic spatial extent (au):  <R**2>=            244.7686
 Charge=              0.0000 electrons
 Dipole moment (field-independent basis, Debye):
    X=              3.2938    Y=              0.7605    Z=              0.0000  Tot=              3.3805
 Quadrupole moment (field-independent basis, Debye-Ang):
   XX=            -22.3172   YY=            -26.1284   ZZ=            -21.5686
   XY=             -0.8767   XZ=              0.0000   YZ=              0.0000
 Traceless Quadrupole moment (field-independent basis, Debye-Ang):
   XX=              1.0209   YY=             -2.7903   ZZ=              1.7695
   XY=             -0.8767   XZ=              0.0000   YZ=              0.0000
 Octapole moment (field-independent basis, Debye-Ang**2):
  XXX=             -1.1370  YYY=              5.5739  ZZZ=              0.0002  XYY=              1.4439
  XXY=              2.3532  XXZ=              0.0000  XZZ=             -1.3564  YZZ=              2.1689
  YYZ=             -0.0001  XYZ=              0.0000
 Hexadecapole moment (field-independent basis, Debye-Ang**3):
 XXXX=           -157.5984 YYYY=           -107.0684 ZZZZ=            -25.6049 XXXY=             -4.3239
 XXXZ=              0.0000 YYYX=             -5.8445 YYYZ=              0.0000 ZZZX=              0.0003
 ZZZY=              0.0000 XXYY=            -43.0779 XXZZ=            -29.1061 YYZZ=            -21.3098
 XXYZ=              0.0000 YYXZ=             -0.0003 ZZXY=              0.5938
 N-N= 1.187299102007D+02 E-N=-8.329589517710D+02  KE= 2.509462589539D+02
 Calling FoFJK, ICntrl=      2127 FMM=F ISym2X=0 I1Cent= 0 IOpClX= 0 NMat=1 NMatS=1 NMatT=0.
 ***** Axes restored to original set *****
 -------------------------------------------------------------------
 Center     Atomic                   Forces (Hartrees/Bohr)
 Number     Number              X              Y              Z
 -------------------------------------------------------------------
      1        6           0.024530917   -0.004824221   -0.000001650
      2        1          -0.006470242   -0.000464891    0.003279376
      3        1          -0.007018884    0.004655896    0.000000536
      4        1          -0.006469856   -0.000463913   -0.003278551
      5        6          -0.020430011   -0.011295730    0.000000664
      6        8           0.011821739   -0.012568804   -0.000000326
      7        9           0.004036339    0.024961663   -0.000000049
 -------------------------------------------------------------------
 Cartesian Forces:  Max     0.024961663 RMS     0.010428264

 GradGradGradGradGradGradGradGradGradGradGradGradGradGradGradGradGradGrad
 Berny optimization.
 Internal  Forces:  Max     0.025517713 RMS     0.008908398
 Search for a local minimum.
 Step number   1 out of a maximum of   31
 All quantities printed in internal units (Hartrees-Bohrs-Radians)
 Mixed Optimization -- RFO/linear search
 Second derivative matrix not updated -- first step.
     Eigenvalues ---    0.01013   0.01013   0.07158   0.07246   0.16000
     Eigenvalues ---    0.16000   0.16000   0.25000   0.25000   0.33250
     Eigenvalues ---    0.33251   0.33301   0.34415   0.55316   1.07825
     Eigenvalues --- 1000.000001000.000001000.000001000.000001000.00000
     Eigenvalues --- 1000.00000
 RFO step:  Lambda=-5.84516352D-03 EMin= 1.01256184D-02
 Linear search not attempted -- first point.
 Iteration  1 RMS(Cart)=  0.04232698 RMS(Int)=  0.00108999
 Iteration  2 RMS(Cart)=  0.00107310 RMS(Int)=  0.00030132
 Iteration  3 RMS(Cart)=  0.00000052 RMS(Int)=  0.00030132
 Variable       Old X    -DE/DX   Delta X   Delta X   Delta X     New X
                                 (Linear)    (Quad)   (Total)
    R1        2.08614  -0.00509   0.00000  -0.01505  -0.01505   2.07109
    R2        2.08526  -0.00719   0.00000  -0.02123  -0.02123   2.06403
    R3        2.08614  -0.00509   0.00000  -0.01505  -0.01505   2.07109
    R4        2.79936   0.00449   0.00000   0.01282   0.01282   2.81218
    R5        2.25659   0.00273   0.00000   0.00252   0.00252   2.25912
    R6        2.54852   0.02038   0.00000   0.03647   0.03647   2.58499
    A1        1.87183   0.00537   0.00000   0.03673   0.03658   1.90841
    A2        1.85536   0.00405   0.00000   0.01585   0.01493   1.87028
    A3        1.95980  -0.00519   0.00000  -0.03365  -0.03419   1.92561
    A4        1.87183   0.00537   0.00000   0.03673   0.03658   1.90841
    A5        1.93972  -0.00326   0.00000  -0.01492  -0.01507   1.92465
    A6        1.95980  -0.00519   0.00000  -0.03365  -0.03420   1.92560
    A7        2.29633  -0.01296   0.00000  -0.05067  -0.05067   2.24566
    A8        1.97489  -0.01255   0.00000  -0.04907  -0.04907   1.92582
    A9        2.01197   0.02552   0.00000   0.09974   0.09974   2.11171
    D1        2.09683   0.00105   0.00000   0.01352   0.01321   2.11004
    D2       -1.04477   0.00105   0.00000   0.01353   0.01322  -1.03155
    D3        0.00007   0.00000   0.00000  -0.00001  -0.00001   0.00006
    D4       -3.14153   0.00000   0.00000   0.00000   0.00000  -3.14153
    D5       -2.09668  -0.00105   0.00000  -0.01354  -0.01323  -2.10990
    D6        1.04491  -0.00105   0.00000  -0.01353  -0.01321   1.03170
         Item               Value     Threshold  Converged?
 Maximum Force            0.025518     0.000450     NO 
 RMS     Force            0.008908     0.000300     NO 
 Maximum Displacement     0.095952     0.001800     NO 
 RMS     Displacement     0.042549     0.001200     NO 
 Predicted change in Energy=-2.988663D-03
 GradGradGradGradGradGradGradGradGradGradGradGradGradGradGradGradGradGrad

                          Input orientation:                          
 ---------------------------------------------------------------------
 Center     Atomic      Atomic             Coordinates (Angstroms)
 Number     Number       Type             X           Y           Z
 ---------------------------------------------------------------------
      1          6           0        1.381230   -0.038227    0.000000
      2          1           0        1.726656    0.513260   -0.881873
      3          1           0        1.825905   -1.035848   -0.000067
      4          1           0        1.726658    0.513137    0.881950
      5          6           0       -0.103726   -0.135558    0.000001
      6          8           0       -0.787997   -1.115826   -0.000003
      7          9           0       -0.662098    1.113209    0.000000
 ---------------------------------------------------------------------
                    Distance matrix (angstroms):
                    1          2          3          4          5
     1  C    0.000000
     2  H    1.095973   0.000000
     3  H    1.092238   1.785265   0.000000
     4  H    1.095974   1.763823   1.785262   0.000000
     5  C    1.488143   2.132830   2.129319   2.132825   0.000000
     6  O    2.422141   3.123315   2.615126   3.123276   1.195472
     7  F    2.345420   2.616063   3.287645   2.616119   1.367917
                    6          7
     6  O    0.000000
     7  F    2.232588   0.000000
 Stoichiometry    C2H3FO
 Framework group  C1[X(C2H3FO)]
 Deg. of freedom    15
 Full point group                 C1      NOp   1
 Largest Abelian subgroup         C1      NOp   1
 Largest concise Abelian subgroup C1      NOp   1
                         Standard orientation:                         
 ---------------------------------------------------------------------
 Center     Atomic      Atomic             Coordinates (Angstroms)
 Number     Number       Type             X           Y           Z
 ---------------------------------------------------------------------
      1          6           0        1.359627   -0.049023    0.000000
      2          1           0        1.708914    0.500026   -0.881873
      3          1           0        1.797289   -1.049741   -0.000067
      4          1           0        1.708915    0.499902    0.881950
      5          6           0       -0.125976   -0.135930    0.000001
      6          8           0       -0.817110   -1.111373   -0.000003
      7          9           0       -0.675571    1.116724    0.000001
 ---------------------------------------------------------------------
 Rotational constants (GHZ):     10.7951598      9.7326303      5.2860502
 Standard basis: 6-31+G(d) (6D, 7F)
 There are    82 symmetry adapted basis functions of A   symmetry.
 Integral buffers will be    262144 words long.
 Raffenetti 2 integral format.
 Two-electron integral symmetry is turned on.
    82 basis functions,   140 primitive gaussians,    82 cartesian basis functions
    16 alpha electrons       16 beta electrons
       nuclear repulsion energy       118.1562268606 Hartrees.
 NAtoms=    7 NActive=    7 NUniq=    7 SFac= 7.50D-01 NAtFMM=   80 NAOKFM=F Big=F
 One-electron integrals computed using PRISM.
 NBasis=    82 RedAO= T  NBF=    82
 NBsUse=    82 1.00D-06 NBFU=    82
 Initial guess read from the read-write file.
 B after Tr=     0.000000    0.000000    0.000000
         Rot=    1.000000    0.000000    0.000000    0.000000 Ang=   0.00 deg.
 Initial guess orbital symmetries:
       Occupied  (A) (A) (A) (A) (A) (A) (A) (A) (A) (A) (A) (A)
                 (A) (A) (A) (A)
       Virtual   (A) (A) (A) (A) (A) (A) (A) (A) (A) (A) (A) (A)
                 (A) (A) (A) (A) (A) (A) (A) (A) (A) (A) (A) (A)
                 (A) (A) (A) (A) (A) (A) (A) (A) (A) (A) (A) (A)
                 (A) (A) (A) (A) (A) (A) (A) (A) (A) (A) (A) (A)
                 (A) (A) (A) (A) (A) (A) (A) (A) (A) (A) (A) (A)
                 (A) (A) (A) (A) (A) (A)
 Harris functional with IExCor=  402 diagonalized for initial guess.
 ExpMin= 4.38D-02 ExpMax= 7.00D+03 ExpMxC= 1.05D+03 IAcc=2 IRadAn=         0 AccDes= 0.00D+00
 HarFok:  IExCor=  402 AccDes= 0.00D+00 IRadAn=         0 IDoV= 1
 ScaDFX=  1.000000  1.000000  1.000000  1.000000
 FoFCou: FMM=F IPFlag=           0 FMFlag=      100000 FMFlg1=           0
         NFxFlg=           0 DoJE=T BraDBF=F KetDBF=T FulRan=T
         Omega=  0.000000  0.000000  1.000000  0.000000  0.000000 ICntrl=     500 IOpCl=  0
         NMat0=    1 NMatS0=    1 NMatT0=    0 NMatD0=    1 NMtDS0=    0 NMtDT0=    0
         I1Cent=           4 NGrid=           0.
 Petite list used in FoFCou.
 Requested convergence on RMS density matrix=1.00D-08 within 128 cycles.
 Requested convergence on MAX density matrix=1.00D-06.
 Requested convergence on             energy=1.00D-06.
 No special actions if energy rises.
 Keep R1 ints in memory in canonical form, NReq=6787505.
 SCF Done:  E(RB3LYP) =  -253.109643138     A.U. after   10 cycles
             Convg  =    0.6361D-08             -V/T =  2.0087
 Calling FoFJK, ICntrl=      2127 FMM=F ISym2X=0 I1Cent= 0 IOpClX= 0 NMat=1 NMatS=1 NMatT=0.
 ***** Axes restored to original set *****
 -------------------------------------------------------------------
 Center     Atomic                   Forces (Hartrees/Bohr)
 Number     Number              X              Y              Z
 -------------------------------------------------------------------
      1        6           0.009196510   -0.000829498    0.000000085
      2        1          -0.001029972    0.000539360    0.000166143
      3        1          -0.001304328    0.000266113    0.000000192
      4        1          -0.001029802    0.000539505   -0.000166010
      5        6          -0.003360136   -0.010539321   -0.000001321
      6        8           0.001350874    0.008748012    0.000000432
      7        9          -0.003823145    0.001275829    0.000000479
 -------------------------------------------------------------------
 Cartesian Forces:  Max     0.010539321 RMS     0.003821985

 GradGradGradGradGradGradGradGradGradGradGradGradGradGradGradGradGradGrad
 Berny optimization.
 Using GEDIIS/GDIIS optimizer.
 Internal  Forces:  Max     0.007942695 RMS     0.002747499
 Search for a local minimum.
 Step number   2 out of a maximum of   31
 All quantities printed in internal units (Hartrees-Bohrs-Radians)
 Mixed Optimization -- RFO/linear search
 Update second derivatives using D2CorX and points    1    2
 DE= -2.62D-03 DEPred=-2.99D-03 R= 8.78D-01
 SS=  1.41D+00  RLast= 1.53D-01 DXNew= 5.0454D-01 4.5980D-01
 Trust test= 8.78D-01 RLast= 1.53D-01 DXMaxT set to 4.60D-01
 Use linear search instead of GDIIS.
     Eigenvalues ---    0.01013   0.01013   0.07458   0.07476   0.14909
     Eigenvalues ---    0.16000   0.16001   0.24975   0.29296   0.32645
     Eigenvalues ---    0.33251   0.33281   0.36360   0.53360   1.09935
     Eigenvalues --- 1000.000001000.000001000.000001000.000001000.00000
     Eigenvalues --- 1000.00000
 RFO step:  Lambda=-3.17497362D-04 EMin= 1.01256184D-02
 Quartic linear search produced a step of -0.07511.
 Iteration  1 RMS(Cart)=  0.00704041 RMS(Int)=  0.00004182
 Iteration  2 RMS(Cart)=  0.00004467 RMS(Int)=  0.00000087
 Iteration  3 RMS(Cart)=  0.00000000 RMS(Int)=  0.00000087
 Variable       Old X    -DE/DX   Delta X   Delta X   Delta X     New X
                                 (Linear)    (Quad)   (Total)
    R1        2.07109  -0.00018   0.00113  -0.00242  -0.00129   2.06980
    R2        2.06403  -0.00078   0.00159  -0.00485  -0.00326   2.06077
    R3        2.07109  -0.00018   0.00113  -0.00242  -0.00129   2.06980
    R4        2.81218   0.00585  -0.00096   0.01734   0.01638   2.82856
    R5        2.25912  -0.00794  -0.00019  -0.00648  -0.00667   2.25244
    R6        2.58499   0.00272  -0.00274   0.00921   0.00648   2.59147
    A1        1.90841   0.00128  -0.00275   0.01306   0.01031   1.91872
    A2        1.87028   0.00058  -0.00112   0.00270   0.00158   1.87186
    A3        1.92561  -0.00109   0.00257  -0.01119  -0.00862   1.91699
    A4        1.90841   0.00128  -0.00275   0.01306   0.01031   1.91872
    A5        1.92465  -0.00088   0.00113  -0.00576  -0.00463   1.92002
    A6        1.92560  -0.00109   0.00257  -0.01119  -0.00862   1.91699
    A7        2.24566   0.00329   0.00381   0.00577   0.00958   2.25524
    A8        1.92582   0.00221   0.00369   0.00197   0.00566   1.93147
    A9        2.11171  -0.00550  -0.00749  -0.00774  -0.01523   2.09647
    D1        2.11004   0.00032  -0.00099   0.00529   0.00429   2.11433
    D2       -1.03155   0.00032  -0.00099   0.00523   0.00424  -1.02732
    D3        0.00006   0.00000   0.00000   0.00002   0.00002   0.00008
    D4       -3.14153   0.00000   0.00000  -0.00004  -0.00004  -3.14156
    D5       -2.10990  -0.00032   0.00099  -0.00524  -0.00425  -2.11415
    D6        1.03170  -0.00032   0.00099  -0.00530  -0.00431   1.02739
         Item               Value     Threshold  Converged?
 Maximum Force            0.007943     0.000450     NO 
 RMS     Force            0.002747     0.000300     NO 
 Maximum Displacement     0.017780     0.001800     NO 
 RMS     Displacement     0.007033     0.001200     NO 
 Predicted change in Energy=-1.765702D-04
 GradGradGradGradGradGradGradGradGradGradGradGradGradGradGradGradGradGrad

                          Input orientation:                          
 ---------------------------------------------------------------------
 Center     Atomic      Atomic             Coordinates (Angstroms)
 Number     Number       Type             X           Y           Z
 ---------------------------------------------------------------------
      1          6           0        1.390639   -0.040666   -0.000004
      2          1           0        1.726756    0.515257   -0.881838
      3          1           0        1.829818   -1.038837   -0.000061
      4          1           0        1.726743    0.515143    0.881909
      5          6           0       -0.102985   -0.138297   -0.000016
      6          8           0       -0.794739   -1.108966   -0.000001
      7          9           0       -0.669604    1.110513    0.000017
 ---------------------------------------------------------------------
                    Distance matrix (angstroms):
                    1          2          3          4          5
     1  C    0.000000
     2  H    1.095289   0.000000
     3  H    1.090515   1.789794   0.000000
     4  H    1.095290   1.763748   1.789790   0.000000
     5  C    1.496811   2.133705   2.132299   2.133701   0.000000
     6  O    2.432518   3.126288   2.625494   3.126239   1.191941
     7  F    2.360045   2.621934   3.296485   2.621961   1.371344
                    6          7
     6  O    0.000000
     7  F    2.223004   0.000000
 Stoichiometry    C2H3FO
 Framework group  C1[X(C2H3FO)]
 Deg. of freedom    15
 Full point group                 C1      NOp   1
 Largest Abelian subgroup         C1      NOp   1
 Largest concise Abelian subgroup C1      NOp   1
                         Standard orientation:                         
 ---------------------------------------------------------------------
 Center     Atomic      Atomic             Coordinates (Angstroms)
 Number     Number       Type             X           Y           Z
 ---------------------------------------------------------------------
      1          6           0        1.371209   -0.038592   -0.000005
      2          1           0        1.705969    0.518150   -0.881839
      3          1           0        1.812822   -1.035688   -0.000062
      4          1           0        1.705956    0.518035    0.881908
      5          6           0       -0.122172   -0.139867   -0.000017
      6          8           0       -0.811556   -1.112221   -0.000002
      7          9           0       -0.691836    1.107558    0.000016
 ---------------------------------------------------------------------
 Rotational constants (GHZ):     10.8770037      9.6060765      5.2677519
 Standard basis: 6-31+G(d) (6D, 7F)
 There are    82 symmetry adapted basis functions of A   symmetry.
 Integral buffers will be    262144 words long.
 Raffenetti 2 integral format.
 Two-electron integral symmetry is turned on.
    82 basis functions,   140 primitive gaussians,    82 cartesian basis functions
    16 alpha electrons       16 beta electrons
       nuclear repulsion energy       118.0286152138 Hartrees.
 NAtoms=    7 NActive=    7 NUniq=    7 SFac= 7.50D-01 NAtFMM=   80 NAOKFM=F Big=F
 One-electron integrals computed using PRISM.
 NBasis=    82 RedAO= T  NBF=    82
 NBsUse=    82 1.00D-06 NBFU=    82
 Initial guess read from the read-write file.
 B after Tr=     0.000000    0.000000    0.000000
         Rot=    1.000000    0.000000    0.000000    0.000000 Ang=   0.00 deg.
 Initial guess orbital symmetries:
       Occupied  (A) (A) (A) (A) (A) (A) (A) (A) (A) (A) (A) (A)
                 (A) (A) (A) (A)
       Virtual   (A) (A) (A) (A) (A) (A) (A) (A) (A) (A) (A) (A)
                 (A) (A) (A) (A) (A) (A) (A) (A) (A) (A) (A) (A)
                 (A) (A) (A) (A) (A) (A) (A) (A) (A) (A) (A) (A)
                 (A) (A) (A) (A) (A) (A) (A) (A) (A) (A) (A) (A)
                 (A) (A) (A) (A) (A) (A) (A) (A) (A) (A) (A) (A)
                 (A) (A) (A) (A) (A) (A)
 Requested convergence on RMS density matrix=1.00D-08 within 128 cycles.
 Requested convergence on MAX density matrix=1.00D-06.
 Requested convergence on             energy=1.00D-06.
 No special actions if energy rises.
 Keep R1 ints in memory in canonical form, NReq=6787505.
 SCF Done:  E(RB3LYP) =  -253.109857331     A.U. after    9 cycles
             Convg  =    0.7387D-08             -V/T =  2.0088
 Calling FoFJK, ICntrl=      2127 FMM=F ISym2X=0 I1Cent= 0 IOpClX= 0 NMat=1 NMatS=1 NMatT=0.
 ***** Axes restored to original set *****
 -------------------------------------------------------------------
 Center     Atomic                   Forces (Hartrees/Bohr)
 Number     Number              X              Y              Z
 -------------------------------------------------------------------
      1        6           0.001630977    0.000644748   -0.000001934
      2        1          -0.000258414    0.000168363   -0.000131812
      3        1          -0.000342214   -0.000295718   -0.000000133
      4        1          -0.000259334    0.000168400    0.000131725
      5        6          -0.000494633   -0.004571935    0.000006074
      6        8           0.000537126    0.002477700   -0.000002334
      7        9          -0.000813509    0.001408442   -0.000001585
 -------------------------------------------------------------------
 Cartesian Forces:  Max     0.004571935 RMS     0.001267283

 GradGradGradGradGradGradGradGradGradGradGradGradGradGradGradGradGradGrad
 Berny optimization.
 Using GEDIIS/GDIIS optimizer.
 Internal  Forces:  Max     0.002324825 RMS     0.000764348
 Search for a local minimum.
 Step number   3 out of a maximum of   31
 All quantities printed in internal units (Hartrees-Bohrs-Radians)
 Mixed Optimization -- En-DIIS/RFO-DIIS
 Update second derivatives using D2CorX and points    1    2    3
 DE= -2.14D-04 DEPred=-1.77D-04 R= 1.21D+00
 SS=  1.41D+00  RLast= 3.44D-02 DXNew= 7.7329D-01 1.0317D-01
 Trust test= 1.21D+00 RLast= 3.44D-02 DXMaxT set to 4.60D-01
 Use linear search instead of GDIIS.
     Eigenvalues ---    0.01013   0.01013   0.07514   0.07589   0.13396
     Eigenvalues ---    0.16000   0.16007   0.24194   0.28762   0.33223
     Eigenvalues ---    0.33251   0.33326   0.34460   0.51918   1.04071
     Eigenvalues --- 1000.000001000.000001000.000001000.000001000.00000
     Eigenvalues --- 1000.00000
 RFO step:  Lambda=-1.66742468D-05 EMin= 1.01256181D-02
 Quartic linear search produced a step of  0.30452.
 Iteration  1 RMS(Cart)=  0.00287457 RMS(Int)=  0.00001627
 Iteration  2 RMS(Cart)=  0.00001308 RMS(Int)=  0.00001090
 Iteration  3 RMS(Cart)=  0.00000000 RMS(Int)=  0.00001090
 Variable       Old X    -DE/DX   Delta X   Delta X   Delta X     New X
                                 (Linear)    (Quad)   (Total)
    R1        2.06980   0.00011  -0.00039   0.00050   0.00010   2.06990
    R2        2.06077   0.00013  -0.00099   0.00093  -0.00006   2.06071
    R3        2.06980   0.00011  -0.00039   0.00049   0.00010   2.06990
    R4        2.82856   0.00082   0.00499  -0.00081   0.00418   2.83274
    R5        2.25244  -0.00232  -0.00203  -0.00105  -0.00308   2.24936
    R6        2.59147   0.00161   0.00197   0.00291   0.00488   2.59634
    A1        1.91872   0.00041   0.00314   0.00176   0.00489   1.92361
    A2        1.87186   0.00025   0.00048   0.00148   0.00193   1.87379
    A3        1.91699  -0.00030  -0.00262  -0.00114  -0.00378   1.91321
    A4        1.91872   0.00041   0.00314   0.00176   0.00489   1.92360
    A5        1.92002  -0.00044  -0.00141  -0.00260  -0.00402   1.91600
    A6        1.91699  -0.00030  -0.00262  -0.00115  -0.00379   1.91319
    A7        2.25524   0.00133   0.00292   0.00369   0.00660   2.26184
    A8        1.93147  -0.00045   0.00172  -0.00472  -0.00300   1.92847
    A9        2.09647  -0.00089  -0.00464   0.00104  -0.00360   2.09287
    D1        2.11433   0.00003   0.00131  -0.00039   0.00091   2.11524
    D2       -1.02732   0.00003   0.00129  -0.00005   0.00123  -1.02608
    D3        0.00008   0.00000   0.00001  -0.00017  -0.00017  -0.00009
    D4       -3.14156   0.00000  -0.00001   0.00017   0.00016  -3.14141
    D5       -2.11415  -0.00003  -0.00129   0.00005  -0.00124  -2.11539
    D6        1.02739  -0.00003  -0.00131   0.00039  -0.00091   1.02648
         Item               Value     Threshold  Converged?
 Maximum Force            0.002325     0.000450     NO 
 RMS     Force            0.000764     0.000300     NO 
 Maximum Displacement     0.005876     0.001800     NO 
 RMS     Displacement     0.002874     0.001200     NO 
 Predicted change in Energy=-1.948295D-05
 GradGradGradGradGradGradGradGradGradGradGradGradGradGradGradGradGradGrad

                          Input orientation:                          
 ---------------------------------------------------------------------
 Center     Atomic      Atomic             Coordinates (Angstroms)
 Number     Number       Type             X           Y           Z
 ---------------------------------------------------------------------
      1          6           0        1.393718   -0.041041    0.000011
      2          1           0        1.724840    0.516907   -0.882501
      3          1           0        1.830600   -1.040185   -0.000080
      4          1           0        1.724906    0.516770    0.882585
      5          6           0       -0.101939   -0.141407    0.000077
      6          8           0       -0.797463   -1.107372   -0.000036
      7          9           0       -0.668034    1.110475   -0.000049
 ---------------------------------------------------------------------
                    Distance matrix (angstroms):
                    1          2          3          4          5
     1  C    0.000000
     2  H    1.095343   0.000000
     3  H    1.090483   1.792871   0.000000
     4  H    1.095343   1.765087   1.792868   0.000000
     5  C    1.499021   2.132942   2.131316   2.132928   0.000000
     6  O    2.436870   3.127145   2.628921   3.127172   1.190311
     7  F    2.361527   2.618566   3.296742   2.618719   1.373926
                    6          7
     6  O    0.000000
     7  F    2.221620   0.000000
 Stoichiometry    C2H3FO
 Framework group  C1[X(C2H3FO)]
 Deg. of freedom    15
 Full point group                 C1      NOp   1
 Largest Abelian subgroup         C1      NOp   1
 Largest concise Abelian subgroup C1      NOp   1
                         Standard orientation:                         
 ---------------------------------------------------------------------
 Center     Atomic      Atomic             Coordinates (Angstroms)
 Number     Number       Type             X           Y           Z
 ---------------------------------------------------------------------
      1          6           0        1.373694   -0.043876    0.000017
      2          1           0        1.705533    0.513646   -0.882495
      3          1           0        1.809289   -1.043581   -0.000074
      4          1           0        1.705600    0.513509    0.882592
      5          6           0       -0.122092   -0.142316    0.000083
      6          8           0       -0.818858   -1.107384   -0.000030
      7          9           0       -0.686574    1.110294   -0.000042
 ---------------------------------------------------------------------
 Rotational constants (GHZ):     10.8834086      9.5849246      5.2631440
 Standard basis: 6-31+G(d) (6D, 7F)
 There are    82 symmetry adapted basis functions of A   symmetry.
 Integral buffers will be    262144 words long.
 Raffenetti 2 integral format.
 Two-electron integral symmetry is turned on.
    82 basis functions,   140 primitive gaussians,    82 cartesian basis functions
    16 alpha electrons       16 beta electrons
       nuclear repulsion energy       117.9862130767 Hartrees.
 NAtoms=    7 NActive=    7 NUniq=    7 SFac= 7.50D-01 NAtFMM=   80 NAOKFM=F Big=F
 One-electron integrals computed using PRISM.
 NBasis=    82 RedAO= T  NBF=    82
 NBsUse=    82 1.00D-06 NBFU=    82
 Initial guess read from the read-write file.
 B after Tr=     0.000000    0.000000    0.000000
         Rot=    1.000000    0.000000    0.000000    0.000000 Ang=   0.00 deg.
 Initial guess orbital symmetries:
       Occupied  (A) (A) (A) (A) (A) (A) (A) (A) (A) (A) (A) (A)
                 (A) (A) (A) (A)
       Virtual   (A) (A) (A) (A) (A) (A) (A) (A) (A) (A) (A) (A)
                 (A) (A) (A) (A) (A) (A) (A) (A) (A) (A) (A) (A)
                 (A) (A) (A) (A) (A) (A) (A) (A) (A) (A) (A) (A)
                 (A) (A) (A) (A) (A) (A) (A) (A) (A) (A) (A) (A)
                 (A) (A) (A) (A) (A) (A) (A) (A) (A) (A) (A) (A)
                 (A) (A) (A) (A) (A) (A)
 Requested convergence on RMS density matrix=1.00D-08 within 128 cycles.
 Requested convergence on MAX density matrix=1.00D-06.
 Requested convergence on             energy=1.00D-06.
 No special actions if energy rises.
 Keep R1 ints in memory in canonical form, NReq=6787505.
 SCF Done:  E(RB3LYP) =  -253.109879664     A.U. after    9 cycles
             Convg  =    0.4394D-08             -V/T =  2.0088
 Calling FoFJK, ICntrl=      2127 FMM=F ISym2X=0 I1Cent= 0 IOpClX= 0 NMat=1 NMatS=1 NMatT=0.
 ***** Axes restored to original set *****
 -------------------------------------------------------------------
 Center     Atomic                   Forces (Hartrees/Bohr)
 Number     Number              X              Y              Z
 -------------------------------------------------------------------
      1        6          -0.000555298    0.000317859    0.000012165
      2        1           0.000048661   -0.000097813   -0.000007348
      3        1           0.000193909   -0.000045395    0.000000915
      4        1           0.000054216   -0.000097496    0.000007221
      5        6           0.000500997   -0.001049056   -0.000036089
      6        8          -0.000012041    0.000120842    0.000013107
      7        9          -0.000230443    0.000851060    0.000010028
 -------------------------------------------------------------------
 Cartesian Forces:  Max     0.001049056 RMS     0.000353144

 GradGradGradGradGradGradGradGradGradGradGradGradGradGradGradGradGradGrad
 Berny optimization.
 Using GEDIIS/GDIIS optimizer.
 Internal  Forces:  Max     0.000864340 RMS     0.000222820
 Search for a local minimum.
 Step number   4 out of a maximum of   31
 All quantities printed in internal units (Hartrees-Bohrs-Radians)
 Mixed Optimization -- En-DIIS/RFO-DIIS
 Swaping is turned off.
 Update second derivatives using D2CorX and points    1    2    3    4
 DE= -2.23D-05 DEPred=-1.95D-05 R= 1.15D+00
 SS=  1.41D+00  RLast= 1.47D-02 DXNew= 7.7329D-01 4.4237D-02
 Trust test= 1.15D+00 RLast= 1.47D-02 DXMaxT set to 4.60D-01
     Eigenvalues ---    0.01013   0.01013   0.07554   0.07657   0.13667
     Eigenvalues ---    0.16000   0.16351   0.21971   0.28768   0.33221
     Eigenvalues ---    0.33251   0.33428   0.34972   0.49307   1.05547
     Eigenvalues --- 1000.000001000.000001000.000001000.000001000.00000
     Eigenvalues --- 1000.00000
 En-DIIS/RFO-DIIS IScMMF=        0 using points:     4    3
 RFO step:  Lambda=-1.68844394D-06.
 DIIS coeffs:      1.07488     -0.07488
 Iteration  1 RMS(Cart)=  0.00089803 RMS(Int)=  0.00000104
 Iteration  2 RMS(Cart)=  0.00000099 RMS(Int)=  0.00000035
 Variable       Old X    -DE/DX   Delta X   Delta X   Delta X     New X
                                  (DIIS)     (GDIIS)  (Total)
    R1        2.06990  -0.00003   0.00001  -0.00013  -0.00012   2.06978
    R2        2.06071   0.00011   0.00000   0.00028   0.00027   2.06099
    R3        2.06990  -0.00002   0.00001  -0.00012  -0.00011   2.06978
    R4        2.83274  -0.00025   0.00031  -0.00053  -0.00021   2.83253
    R5        2.24936  -0.00009  -0.00023  -0.00013  -0.00036   2.24900
    R6        2.59634   0.00086   0.00037   0.00167   0.00204   2.59838
    A1        1.92361  -0.00014   0.00037  -0.00092  -0.00055   1.92305
    A2        1.87379   0.00000   0.00014   0.00021   0.00035   1.87414
    A3        1.91321   0.00003  -0.00028   0.00015  -0.00013   1.91308
    A4        1.92360  -0.00014   0.00037  -0.00093  -0.00056   1.92304
    A5        1.91600   0.00020  -0.00030   0.00125   0.00095   1.91695
    A6        1.91319   0.00004  -0.00028   0.00022  -0.00007   1.91312
    A7        2.26184   0.00021   0.00049   0.00087   0.00136   2.26321
    A8        1.92847  -0.00027  -0.00022  -0.00097  -0.00120   1.92727
    A9        2.09287   0.00006  -0.00027   0.00010  -0.00017   2.09270
    D1        2.11524  -0.00002   0.00007   0.00056   0.00062   2.11586
    D2       -1.02608  -0.00003   0.00009  -0.00110  -0.00101  -1.02709
    D3       -0.00009   0.00001  -0.00001   0.00080   0.00079   0.00071
    D4       -3.14141  -0.00001   0.00001  -0.00085  -0.00084   3.14094
    D5       -2.11539   0.00003  -0.00009   0.00102   0.00093  -2.11446
    D6        1.02648   0.00001  -0.00007  -0.00063  -0.00070   1.02578
         Item               Value     Threshold  Converged?
 Maximum Force            0.000864     0.000450     NO 
 RMS     Force            0.000223     0.000300     YES
 Maximum Displacement     0.002450     0.001800     NO 
 RMS     Displacement     0.000898     0.001200     YES
 Predicted change in Energy=-1.444006D-06
 GradGradGradGradGradGradGradGradGradGradGradGradGradGradGradGradGradGrad

                          Input orientation:                          
 ---------------------------------------------------------------------
 Center     Atomic      Atomic             Coordinates (Angstroms)
 Number     Number       Type             X           Y           Z
 ---------------------------------------------------------------------
      1          6           0        1.393586   -0.041154   -0.000063
      2          1           0        1.724560    0.516701   -0.882611
      3          1           0        1.831896   -1.039829    0.000040
      4          1           0        1.724222    0.516720    0.882603
      5          6           0       -0.101916   -0.142147   -0.000390
      6          8           0       -0.798235   -1.107301    0.000112
      7          9           0       -0.667486    1.111155    0.000317
 ---------------------------------------------------------------------
                    Distance matrix (angstroms):
                    1          2          3          4          5
     1  C    0.000000
     2  H    1.095279   0.000000
     3  H    1.090627   1.792591   0.000000
     4  H    1.095282   1.765214   1.792584   0.000000
     5  C    1.498908   2.132700   2.132009   2.132736   0.000000
     6  O    2.437365   3.127471   2.630996   3.127143   1.190119
     7  F    2.361321   2.618171   3.297521   2.617642   1.375004
                    6          7
     6  O    0.000000
     7  F    2.222305   0.000000
 Stoichiometry    C2H3FO
 Framework group  C1[X(C2H3FO)]
 Deg. of freedom    15
 Full point group                 C1      NOp   1
 Largest Abelian subgroup         C1      NOp   1
 Largest concise Abelian subgroup C1      NOp   1
                         Standard orientation:                         
 ---------------------------------------------------------------------
 Center     Atomic      Atomic             Coordinates (Angstroms)
 Number     Number       Type             X           Y           Z
 ---------------------------------------------------------------------
      1          6           0       -1.373577   -0.045081    0.000096
      2          1           0       -1.705691    0.512096    0.882644
      3          1           0       -1.809843   -1.044651   -0.000007
      4          1           0       -1.705353    0.512116   -0.882570
      5          6           0        0.122129   -0.143015    0.000423
      6          8           0        0.820420   -1.106743   -0.000079
      7          9           0        0.685135    1.111441   -0.000284
 ---------------------------------------------------------------------
 Rotational constants (GHZ):     10.8764058      9.5848270      5.2615014
 Standard basis: 6-31+G(d) (6D, 7F)
 There are    82 symmetry adapted basis functions of A   symmetry.
 Integral buffers will be    262144 words long.
 Raffenetti 2 integral format.
 Two-electron integral symmetry is turned on.
    82 basis functions,   140 primitive gaussians,    82 cartesian basis functions
    16 alpha electrons       16 beta electrons
       nuclear repulsion energy       117.9670909871 Hartrees.
 NAtoms=    7 NActive=    7 NUniq=    7 SFac= 7.50D-01 NAtFMM=   80 NAOKFM=F Big=F
 One-electron integrals computed using PRISM.
 NBasis=    82 RedAO= T  NBF=    82
 NBsUse=    82 1.00D-06 NBFU=    82
 Initial guess read from the read-write file.
 B after Tr=     0.000000    0.000000    0.000000
         Rot=    1.000000    0.000000    0.000000    0.000000 Ang=   0.00 deg.
 Initial guess orbital symmetries:
       Occupied  (A) (A) (A) (A) (A) (A) (A) (A) (A) (A) (A) (A)
                 (A) (A) (A) (A)
       Virtual   (A) (A) (A) (A) (A) (A) (A) (A) (A) (A) (A) (A)
                 (A) (A) (A) (A) (A) (A) (A) (A) (A) (A) (A) (A)
                 (A) (A) (A) (A) (A) (A) (A) (A) (A) (A) (A) (A)
                 (A) (A) (A) (A) (A) (A) (A) (A) (A) (A) (A) (A)
                 (A) (A) (A) (A) (A) (A) (A) (A) (A) (A) (A) (A)
                 (A) (A) (A) (A) (A) (A)
 Requested convergence on RMS density matrix=1.00D-08 within 128 cycles.
 Requested convergence on MAX density matrix=1.00D-06.
 Requested convergence on             energy=1.00D-06.
 No special actions if energy rises.
 Keep R1 ints in memory in canonical form, NReq=6787505.
 SCF Done:  E(RB3LYP) =  -253.109881762     A.U. after   12 cycles
             Convg  =    0.6364D-08             -V/T =  2.0088
 Calling FoFJK, ICntrl=      2127 FMM=F ISym2X=0 I1Cent= 0 IOpClX= 0 NMat=1 NMatS=1 NMatT=0.
 ***** Axes restored to original set *****
 -------------------------------------------------------------------
 Center     Atomic                   Forces (Hartrees/Bohr)
 Number     Number              X              Y              Z
 -------------------------------------------------------------------
      1        6          -0.000428073    0.000113531   -0.000058067
      2        1           0.000062197   -0.000040307   -0.000013930
      3        1           0.000078129   -0.000011512   -0.000004515
      4        1           0.000035515   -0.000041331    0.000013753
      5        6           0.000368696   -0.000404399    0.000175732
      6        8          -0.000031508    0.000006064   -0.000064278
      7        9          -0.000084957    0.000377955   -0.000048695
 -------------------------------------------------------------------
 Cartesian Forces:  Max     0.000428073 RMS     0.000182909

 GradGradGradGradGradGradGradGradGradGradGradGradGradGradGradGradGradGrad
 Berny optimization.
 Using GEDIIS/GDIIS optimizer.
 Internal  Forces:  Max     0.000373431 RMS     0.000111310
 Search for a local minimum.
 Step number   5 out of a maximum of   31
 All quantities printed in internal units (Hartrees-Bohrs-Radians)
 Mixed Optimization -- En-DIIS/RFO-DIIS
 Swaping is turned off.
 Update second derivatives using D2CorX and points    1    2    3    4    5
 DE= -2.10D-06 DEPred=-1.44D-06 R= 1.45D+00
 SS=  1.41D+00  RLast= 3.68D-03 DXNew= 7.7329D-01 1.1030D-02
 Trust test= 1.45D+00 RLast= 3.68D-03 DXMaxT set to 4.60D-01
     Eigenvalues ---    0.01013   0.01207   0.07547   0.07611   0.13668
     Eigenvalues ---    0.14408   0.16207   0.17744   0.28817   0.33147
     Eigenvalues ---    0.33253   0.33428   0.35634   0.38073   1.05844
     Eigenvalues --- 1000.000001000.000001000.000001000.000001000.00000
     Eigenvalues --- 1000.00000
 En-DIIS/RFO-DIIS IScMMF=        0 using points:     5    4    3
 RFO step:  Lambda=-7.28193553D-07.
 DIIS coeffs:      1.45897     -0.39263     -0.06634
 Iteration  1 RMS(Cart)=  0.00195065 RMS(Int)=  0.00000857
 Iteration  2 RMS(Cart)=  0.00000760 RMS(Int)=  0.00000431
 Iteration  3 RMS(Cart)=  0.00000000 RMS(Int)=  0.00000431
 Variable       Old X    -DE/DX   Delta X   Delta X   Delta X     New X
                                  (DIIS)     (GDIIS)  (Total)
    R1        2.06978   0.00001  -0.00005  -0.00002  -0.00006   2.06971
    R2        2.06099   0.00004   0.00012   0.00021   0.00034   2.06132
    R3        2.06978   0.00000  -0.00005  -0.00005  -0.00010   2.06969
    R4        2.83253  -0.00025   0.00018  -0.00095  -0.00077   2.83176
    R5        2.24900   0.00002  -0.00037  -0.00013  -0.00050   2.24850
    R6        2.59838   0.00037   0.00126   0.00164   0.00290   2.60128
    A1        1.92305  -0.00008   0.00007  -0.00095  -0.00088   1.92217
    A2        1.87414  -0.00002   0.00029   0.00012   0.00041   1.87455
    A3        1.91308   0.00006  -0.00031   0.00052   0.00021   1.91329
    A4        1.92304  -0.00007   0.00007  -0.00088  -0.00081   1.92222
    A5        1.91695   0.00008   0.00017   0.00103   0.00120   1.91814
    A6        1.91312   0.00002  -0.00028   0.00014  -0.00014   1.91298
    A7        2.26321   0.00008   0.00106   0.00093   0.00198   2.26519
    A8        1.92727  -0.00013  -0.00075  -0.00096  -0.00172   1.92555
    A9        2.09270   0.00005  -0.00032   0.00004  -0.00028   2.09242
    D1        2.11586  -0.00005   0.00035  -0.00494  -0.00460   2.11126
    D2       -1.02709   0.00003  -0.00038   0.00478   0.00439  -1.02270
    D3        0.00071  -0.00004   0.00035  -0.00475  -0.00440  -0.00369
    D4        3.14094   0.00004  -0.00037   0.00497   0.00459  -3.13765
    D5       -2.11446  -0.00002   0.00035  -0.00441  -0.00406  -2.11852
    D6        1.02578   0.00006  -0.00038   0.00531   0.00493   1.03071
         Item               Value     Threshold  Converged?
 Maximum Force            0.000373     0.000450     YES
 RMS     Force            0.000111     0.000300     YES
 Maximum Displacement     0.004858     0.001800     NO 
 RMS     Displacement     0.001953     0.001200     NO 
 Predicted change in Energy=-1.579548D-06
 GradGradGradGradGradGradGradGradGradGradGradGradGradGradGradGradGradGrad

                          Input orientation:                          
 ---------------------------------------------------------------------
 Center     Atomic      Atomic             Coordinates (Angstroms)
 Number     Number       Type             X           Y           Z
 ---------------------------------------------------------------------
      1          6           0        1.393264   -0.041273    0.000351
      2          1           0        1.722794    0.516955   -0.882460
      3          1           0        1.833494   -1.039297   -0.000614
      4          1           0        1.724691    0.516139    0.882950
      5          6           0       -0.101766   -0.143220    0.002181
      6          8           0       -0.799212   -1.107231   -0.000723
      7          9           0       -0.666638    1.112074   -0.001678
 ---------------------------------------------------------------------
                    Distance matrix (angstroms):
                    1          2          3          4          5
     1  C    0.000000
     2  H    1.095245   0.000000
     3  H    1.090805   1.792157   0.000000
     4  H    1.095232   1.765411   1.792178   0.000000
     5  C    1.498503   2.132472   2.132649   2.132241   0.000000
     6  O    2.437872   3.126652   2.633583   3.128305   1.189855
     7  F    2.360807   2.615211   3.298342   2.618427   1.376539
                    6          7
     6  O    0.000000
     7  F    2.223262   0.000000
 Stoichiometry    C2H3FO
 Framework group  C1[X(C2H3FO)]
 Deg. of freedom    15
 Full point group                 C1      NOp   1
 Largest Abelian subgroup         C1      NOp   1
 Largest concise Abelian subgroup C1      NOp   1
                         Standard orientation:                         
 ---------------------------------------------------------------------
 Center     Atomic      Atomic             Coordinates (Angstroms)
 Number     Number       Type             X           Y           Z
 ---------------------------------------------------------------------
      1          6           0       -1.373228   -0.046898    0.000349
      2          1           0       -1.704015    0.510771    0.883042
      3          1           0       -1.810222   -1.046341    0.002164
      4          1           0       -1.707007    0.508927   -0.882365
      5          6           0        0.122123   -0.144004   -0.002355
      6          8           0        0.822690   -1.105749    0.000669
      7          9           0        0.682928    1.113116    0.000427
 ---------------------------------------------------------------------
 Rotational constants (GHZ):     10.8666102      9.5864514      5.2597435
 Standard basis: 6-31+G(d) (6D, 7F)
 There are    82 symmetry adapted basis functions of A   symmetry.
 Integral buffers will be    262144 words long.
 Raffenetti 2 integral format.
 Two-electron integral symmetry is turned on.
    82 basis functions,   140 primitive gaussians,    82 cartesian basis functions
    16 alpha electrons       16 beta electrons
       nuclear repulsion energy       117.9444964961 Hartrees.
 NAtoms=    7 NActive=    7 NUniq=    7 SFac= 7.50D-01 NAtFMM=   80 NAOKFM=F Big=F
 One-electron integrals computed using PRISM.
 NBasis=    82 RedAO= T  NBF=    82
 NBsUse=    82 1.00D-06 NBFU=    82
 Initial guess read from the read-write file.
 B after Tr=     0.000000    0.000000    0.000000
         Rot=    1.000000    0.000000    0.000000    0.000000 Ang=   0.00 deg.
 Initial guess orbital symmetries:
       Occupied  (A) (A) (A) (A) (A) (A) (A) (A) (A) (A) (A) (A)
                 (A) (A) (A) (A)
       Virtual   (A) (A) (A) (A) (A) (A) (A) (A) (A) (A) (A) (A)
                 (A) (A) (A) (A) (A) (A) (A) (A) (A) (A) (A) (A)
                 (A) (A) (A) (A) (A) (A) (A) (A) (A) (A) (A) (A)
                 (A) (A) (A) (A) (A) (A) (A) (A) (A) (A) (A) (A)
                 (A) (A) (A) (A) (A) (A) (A) (A) (A) (A) (A) (A)
                 (A) (A) (A) (A) (A) (A)
 Requested convergence on RMS density matrix=1.00D-08 within 128 cycles.
 Requested convergence on MAX density matrix=1.00D-06.
 Requested convergence on             energy=1.00D-06.
 No special actions if energy rises.
 Keep R1 ints in memory in canonical form, NReq=6787505.
 SCF Done:  E(RB3LYP) =  -253.109879781     A.U. after    9 cycles
             Convg  =    0.3407D-08             -V/T =  2.0088
 Calling FoFJK, ICntrl=      2127 FMM=F ISym2X=0 I1Cent= 0 IOpClX= 0 NMat=1 NMatS=1 NMatT=0.
 ***** Axes restored to original set *****
 -------------------------------------------------------------------
 Center     Atomic                   Forces (Hartrees/Bohr)
 Number     Number              X              Y              Z
 -------------------------------------------------------------------
      1        6          -0.000098974   -0.000156973    0.000327570
      2        1          -0.000049283    0.000023096   -0.000003319
      3        1          -0.000062044    0.000021288    0.000025690
      4        1           0.000100638    0.000029782    0.000003613
      5        6           0.000058395    0.000516248   -0.000990523
      6        8          -0.000052906   -0.000156347    0.000361210
      7        9           0.000104175   -0.000277095    0.000275758
 -------------------------------------------------------------------
 Cartesian Forces:  Max     0.000990523 RMS     0.000287282

 GradGradGradGradGradGradGradGradGradGradGradGradGradGradGradGradGradGrad
 Berny optimization.
 Using GEDIIS/GDIIS optimizer.
 Internal  Forces:  Max     0.000302075 RMS     0.000151431
 Search for a local minimum.
 Step number   6 out of a maximum of   31
 All quantities printed in internal units (Hartrees-Bohrs-Radians)
 Mixed Optimization -- En-DIIS/RFO-DIIS
 Swaping is turned off.
 Update second derivatives using D2CorX and points    1    2    3    4    5
                                                      6
 DE=  1.98D-06 DEPred=-1.58D-06 R=-1.25D+00
 Trust test=-1.25D+00 RLast= 1.19D-02 DXMaxT set to 2.30D-01
     Eigenvalues ---    0.01013   0.03251   0.07393   0.07573   0.09287
     Eigenvalues ---    0.13495   0.16542   0.17054   0.28632   0.32711
     Eigenvalues ---    0.33269   0.33459   0.33858   0.36785   1.02971
     Eigenvalues --- 1000.000001000.000001000.000001000.000001000.00000
     Eigenvalues --- 1000.00000
 En-DIIS/RFO-DIIS IScMMF=        0 using points:     6    5    4    3
 RFO step:  Lambda=-1.59418188D-06.
 DIIS coeffs:      0.25624      1.25835     -0.57453      0.05995
 Iteration  1 RMS(Cart)=  0.00147598 RMS(Int)=  0.00000409
 Iteration  2 RMS(Cart)=  0.00000410 RMS(Int)=  0.00000085
 Iteration  3 RMS(Cart)=  0.00000000 RMS(Int)=  0.00000085
 Variable       Old X    -DE/DX   Delta X   Delta X   Delta X     New X
                                  (DIIS)     (GDIIS)  (Total)
    R1        2.06971   0.00000  -0.00002   0.00011   0.00009   2.06981
    R2        2.06132  -0.00005  -0.00011  -0.00006  -0.00016   2.06116
    R3        2.06969   0.00005   0.00001   0.00011   0.00012   2.06981
    R4        2.83176  -0.00011   0.00021  -0.00047  -0.00026   2.83150
    R5        2.24850   0.00016   0.00037  -0.00002   0.00035   2.24885
    R6        2.60128  -0.00030  -0.00140   0.00003  -0.00137   2.59991
    A1        1.92217   0.00006   0.00008   0.00004   0.00012   1.92230
    A2        1.87455  -0.00003  -0.00024  -0.00009  -0.00033   1.87422
    A3        1.91329  -0.00010   0.00000   0.00015   0.00015   1.91344
    A4        1.92222  -0.00002   0.00002   0.00004   0.00007   1.92229
    A5        1.91814  -0.00006  -0.00016  -0.00029  -0.00045   1.91769
    A6        1.91298   0.00015   0.00030   0.00015   0.00045   1.91343
    A7        2.26519  -0.00012  -0.00117   0.00015  -0.00101   2.26418
    A8        1.92555   0.00010   0.00084  -0.00003   0.00082   1.92637
    A9        2.09242   0.00002   0.00034  -0.00012   0.00022   2.09264
    D1        2.11126   0.00020   0.00369   0.00001   0.00369   2.11495
    D2       -1.02270  -0.00023  -0.00386  -0.00008  -0.00395  -1.02664
    D3       -0.00369   0.00023   0.00369   0.00004   0.00373   0.00004
    D4       -3.13765  -0.00021  -0.00386  -0.00005  -0.00391  -3.14156
    D5       -2.11852   0.00020   0.00357   0.00007   0.00365  -2.11487
    D6        1.03071  -0.00024  -0.00397  -0.00002  -0.00399   1.02672
         Item               Value     Threshold  Converged?
 Maximum Force            0.000302     0.000450     YES
 RMS     Force            0.000151     0.000300     YES
 Maximum Displacement     0.004126     0.001800     NO 
 RMS     Displacement     0.001476     0.001200     NO 
 Predicted change in Energy=-2.915983D-06
 GradGradGradGradGradGradGradGradGradGradGradGradGradGradGradGradGradGrad

                          Input orientation:                          
 ---------------------------------------------------------------------
 Center     Atomic      Atomic             Coordinates (Angstroms)
 Number     Number       Type             X           Y           Z
 ---------------------------------------------------------------------
      1          6           0        1.393156   -0.041173   -0.000001
      2          1           0        1.724121    0.516614   -0.882613
      3          1           0        1.832617   -1.039442   -0.000054
      4          1           0        1.724120    0.516514    0.882675
      5          6           0       -0.101767   -0.142679   -0.000003
      6          8           0       -0.798618   -1.107350   -0.000019
      7          9           0       -0.667001    1.111664    0.000022
 ---------------------------------------------------------------------
                    Distance matrix (angstroms):
                    1          2          3          4          5
     1  C    0.000000
     2  H    1.095294   0.000000
     3  H    1.090719   1.792203   0.000000
     4  H    1.095295   1.765289   1.792201   0.000000
     5  C    1.498365   2.132496   2.132141   2.132492   0.000000
     6  O    2.437335   3.127370   2.632111   3.127346   1.190038
     7  F    2.360779   2.617364   3.297780   2.617392   1.375815
                    6          7
     6  O    0.000000
     7  F    2.222914   0.000000
 Stoichiometry    C2H3FO
 Framework group  C1[X(C2H3FO)]
 Deg. of freedom    15
 Full point group                 C1      NOp   1
 Largest Abelian subgroup         C1      NOp   1
 Largest concise Abelian subgroup C1      NOp   1
                         Standard orientation:                         
 ---------------------------------------------------------------------
 Center     Atomic      Atomic             Coordinates (Angstroms)
 Number     Number       Type             X           Y           Z
 ---------------------------------------------------------------------
      1          6           0        1.373123   -0.046025   -0.000002
      2          1           0        1.705592    0.510868   -0.882614
      3          1           0        1.809891   -1.045475   -0.000055
      4          1           0        1.705590    0.510768    0.882675
      5          6           0       -0.122068   -0.143499   -0.000004
      6          8           0       -0.821518   -1.106287   -0.000020
      7          9           0       -0.683917    1.112364    0.000021
 ---------------------------------------------------------------------
 Rotational constants (GHZ):     10.8704453      9.5880709      5.2610974
 Standard basis: 6-31+G(d) (6D, 7F)
 There are    82 symmetry adapted basis functions of A   symmetry.
 Integral buffers will be    262144 words long.
 Raffenetti 2 integral format.
 Two-electron integral symmetry is turned on.
    82 basis functions,   140 primitive gaussians,    82 cartesian basis functions
    16 alpha electrons       16 beta electrons
       nuclear repulsion energy       117.9590082432 Hartrees.
 NAtoms=    7 NActive=    7 NUniq=    7 SFac= 7.50D-01 NAtFMM=   80 NAOKFM=F Big=F
 One-electron integrals computed using PRISM.
 NBasis=    82 RedAO= T  NBF=    82
 NBsUse=    82 1.00D-06 NBFU=    82
 Initial guess read from the read-write file.
 B after Tr=     0.000000    0.000000    0.000000
         Rot=    1.000000    0.000000    0.000000    0.000000 Ang=   0.00 deg.
 Initial guess orbital symmetries:
       Occupied  (A) (A) (A) (A) (A) (A) (A) (A) (A) (A) (A) (A)
                 (A) (A) (A) (A)
       Virtual   (A) (A) (A) (A) (A) (A) (A) (A) (A) (A) (A) (A)
                 (A) (A) (A) (A) (A) (A) (A) (A) (A) (A) (A) (A)
                 (A) (A) (A) (A) (A) (A) (A) (A) (A) (A) (A) (A)
                 (A) (A) (A) (A) (A) (A) (A) (A) (A) (A) (A) (A)
                 (A) (A) (A) (A) (A) (A) (A) (A) (A) (A) (A) (A)
                 (A) (A) (A) (A) (A) (A)
 Requested convergence on RMS density matrix=1.00D-08 within 128 cycles.
 Requested convergence on MAX density matrix=1.00D-06.
 Requested convergence on             energy=1.00D-06.
 No special actions if energy rises.
 Keep R1 ints in memory in canonical form, NReq=6787505.
 SCF Done:  E(RB3LYP) =  -253.109882576     A.U. after   12 cycles
             Convg  =    0.6406D-08             -V/T =  2.0088
 Calling FoFJK, ICntrl=      2127 FMM=F ISym2X=0 I1Cent= 0 IOpClX= 0 NMat=1 NMatS=1 NMatT=0.
 ***** Axes restored to original set *****
 -------------------------------------------------------------------
 Center     Atomic                   Forces (Hartrees/Bohr)
 Number     Number              X              Y              Z
 -------------------------------------------------------------------
      1        6          -0.000014668   -0.000022148    0.000000117
      2        1           0.000004668   -0.000002184    0.000004463
      3        1          -0.000008754   -0.000009813    0.000000025
      4        1           0.000004714   -0.000002135   -0.000004549
      5        6           0.000026690    0.000011095   -0.000000073
      6        8          -0.000009601    0.000008217   -0.000000035
      7        9          -0.000003049    0.000016969    0.000000052
 -------------------------------------------------------------------
 Cartesian Forces:  Max     0.000026690 RMS     0.000010385

 GradGradGradGradGradGradGradGradGradGradGradGradGradGradGradGradGradGrad
 Berny optimization.
 Using GEDIIS/GDIIS optimizer.
 Internal  Forces:  Max     0.000015028 RMS     0.000005866
 Search for a local minimum.
 Step number   7 out of a maximum of   31
 All quantities printed in internal units (Hartrees-Bohrs-Radians)
 Mixed Optimization -- En-DIIS/RFO-DIIS
 Swaping is turned off.
 Update second derivatives using D2CorX and points    1    2    3    4    5
                                                      6    7
 DE= -2.80D-06 DEPred=-2.92D-06 R= 9.59D-01
 SS=  1.41D+00  RLast= 9.59D-03 DXNew= 3.8665D-01 2.8774D-02
 Trust test= 9.59D-01 RLast= 9.59D-03 DXMaxT set to 2.30D-01
     Eigenvalues ---    0.01013   0.05334   0.07419   0.07614   0.12210
     Eigenvalues ---    0.14404   0.16792   0.17842   0.28421   0.31749
     Eigenvalues ---    0.33275   0.33492   0.33879   0.38387   1.04512
     Eigenvalues --- 1000.000001000.000001000.000001000.000001000.00000
     Eigenvalues --- 1000.00000
 En-DIIS/RFO-DIIS IScMMF=        0 using points:     7    6    5    4    3
 RFO step:  Lambda= 0.00000000D+00.
 DIIS coeffs:      1.04737     -0.01231     -0.06097      0.02726     -0.00136
 Iteration  1 RMS(Cart)=  0.00002865 RMS(Int)=  0.00000004
 Iteration  2 RMS(Cart)=  0.00000000 RMS(Int)=  0.00000004
 Variable       Old X    -DE/DX   Delta X   Delta X   Delta X     New X
                                  (DIIS)     (GDIIS)  (Total)
    R1        2.06981   0.00000   0.00001  -0.00001   0.00000   2.06980
    R2        2.06116   0.00000   0.00000   0.00001   0.00001   2.06116
    R3        2.06981   0.00000   0.00001  -0.00001   0.00000   2.06981
    R4        2.83150  -0.00002  -0.00003  -0.00002  -0.00005   2.83145
    R5        2.24885   0.00000   0.00000   0.00000   0.00000   2.24885
    R6        2.59991   0.00001  -0.00001   0.00003   0.00002   2.59993
    A1        1.92230   0.00000   0.00000   0.00003   0.00003   1.92232
    A2        1.87422  -0.00001  -0.00001  -0.00006  -0.00007   1.87416
    A3        1.91344   0.00000   0.00001  -0.00001   0.00000   1.91344
    A4        1.92229   0.00000   0.00000   0.00003   0.00003   1.92232
    A5        1.91769   0.00000  -0.00001   0.00002   0.00001   1.91770
    A6        1.91343   0.00000   0.00001  -0.00001   0.00001   1.91344
    A7        2.26418  -0.00001   0.00000  -0.00003  -0.00003   2.26415
    A8        1.92637   0.00001   0.00001   0.00005   0.00005   1.92642
    A9        2.09264  -0.00001   0.00000  -0.00002  -0.00002   2.09262
    D1        2.11495   0.00000   0.00000   0.00004   0.00004   2.11499
    D2       -1.02664   0.00000  -0.00001   0.00004   0.00003  -1.02661
    D3        0.00004   0.00000   0.00000   0.00000   0.00000   0.00003
    D4       -3.14156   0.00000   0.00000   0.00000   0.00000  -3.14156
    D5       -2.11487   0.00000   0.00000  -0.00005  -0.00004  -2.11491
    D6        1.02672   0.00000   0.00000  -0.00004  -0.00004   1.02667
         Item               Value     Threshold  Converged?
 Maximum Force            0.000015     0.000450     YES
 RMS     Force            0.000006     0.000300     YES
 Maximum Displacement     0.000058     0.001800     YES
 RMS     Displacement     0.000029     0.001200     YES
 Predicted change in Energy=-1.499716D-09
 Optimization completed.
    -- Stationary point found.
                           ----------------------------
                           !   Optimized Parameters   !
                           ! (Angstroms and Degrees)  !
 --------------------------                            --------------------------
 ! Name  Definition              Value          Derivative Info.                !
 --------------------------------------------------------------------------------
 ! R1    R(1,2)                  1.0953         -DE/DX =    0.0                 !
 ! R2    R(1,3)                  1.0907         -DE/DX =    0.0                 !
 ! R3    R(1,4)                  1.0953         -DE/DX =    0.0                 !
 ! R4    R(1,5)                  1.4984         -DE/DX =    0.0                 !
 ! R5    R(5,6)                  1.19           -DE/DX =    0.0                 !
 ! R6    R(5,7)                  1.3758         -DE/DX =    0.0                 !
 ! A1    A(2,1,3)              110.1394         -DE/DX =    0.0                 !
 ! A2    A(2,1,4)              107.3851         -DE/DX =    0.0                 !
 ! A3    A(2,1,5)              109.6318         -DE/DX =    0.0                 !
 ! A4    A(3,1,4)              110.1392         -DE/DX =    0.0                 !
 ! A5    A(3,1,5)              109.8758         -DE/DX =    0.0                 !
 ! A6    A(4,1,5)              109.6315         -DE/DX =    0.0                 !
 ! A7    A(1,5,6)              129.7277         -DE/DX =    0.0                 !
 ! A8    A(1,5,7)              110.3729         -DE/DX =    0.0                 !
 ! A9    A(6,5,7)              119.8994         -DE/DX =    0.0                 !
 ! D1    D(2,1,5,6)            121.1779         -DE/DX =    0.0                 !
 ! D2    D(2,1,5,7)            -58.8223         -DE/DX =    0.0                 !
 ! D3    D(3,1,5,6)              0.0021         -DE/DX =    0.0                 !
 ! D4    D(3,1,5,7)           -179.9981         -DE/DX =    0.0                 !
 ! D5    D(4,1,5,6)           -121.1733         -DE/DX =    0.0                 !
 ! D6    D(4,1,5,7)             58.8265         -DE/DX =    0.0                 !
 --------------------------------------------------------------------------------
 GradGradGradGradGradGradGradGradGradGradGradGradGradGradGradGradGradGrad

                          Input orientation:                          
 ---------------------------------------------------------------------
 Center     Atomic      Atomic             Coordinates (Angstroms)
 Number     Number       Type             X           Y           Z
 ---------------------------------------------------------------------
      1          6           0        1.393156   -0.041173   -0.000001
      2          1           0        1.724121    0.516614   -0.882613
      3          1           0        1.832617   -1.039442   -0.000054
      4          1           0        1.724120    0.516514    0.882675
      5          6           0       -0.101767   -0.142679   -0.000003
      6          8           0       -0.798618   -1.107350   -0.000019
      7          9           0       -0.667001    1.111664    0.000022
 ---------------------------------------------------------------------
                    Distance matrix (angstroms):
                    1          2          3          4          5
     1  C    0.000000
     2  H    1.095294   0.000000
     3  H    1.090719   1.792203   0.000000
     4  H    1.095295   1.765289   1.792201   0.000000
     5  C    1.498365   2.132496   2.132141   2.132492   0.000000
     6  O    2.437335   3.127370   2.632111   3.127346   1.190038
     7  F    2.360779   2.617364   3.297780   2.617392   1.375815
                    6          7
     6  O    0.000000
     7  F    2.222914   0.000000
 Stoichiometry    C2H3FO
 Framework group  C1[X(C2H3FO)]
 Deg. of freedom    15
 Full point group                 C1      NOp   1
 Largest Abelian subgroup         C1      NOp   1
 Largest concise Abelian subgroup C1      NOp   1
                         Standard orientation:                         
 ---------------------------------------------------------------------
 Center     Atomic      Atomic             Coordinates (Angstroms)
 Number     Number       Type             X           Y           Z
 ---------------------------------------------------------------------
      1          6           0        1.373123   -0.046025   -0.000002
      2          1           0        1.705592    0.510868   -0.882614
      3          1           0        1.809891   -1.045475   -0.000055
      4          1           0        1.705590    0.510768    0.882675
      5          6           0       -0.122068   -0.143499   -0.000004
[...]
     1   6     0.00   0.00   0.00    -0.06   0.20   0.00     0.00   0.00  -0.01
     2   1    -0.01  -0.50  -0.32    -0.33   0.38   0.01     0.57  -0.02   0.20
     3   1     0.00   0.00   0.53     0.41   0.41   0.00     0.00   0.00   0.36
     4   1     0.01   0.50  -0.32    -0.33   0.38  -0.01    -0.57   0.02   0.20
     5   6     0.00   0.00   0.01    -0.03  -0.16   0.00     0.00   0.00  -0.35
     6   8     0.00   0.00  -0.05    -0.17  -0.05   0.00     0.00   0.00   0.12
     7   9     0.00   0.00   0.04     0.22  -0.05   0.00     0.00   0.00   0.08
                     4                      5                      6
                     A                      A                      A
 Frequencies --   588.6057               824.0802              1010.4141
 Red. masses --     8.2517                 6.4015                 1.9441
 Frc consts  --     1.6844                 2.5614                 1.1694
 IR Inten    --    18.1655                75.3991                50.2527
  Atom  AN      X      Y      Z        X      Y      Z        X      Y      Z
     1   6     0.38   0.05   0.00    -0.35   0.05   0.00     0.09   0.17   0.00
     2   1     0.34   0.07  -0.01    -0.17  -0.08  -0.01     0.52  -0.20  -0.07
     3   1     0.49   0.10   0.00    -0.73  -0.11   0.00    -0.53  -0.12   0.00
     4   1     0.34   0.07   0.01    -0.17  -0.08   0.01     0.52  -0.20   0.07
     5   6     0.18  -0.02   0.00     0.04   0.24   0.00    -0.15   0.06   0.00
     6   8    -0.30   0.33   0.00     0.13   0.21   0.00    -0.05  -0.10   0.00
     7   9    -0.17  -0.31   0.00     0.15  -0.34   0.00     0.06  -0.03   0.00
                     7                      8                      9
                     A                      A                      A
 Frequencies --  1078.2667              1195.9641              1424.4574
 Red. masses --     1.7388                 3.0480                 1.2874
 Frc consts  --     1.1911                 2.5686                 1.5391
 IR Inten    --     9.2613               209.8949                33.8263
  Atom  AN      X      Y      Z        X      Y      Z        X      Y      Z
     1   6     0.00   0.00   0.17    -0.10   0.14   0.00     0.15   0.01   0.00
     2   1    -0.60  -0.12  -0.16     0.06  -0.23  -0.15    -0.55   0.01  -0.26
     3   1     0.00   0.00  -0.37    -0.79  -0.17   0.00    -0.42  -0.23   0.00
     4   1     0.60   0.12  -0.16     0.06  -0.23   0.15    -0.55   0.01   0.26
     5   6     0.00   0.00  -0.19     0.28  -0.25   0.00    -0.03   0.03   0.00
     6   8     0.00   0.00   0.04    -0.04   0.03   0.00     0.00  -0.01   0.00
     7   9     0.00   0.00   0.02    -0.05   0.07   0.00     0.01  -0.01   0.00
                    10                     11                     12
                     A                      A                      A
 Frequencies --  1490.4186              1495.6420              1915.3678
 Red. masses --     1.0466                 1.0448                12.1683
 Frc consts  --     1.3697                 1.3770                26.3017
 IR Inten    --    16.0991                10.4288               315.6869
  Atom  AN      X      Y      Z        X      Y      Z        X      Y      Z
     1   6     0.02  -0.05   0.00     0.00   0.00  -0.05    -0.07  -0.03   0.00
     2   1     0.08   0.50   0.36    -0.34   0.35   0.05    -0.12  -0.07  -0.06
     3   1    -0.42  -0.22   0.00     0.00   0.00   0.72     0.16   0.11   0.00
     4   1     0.08   0.50  -0.36     0.34  -0.35   0.05    -0.12  -0.07   0.06
     5   6     0.02   0.00   0.00     0.00   0.00  -0.03     0.53   0.59   0.00
     6   8    -0.01  -0.01   0.00     0.00   0.00   0.00    -0.32  -0.42   0.00
     7   9     0.00   0.00   0.00     0.00   0.00   0.00    -0.02   0.00   0.00
                    13                     14                     15
                     A                      A                      A
 Frequencies --  3071.5832              3133.9817              3182.5837
 Red. masses --     1.0367                 1.1003                 1.1037
 Frc consts  --     5.7629                 6.3674                 6.5867
 IR Inten    --     0.3683                 1.2939                 3.1683
  Atom  AN      X      Y      Z        X      Y      Z        X      Y      Z
     1   6     0.05   0.02   0.00     0.00   0.00   0.09     0.02  -0.09   0.00
     2   1    -0.19  -0.32   0.52     0.22   0.37  -0.56     0.09   0.13  -0.24
     3   1    -0.16   0.39   0.00     0.00   0.00   0.02    -0.36   0.83   0.00
     4   1    -0.19  -0.32  -0.52    -0.22  -0.37  -0.56     0.09   0.13   0.24
     5   6     0.00   0.00   0.00     0.00   0.00   0.00     0.00   0.00   0.00
     6   8     0.00   0.00   0.00     0.00   0.00   0.00     0.00   0.00   0.00
     7   9     0.00   0.00   0.00     0.00   0.00   0.00     0.00   0.00   0.00

 -------------------
 - Thermochemistry -
 -------------------
 Temperature   298.150 Kelvin.  Pressure   1.00000 Atm.
 Atom     1 has atomic number  6 and mass  12.00000
 Atom     2 has atomic number  1 and mass   1.00783
 Atom     3 has atomic number  1 and mass   1.00783
 Atom     4 has atomic number  1 and mass   1.00783
 Atom     5 has atomic number  6 and mass  12.00000
 Atom     6 has atomic number  8 and mass  15.99491
 Atom     7 has atomic number  9 and mass  18.99840
 Molecular mass:    62.01679 amu.
 Principal axes and moments of inertia in atomic units:
                           1         2         3
     Eigenvalues --   166.02275 188.22777 343.03513
           X            0.99664   0.08197   0.00000
           Y           -0.08197   0.99664  -0.00002
           Z            0.00000   0.00002   1.00000
 This molecule is an asymmetric top.
 Rotational symmetry number  1.
 Rotational temperatures (Kelvin)      0.52170     0.46015     0.25249
 Rotational constants (GHZ):          10.87045     9.58807     5.26110
 Zero-point vibrational energy     128672.5 (Joules/Mol)
                                   30.75348 (Kcal/Mol)
 Warning -- explicit consideration of   4 degrees of freedom as
           vibrations may cause significant error
 Vibrational temperatures:    174.63   592.95   816.52   846.87  1185.67
          (Kelvin)           1453.76  1551.38  1720.72  2049.47  2144.38
                             2151.89  2755.78  4419.32  4509.09  4579.02
 
 Zero-point correction=                           0.049009 (Hartree/Particle)
 Thermal correction to Energy=                    0.053348
 Thermal correction to Enthalpy=                  0.054292
 Thermal correction to Gibbs Free Energy=         0.022179
 Sum of electronic and zero-point Energies=           -253.060874
 Sum of electronic and thermal Energies=              -253.056535
 Sum of electronic and thermal Enthalpies=            -253.055591
 Sum of electronic and thermal Free Energies=         -253.087704
 
                     E (Thermal)             CV                S
                      KCal/Mol        Cal/Mol-Kelvin    Cal/Mol-Kelvin
 Total                   33.476             13.247             67.588
 Electronic               0.000              0.000              0.000
 Translational            0.889              2.981             38.294
 Rotational               0.889              2.981             23.887
 Vibrational             31.699              7.285              5.407
 Vibration     1          0.609              1.931              3.078
 Vibration     2          0.776              1.444              0.919
 Vibration     3          0.923              1.102              0.509
 Vibration     4          0.946              1.056              0.470
                       Q            Log10(Q)             Ln(Q)
 Total Bot       0.628876D-10        -10.201435        -23.489672
 Total V=0       0.219277D+13         12.340993         28.416188
 Vib (Bot)       0.883903D-22        -22.053596        -50.780280
 Vib (Bot)    1  0.168319D+01          0.226133          0.520691
 Vib (Bot)    2  0.428612D+00         -0.367935         -0.847202
 Vib (Bot)    3  0.271861D+00         -0.565654         -1.302466
 Vib (Bot)    4  0.256652D+00         -0.590655         -1.360034
 Vib (V=0)       0.308200D+01          0.488833          1.125579
 Vib (V=0)    1  0.225588D+01          0.353317          0.813542
 Vib (V=0)    2  0.115857D+01          0.063921          0.147183
 Vib (V=0)    3  0.106913D+01          0.029030          0.066845
 Vib (V=0)    4  0.106202D+01          0.026134          0.060176
 Electronic      0.100000D+01          0.000000          0.000000
 Translational   0.191964D+08          7.283219         16.770232
 Rotational      0.370631D+05          4.568941         10.520376
 ***** Axes restored to original set *****
 -------------------------------------------------------------------
 Center     Atomic                   Forces (Hartrees/Bohr)
 Number     Number              X              Y              Z
 -------------------------------------------------------------------
      1        6          -0.000014662   -0.000022140    0.000000115
      2        1           0.000004669   -0.000002182    0.000004462
      3        1          -0.000008756   -0.000009812    0.000000025
      4        1           0.000004715   -0.000002133   -0.000004546
      5        6           0.000026680    0.000011010   -0.000000073
      6        8          -0.000009586    0.000008249   -0.000000035
      7        9          -0.000003060    0.000017008    0.000000052
 -------------------------------------------------------------------
 Cartesian Forces:  Max     0.000026680 RMS     0.000010382

 GradGradGradGradGradGradGradGradGradGradGradGradGradGradGradGradGradGrad
 Berny optimization.
 Internal  Forces:  Max     0.000015021 RMS     0.000005865
 Search for a local minimum.
 Step number   1 out of a maximum of    2
 All quantities printed in internal units (Hartrees-Bohrs-Radians)
 Second derivative matrix not updated -- analytic derivatives used.
     Eigenvalues ---    0.00106   0.05102   0.05739   0.05775   0.12843
     Eigenvalues ---    0.13107   0.14460   0.18171   0.25099   0.32424
     Eigenvalues ---    0.34081   0.34211   0.34750   0.35752   0.96800
     Eigenvalues --- 1000.000001000.000001000.000001000.000001000.00000
     Eigenvalues --- 1000.00000
 Angle between quadratic step and forces=  41.98 degrees.
 Linear search not attempted -- first point.
 Iteration  1 RMS(Cart)=  0.00004011 RMS(Int)=  0.00000000
 Iteration  2 RMS(Cart)=  0.00000000 RMS(Int)=  0.00000000
 Variable       Old X    -DE/DX   Delta X   Delta X   Delta X     New X
                                 (Linear)    (Quad)   (Total)
    R1        2.06981   0.00000   0.00000   0.00000   0.00000   2.06981
    R2        2.06116   0.00000   0.00000   0.00000   0.00000   2.06116
    R3        2.06981   0.00000   0.00000   0.00000   0.00000   2.06981
    R4        2.83150  -0.00002   0.00000  -0.00006  -0.00006   2.83144
    R5        2.24885   0.00000   0.00000   0.00001   0.00001   2.24885
    R6        2.59991   0.00001   0.00000   0.00003   0.00003   2.59994
    A1        1.92230   0.00000   0.00000   0.00003   0.00003   1.92233
    A2        1.87422  -0.00001   0.00000  -0.00010  -0.00010   1.87413
    A3        1.91344   0.00000   0.00000   0.00001   0.00001   1.91345
    A4        1.92229   0.00000   0.00000   0.00004   0.00004   1.92233
    A5        1.91769   0.00000   0.00000   0.00000   0.00000   1.91769
    A6        1.91343   0.00000   0.00000   0.00001   0.00001   1.91344
    A7        2.26418  -0.00001   0.00000  -0.00003  -0.00003   2.26414
    A8        1.92637   0.00001   0.00000   0.00006   0.00006   1.92643
    A9        2.09264  -0.00001   0.00000  -0.00003  -0.00003   2.09261
    D1        2.11495   0.00000   0.00000   0.00002   0.00002   2.11497
    D2       -1.02664   0.00000   0.00000   0.00002   0.00002  -1.02662
    D3        0.00004   0.00000   0.00000  -0.00003  -0.00003   0.00001
    D4       -3.14156   0.00000   0.00000  -0.00003  -0.00003  -3.14159
    D5       -2.11487   0.00000   0.00000  -0.00009  -0.00009  -2.11496
    D6        1.02672   0.00000   0.00000  -0.00008  -0.00008   1.02663
         Item               Value     Threshold  Converged?
 Maximum Force            0.000015     0.000450     YES
 RMS     Force            0.000006     0.000300     YES
 Maximum Displacement     0.000072     0.001800     YES
 RMS     Displacement     0.000040     0.001200     YES
 Predicted change in Energy=-1.993831D-09
 Optimization completed.
    -- Stationary point found.
                           ----------------------------
                           !   Optimized Parameters   !
                           ! (Angstroms and Degrees)  !
 --------------------------                            --------------------------
 ! Name  Definition              Value          Derivative Info.                !
 --------------------------------------------------------------------------------
 ! R1    R(1,2)                  1.0953         -DE/DX =    0.0                 !
 ! R2    R(1,3)                  1.0907         -DE/DX =    0.0                 !
 ! R3    R(1,4)                  1.0953         -DE/DX =    0.0                 !
 ! R4    R(1,5)                  1.4984         -DE/DX =    0.0                 !
 ! R5    R(5,6)                  1.19           -DE/DX =    0.0                 !
 ! R6    R(5,7)                  1.3758         -DE/DX =    0.0                 !
 ! A1    A(2,1,3)              110.1394         -DE/DX =    0.0                 !
 ! A2    A(2,1,4)              107.3851         -DE/DX =    0.0                 !
 ! A3    A(2,1,5)              109.6318         -DE/DX =    0.0                 !
 ! A4    A(3,1,4)              110.1392         -DE/DX =    0.0                 !
 ! A5    A(3,1,5)              109.8758         -DE/DX =    0.0                 !
 ! A6    A(4,1,5)              109.6315         -DE/DX =    0.0                 !
 ! A7    A(1,5,6)              129.7277         -DE/DX =    0.0                 !
 ! A8    A(1,5,7)              110.3729         -DE/DX =    0.0                 !
 ! A9    A(6,5,7)              119.8994         -DE/DX =    0.0                 !
 ! D1    D(2,1,5,6)            121.1779         -DE/DX =    0.0                 !
 ! D2    D(2,1,5,7)            -58.8223         -DE/DX =    0.0                 !
 ! D3    D(3,1,5,6)              0.0021         -DE/DX =    0.0                 !
 ! D4    D(3,1,5,7)           -179.9981         -DE/DX =    0.0                 !
 ! D5    D(4,1,5,6)           -121.1733         -DE/DX =    0.0                 !
 ! D6    D(4,1,5,7)             58.8265         -DE/DX =    0.0                 !
 --------------------------------------------------------------------------------
 GradGradGradGradGradGradGradGradGradGradGradGradGradGradGradGradGradGrad

 1|1|UNPC-WST-PGHS-014|Freq|RB3LYP|6-31+G(d)|C2H3F1O1|214584429|25-Feb-
 2015|0||#N Geom=AllCheck Guess=TCheck SCRF=Check GenChk RB3LYP/6-31+G(
 d) Freq||Title Card Required||0,1|C,1.3931555146,-0.041173231,-0.00000
 0918|H,1.7241212196,0.5166136888,-0.8826134107|H,1.8326173553,-1.03944
 20256,-0.0000543965|H,1.7241201984,0.5165143354,0.8826754328|C,-0.1017
 672062,-0.1426794339,-0.0000027701|O,-0.7986177939,-1.1073503426,-0.00
 00189895|F,-0.6670012878,1.1116640088,0.000021802||Version=IA32W-G09Re
 vA.02|State=1-A|HF=-253.1098826|RMSD=1.742e-009|RMSF=1.038e-005|ZeroPo
 int=0.0490088|Thermal=0.0533477|Dipole=1.214422,0.2404859,0.0000059|Di
 poleDeriv=-0.2802968,-0.0468966,-0.0000049,-0.1135095,-0.0165014,-0.00
 00018,-0.0000139,-0.0000045,0.0466303,0.0553695,-0.0077504,-0.0006401,
 0.0045594,0.0729095,0.0656665,0.0381773,0.0642929,0.0141405,0.035695,0
 .022946,0.0000012,0.0605584,-0.0267266,-0.0000063,0.0000055,-0.0000056
 ,0.0984228,0.0553706,-0.007751,0.0006404,0.0045628,0.072925,-0.0656599
 ,-0.0381723,-0.0642858,0.0141262,1.4801521,0.0073265,0.0000017,-0.0631
 498,1.9610141,0.0000308,0.0000006,0.0000322,0.3387422,-0.7803763,-0.37
 46212,-0.0000068,-0.1880248,-0.9306168,-0.000012,-0.0000027,-0.0000113
 ,-0.3237881,-0.5659141,0.4067467,0.0000084,0.2950036,-1.1330038,-0.000
 0174,0.0000055,-0.0000179,-0.1882738|Polar=30.0909106,2.716853,31.1413
 534,0.0000839,0.0001947,21.0537416|PG=C01 [X(C2H3F1O1)]|NImag=0||0.491
 30168,-0.02345756,0.61585305,-0.00000259,0.00000110,0.54217787,-0.0718
 1549,-0.03746230,0.06781853,0.07679704,-0.03769163,-0.11633943,0.11397
 954,0.04511745,0.12225456,0.06694840,0.11258227,-0.22063628,-0.0719549
 1,-0.12299437,0.23850679,-0.09365577,0.09696309,0.00000555,0.00462469,
 -0.01028454,-0.00183855,0.10122169,0.10470445,-0.28683954,-0.00001259,
 0.00547551,-0.01197349,-0.00148379,-0.11111519,0.30568320,0.00000594,-
 0.00001255,-0.04972824,-0.01238662,0.02347126,0.00176867,-0.00000600,0
 .00001384,0.04702494,-0.07181513,-0.03745488,-0.06782276,0.00378726,0.
 00630806,0.00857198,0.00462468,0.00547422,0.01238723,0.07679669,-0.037
 68379,-0.11631312,-0.11396719,0.00630902,0.00895988,0.01409485,-0.0102
 8472,-0.01197121,-0.02347293,0.04510916,0.12222629,-0.06695200,-0.1125
 7005,-0.22066106,-0.00857124,-0.01409148,-0.02113322,0.00183735,0.0014
 8222,0.00176617,0.07195969,0.12298082,0.23853388,-0.20961117,-0.001642
 06,0.00000066,-0.00858211,-0.00360765,-0.00026907,-0.01110629,-0.00291
 976,-0.00000039,-0.00858252,-0.00360776,0.00026840,0.75775724,-0.00183
 182,-0.07527289,0.00000047,-0.02122064,-0.00409004,0.00044915,0.033399
 05,0.00125756,0.00000018,-0.02121730,-0.00408987,-0.00044970,0.3099648
 6,0.78270673,0.00000022,0.00000049,-0.09427992,0.03326239,-0.00007899,
 0.00215640,0.00000188,0.00000040,-0.00310060,-0.03326484,0.00007829,0.
 00215655,0.00000499,0.00000982,0.21854061,-0.02267704,-0.03998767,-0.0
 0000057,-0.00534189,-0.00093507,-0.00154668,0.00295345,-0.00043711,0.0
 0000004,-0.00534134,-0.00093519,0.00154657,-0.39257525,-0.35028782,-0.
 00000575,0.38648749,-0.01517437,-0.00613623,-0.00000090,0.00004619,0.0
 0161337,-0.00147550,-0.00174710,0.00147337,0.00000015,0.00004605,0.001
 61311,0.00147578,-0.37584280,-0.55466518,-0.00000813,0.40315150,0.6624
 5184,-0.00000028,-0.00000096,0.02886699,-0.00498211,-0.00010159,-0.001
 12383,-0.00000022,0.00000005,-0.00029497,0.00498239,0.00010202,-0.0011
 2386,-0.00000614,-0.00000812,-0.07268096,0.00000663,0.00001091,0.02692
 541,-0.02172708,0.04304138,0.00000118,0.00053049,0.00109338,0.00008882
 ,-0.00866245,-0.00118212,-0.00000020,0.00053036,0.00109328,-0.00008878
 ,-0.12729989,0.05119367,0.00000111,0.03649457,-0.01047947,-0.00000026,
 0.12013401,0.01113473,-0.01495185,-0.00000042,0.00173477,-0.00042485,-
 0.00117262,0.00306941,0.00237011,0.00000005,0.00173469,-0.00042509,0.0
 0117241,0.07765517,-0.14584632,-0.00000188,-0.01056864,-0.10635028,-0.
 00000230,-0.08476012,0.26562827,0.00000031,-0.00000030,0.01426065,-0.0
 0318604,-0.00018436,0.00046148,0.,-0.00000013,0.00256403,0.00318632,0.
 00018414,0.00046154,0.00000153,-0.00000179,-0.05279208,-0.00000024,-0.
 00000230,0.01943124,-0.00000187,0.00000475,0.01561315||0.00001466,0.00
 002214,-0.00000012,-0.00000467,0.00000218,-0.00000446,0.00000876,0.000
 00981,-0.00000003,-0.00000472,0.00000213,0.00000455,-0.00002668,-0.000
 01101,0.00000007,0.00000959,-0.00000825,0.00000003,0.00000306,-0.00001
 701,-0.00000005|||@


       THE DEATH-KNELL OF THE ATOM

 SO THE ATOMS IN TURN, WE NOW CLEARLY DISCERN,
 FLY TO BITS WITH THE UTMOST FACILITY;
 THEY WEND ON THEIR WAY, AND, IN SPLITTING, DISPLAY
 AN ABSOLUTE LACK OF STABILITY.

          SIR WM. RAMSAY, 1905
 Job cpu time:  0 days  0 hours  1 minutes  3.0 seconds.
 File lengths (MBytes):  RWF=     10 Int=      0 D2E=      0 Chk=      1 Scr=      1
 Normal termination of Gaussian 09 at Wed Feb 25 13:02:11 2015.
