 Entering Link 1 = C:\G09W\l1.exe PID=      3852.
  
 Copyright (c) 1988,1990,1992,1993,1995,1998,2003,2009, Gaussian, Inc.
                  All Rights Reserved.
  
 This is part of the Gaussian(R) 09 program.  It is based on
 the Gaussian(R) 03 system (copyright 2003, Gaussian, Inc.),
 the Gaussian(R) 98 system (copyright 1998, Gaussian, Inc.),
 the Gaussian(R) 94 system (copyright 1995, Gaussian, Inc.),
 the Gaussian 92(TM) system (copyright 1992, Gaussian, Inc.),
 the Gaussian 90(TM) system (copyright 1990, Gaussian, Inc.),
 the Gaussian 88(TM) system (copyright 1988, Gaussian, Inc.),
 the Gaussian 86(TM) system (copyright 1986, Carnegie Mellon
 University), and the Gaussian 82(TM) system (copyright 1983,
 Carnegie Mellon University). Gaussian is a federally registered
 trademark of Gaussian, Inc.
  
 This software contains proprietary and confidential information,
 including trade secrets, belonging to Gaussian, Inc.
  
 This software is provided under written license and may be
 used, copied, transmitted, or stored only in accord with that
 written license.
  
 The following legend is applicable only to US Government
 contracts under FAR:
  
                    RESTRICTED RIGHTS LEGEND
  
 Use, reproduction and disclosure by the US Government is
 subject to restrictions as set forth in subparagraphs (a)
 and (c) of the Commercial Computer Software - Restricted
 Rights clause in FAR 52.227-19.
  
 Gaussian, Inc.
 340 Quinnipiac St., Bldg. 40, Wallingford CT 06492
  
  
 ---------------------------------------------------------------
 Warning -- This program may not be used in any manner that
 competes with the business of Gaussian, Inc. or will provide
 assistance to any competitor of Gaussian, Inc.  The licensee
 of this program is prohibited from giving any competitor of
 Gaussian, Inc. access to this program.  By using this program,
 the user acknowledges that Gaussian, Inc. is engaged in the
 business of creating and licensing software in the field of
 computational chemistry and represents and warrants to the
 licensee that it is not a competitor of Gaussian, Inc. and that
 it will not use this program in any manner prohibited above.
 ---------------------------------------------------------------
  

 Cite this work as:
 Gaussian 09, Revision A.02,
 M. J. Frisch, G. W. Trucks, H. B. Schlegel, G. E. Scuseria, 
 M. A. Robb, J. R. Cheeseman, G. Scalmani, V. Barone, B. Mennucci, 
 G. A. Petersson, H. Nakatsuji, M. Caricato, X. Li, H. P. Hratchian, 
 A. F. Izmaylov, J. Bloino, G. Zheng, J. L. Sonnenberg, M. Hada, 
 M. Ehara, K. Toyota, R. Fukuda, J. Hasegawa, M. Ishida, T. Nakajima, 
 Y. Honda, O. Kitao, H. Nakai, T. Vreven, J. A. Montgomery, Jr., 
 J. E. Peralta, F. Ogliaro, M. Bearpark, J. J. Heyd, E. Brothers, 
 K. N. Kudin, V. N. Staroverov, R. Kobayashi, J. Normand, 
 K. Raghavachari, A. Rendell, J. C. Burant, S. S. Iyengar, J. Tomasi, 
 M. Cossi, N. Rega, J. M. Millam, M. Klene, J. E. Knox, J. B. Cross, 
 V. Bakken, C. Adamo, J. Jaramillo, R. Gomperts, R. E. Stratmann, 
 O. Yazyev, A. J. Austin, R. Cammi, C. Pomelli, J. W. Ochterski, 
 R. L. Martin, K. Morokuma, V. G. Zakrzewski, G. A. Voth, 
 P. Salvador, J. J. Dannenberg, S. Dapprich, A. D. Daniels, 
 O. Farkas, J. B. Foresman, J. V. Ortiz, J. Cioslowski, 
 and D. J. Fox, Gaussian, Inc., Wallingford CT, 2009.
 
 ******************************************
 Gaussian 09:  IA32W-G09RevA.02 11-Jun-2009
                25-Feb-2015 
 ******************************************
 %chk=C:\Users\214584429\Dropbox\Ester(COOH)\fc.chk
 ----------------------------------------------------------
 # opt freq b3lyp/gen geom=connectivity gfinput pseudo=read
 ----------------------------------------------------------
 1/14=-1,18=20,19=15,26=3,38=1,57=2/1,3;
 2/9=110,12=2,17=6,18=5,40=1/2;
 3/5=7,11=2,16=1,17=8,24=10,25=1,30=1,71=1,74=-5/1,2,3;
 4//1;
 5/5=2,38=5/2;
 6/7=2,8=2,9=2,10=2,28=1/1;
 7//1,2,3,16;
 1/14=-1,18=20,19=15/3(2);
 2/9=110/2;
 99//99;
 2/9=110/2;
 3/5=7,6=1,11=2,16=1,17=8,25=1,30=1,71=1,74=-5,82=7/1,2,3;
 4/5=5,16=3/1;
 5/5=2,38=5/2;
 7//1,2,3,16;
 1/14=-1,18=20,19=15/3(-5);
 2/9=110/2;
 6/7=2,8=2,9=2,10=2,19=2,28=1/1;
 99/9=1/99;
 ---------------------
 gen calculation FAc-C H O=6-31+g(d)/F=LANL2DZ
 ---------------------
 Symbolic Z-matrix:
 Charge =  0 Multiplicity = 1
 C                     1.37869  -0.03125   0. 
 H                     1.7614    0.50902  -0.88336 
 H                     1.84595  -1.03091  -0.00007 
 H                     1.76139   0.50889   0.88344 
 C                    -0.09921  -0.13237  0. 
 O                    -0.82872  -1.07777   0. 
 F                    -0.71287   1.06854   0. 
 

 GradGradGradGradGradGradGradGradGradGradGradGradGradGradGradGradGradGrad
 Berny optimization.
 Initialization pass.
                           ----------------------------
                           !    Initial Parameters    !
                           ! (Angstroms and Degrees)  !
 --------------------------                            --------------------------
 ! Name  Definition              Value          Derivative Info.                !
 --------------------------------------------------------------------------------
 ! R1    R(1,2)                  1.1039         estimate D2E/DX2                !
 ! R2    R(1,3)                  1.1035         estimate D2E/DX2                !
 ! R3    R(1,4)                  1.1039         estimate D2E/DX2                !
 ! R4    R(1,5)                  1.4814         estimate D2E/DX2                !
 ! R5    R(5,6)                  1.1941         estimate D2E/DX2                !
 ! R6    R(5,7)                  1.3486         estimate D2E/DX2                !
 ! A1    A(2,1,3)              107.2481         estimate D2E/DX2                !
 ! A2    A(2,1,4)              106.3041         estimate D2E/DX2                !
 ! A3    A(2,1,5)              112.2884         estimate D2E/DX2                !
 ! A4    A(3,1,4)              107.2479         estimate D2E/DX2                !
 ! A5    A(3,1,5)              111.1378         estimate D2E/DX2                !
 ! A6    A(4,1,5)              112.288          estimate D2E/DX2                !
 ! A7    A(1,5,6)              131.57           estimate D2E/DX2                !
 ! A8    A(1,5,7)              113.1526         estimate D2E/DX2                !
 ! A9    A(6,5,7)              115.2773         estimate D2E/DX2                !
 ! D1    D(2,1,5,6)            120.1395         estimate D2E/DX2                !
 ! D2    D(2,1,5,7)            -59.861          estimate D2E/DX2                !
 ! D3    D(3,1,5,6)              0.0042         estimate D2E/DX2                !
 ! D4    D(3,1,5,7)           -179.9964         estimate D2E/DX2                !
 ! D5    D(4,1,5,6)           -120.1306         estimate D2E/DX2                !
 ! D6    D(4,1,5,7)             59.8688         estimate D2E/DX2                !
 --------------------------------------------------------------------------------
 Trust Radius=3.00D-01 FncErr=1.00D-07 GrdErr=1.00D-06
 Number of steps in this run=  31 maximum allowed number of steps= 100.
 GradGradGradGradGradGradGradGradGradGradGradGradGradGradGradGradGradGrad

                          Input orientation:                          
 ---------------------------------------------------------------------
 Center     Atomic      Atomic             Coordinates (Angstroms)
 Number     Number       Type             X           Y           Z
 ---------------------------------------------------------------------
      1          6           0        1.378693   -0.031247    0.000000
      2          1           0        1.761395    0.509015   -0.883364
      3          1           0        1.845953   -1.030909   -0.000068
      4          1           0        1.761393    0.508889    0.883441
      5          6           0       -0.099208   -0.132373   -0.000003
      6          8           0       -0.828724   -1.077768    0.000001
      7          9           0       -0.712874    1.068540    0.000001
 ---------------------------------------------------------------------
                    Distance matrix (angstroms):
                    1          2          3          4          5
     1  C    0.000000
     2  H    1.103937   0.000000
     3  H    1.103475   1.777281   0.000000
     4  H    1.103936   1.766805   1.777278   0.000000
     5  C    1.481357   2.157209   2.142666   2.157203   0.000000
     6  O    2.442928   3.163373   2.675087   3.163329   1.194138
     7  F    2.363088   2.686151   3.309876   2.686200   1.348621
                    6          7
     6  O    0.000000
     7  F    2.149432   0.000000
 Stoichiometry    C2H3FO
 Framework group  C1[X(C2H3FO)]
 Deg. of freedom    15
 Full point group                 C1      NOp   1
 Largest Abelian subgroup         C1      NOp   1
 Largest concise Abelian subgroup C1      NOp   1
                         Standard orientation:                         
 ---------------------------------------------------------------------
 Center     Atomic      Atomic             Coordinates (Angstroms)
 Number     Number       Type             X           Y           Z
 ---------------------------------------------------------------------
      1          6           0        1.378693   -0.031247    0.000000
      2          1           0        1.761395    0.509015   -0.883364
      3          1           0        1.845953   -1.030909   -0.000068
      4          1           0        1.761393    0.508889    0.883441
      5          6           0       -0.099208   -0.132373   -0.000003
      6          8           0       -0.828724   -1.077767    0.000000
      7          9           0       -0.712873    1.068541    0.000000
 ---------------------------------------------------------------------
 Rotational constants (GHZ):     11.5880396      9.3123761      5.3346202
 General basis read from cards:  (5D, 7F)
 AO basis set in the form of general basis input (Overlap normalization):
      1 0
 S   6 1.00       0.000000000000
      0.3047524880D+04  0.1834737132D-02
      0.4573695180D+03  0.1403732281D-01
      0.1039486850D+03  0.6884262226D-01
      0.2921015530D+02  0.2321844432D+00
      0.9286662960D+01  0.4679413484D+00
      0.3163926960D+01  0.3623119853D+00
 SP   3 1.00       0.000000000000
      0.7868272350D+01 -0.1193324198D+00  0.6899906659D-01
      0.1881288540D+01 -0.1608541517D+00  0.3164239610D+00
      0.5442492580D+00  0.1143456438D+01  0.7443082909D+00
 SP   1 1.00       0.000000000000
      0.1687144782D+00  0.1000000000D+01  0.1000000000D+01
 SP   1 1.00       0.000000000000
      0.4380000000D-01  0.1000000000D+01  0.1000000000D+01
 D   1 1.00       0.000000000000
      0.8000000000D+00  0.1000000000D+01
 ****
      2 0
 S   3 1.00       0.000000000000
      0.1873113696D+02  0.3349460434D-01
      0.2825394365D+01  0.2347269535D+00
      0.6401216923D+00  0.8137573261D+00
 S   1 1.00       0.000000000000
      0.1612777588D+00  0.1000000000D+01
 ****
      3 0
 S   3 1.00       0.000000000000
      0.1873113696D+02  0.3349460434D-01
      0.2825394365D+01  0.2347269535D+00
      0.6401216923D+00  0.8137573261D+00
 S   1 1.00       0.000000000000
      0.1612777588D+00  0.1000000000D+01
 ****
      4 0
 S   3 1.00       0.000000000000
      0.1873113696D+02  0.3349460434D-01
      0.2825394365D+01  0.2347269535D+00
      0.6401216923D+00  0.8137573261D+00
 S   1 1.00       0.000000000000
      0.1612777588D+00  0.1000000000D+01
 ****
      5 0
 S   6 1.00       0.000000000000
      0.3047524880D+04  0.1834737132D-02
      0.4573695180D+03  0.1403732281D-01
      0.1039486850D+03  0.6884262226D-01
      0.2921015530D+02  0.2321844432D+00
      0.9286662960D+01  0.4679413484D+00
      0.3163926960D+01  0.3623119853D+00
 SP   3 1.00       0.000000000000
      0.7868272350D+01 -0.1193324198D+00  0.6899906659D-01
      0.1881288540D+01 -0.1608541517D+00  0.3164239610D+00
      0.5442492580D+00  0.1143456438D+01  0.7443082909D+00
 SP   1 1.00       0.000000000000
      0.1687144782D+00  0.1000000000D+01  0.1000000000D+01
 SP   1 1.00       0.000000000000
      0.4380000000D-01  0.1000000000D+01  0.1000000000D+01
 D   1 1.00       0.000000000000
      0.8000000000D+00  0.1000000000D+01
 ****
      6 0
 S   6 1.00       0.000000000000
      0.5484671660D+04  0.1831074430D-02
      0.8252349460D+03  0.1395017220D-01
      0.1880469580D+03  0.6844507810D-01
      0.5296450000D+02  0.2327143360D+00
      0.1689757040D+02  0.4701928980D+00
      0.5799635340D+01  0.3585208530D+00
 SP   3 1.00       0.000000000000
      0.1553961625D+02 -0.1107775495D+00  0.7087426823D-01
      0.3599933586D+01 -0.1480262627D+00  0.3397528391D+00
      0.1013761750D+01  0.1130767015D+01  0.7271585773D+00
 SP   1 1.00       0.000000000000
      0.2700058226D+00  0.1000000000D+01  0.1000000000D+01
 SP   1 1.00       0.000000000000
      0.8450000000D-01  0.1000000000D+01  0.1000000000D+01
 D   1 1.00       0.000000000000
      0.8000000000D+00  0.1000000000D+01
 ****
      7 0
 S   7 1.00       0.000000000000
      0.9995000000D+04  0.1165998577D-02
      0.1506000000D+04  0.8875989168D-02
      0.3503000000D+03  0.4237994828D-01
      0.1041000000D+03  0.1429288256D+00
      0.3484000000D+02  0.3553715663D+00
      0.1222000000D+02  0.4620844361D+00
      0.4369000000D+01  0.1408478281D+00
 S   2 1.00       0.000000000000
      0.1222000000D+02 -0.1484519214D+00
      0.1208000000D+01  0.1055269442D+01
 S   1 1.00       0.000000000000
      0.3634000000D+00  0.1000000000D+01
 P   4 1.00       0.000000000000
      0.4436000000D+02  0.2087600240D-01
      0.1008000000D+02  0.1301070149D+00
      0.2996000000D+01  0.3961660455D+00
      0.9383000000D+00  0.6204040713D+00
 P   1 1.00       0.000000000000
      0.2733000000D+00  0.1000000000D+01
 ****

 ======================================================================================================
                                       Pseudopotential Parameters
 ======================================================================================================
  Center     Atomic      Valence      Angular      Power
  Number     Number     Electrons     Momentum     of R      Exponent        Coefficient   SO-Coeffient
 ======================================================================================================
    1          6
                                   No pseudopotential on this center.
    2          1
                                   No pseudopotential on this center.
    3          1
                                   No pseudopotential on this center.
    4          1
                                   No pseudopotential on this center.
    5          6
                                   No pseudopotential on this center.
    6          8
                                   No pseudopotential on this center.
    7          9
                                   No pseudopotential on this center.
 ======================================================================================================
 There are    69 symmetry adapted basis functions of A   symmetry.
 Integral buffers will be    262144 words long.
 Raffenetti 2 integral format.
 Two-electron integral symmetry is turned on.
    69 basis functions,   133 primitive gaussians,    72 cartesian basis functions
    16 alpha electrons       16 beta electrons
       nuclear repulsion energy       118.7299102007 Hartrees.
 NAtoms=    7 NActive=    7 NUniq=    7 SFac= 7.50D-01 NAtFMM=   80 NAOKFM=F Big=F
 One-electron integrals computed using PRISM.
   1 Symmetry operations used in ECPInt.
 ECPInt:  NShTT=     351 NPrTT=    2107 LenC2=     352 LenP2D=    1683.
 LDataN:  DoStor=T MaxTD1= 4 Len=   56
 NBasis=    69 RedAO= T  NBF=    69
 NBsUse=    69 1.00D-06 NBFU=    69
 Harris functional with IExCor=  402 diagonalized for initial guess.
 ExpMin= 4.38D-02 ExpMax= 1.00D+04 ExpMxC= 8.25D+02 IAcc=2 IRadAn=         0 AccDes= 0.00D+00
 HarFok:  IExCor=  402 AccDes= 0.00D+00 IRadAn=         0 IDoV= 1
 ScaDFX=  1.000000  1.000000  1.000000  1.000000
 FoFCou: FMM=F IPFlag=           0 FMFlag=      100000 FMFlg1=           0
         NFxFlg=           0 DoJE=T BraDBF=F KetDBF=T FulRan=T
         Omega=  0.000000  0.000000  1.000000  0.000000  0.000000 ICntrl=     500 IOpCl=  0
         NMat0=    1 NMatS0=    1 NMatT0=    0 NMatD0=    1 NMtDS0=    0 NMtDT0=    0
         I1Cent=           4 NGrid=           0.
 Petite list used in FoFCou.
 Initial guess orbital symmetries:
       Occupied  (A) (A) (A) (A) (A) (A) (A) (A) (A) (A) (A) (A)
                 (A) (A) (A) (A)
       Virtual   (A) (A) (A) (A) (A) (A) (A) (A) (A) (A) (A) (A)
                 (A) (A) (A) (A) (A) (A) (A) (A) (A) (A) (A) (A)
                 (A) (A) (A) (A) (A) (A) (A) (A) (A) (A) (A) (A)
                 (A) (A) (A) (A) (A) (A) (A) (A) (A) (A) (A) (A)
                 (A) (A) (A) (A) (A)
 The electronic state of the initial guess is 1-A.
 Requested convergence on RMS density matrix=1.00D-08 within 128 cycles.
 Requested convergence on MAX density matrix=1.00D-06.
 Requested convergence on             energy=1.00D-06.
 No special actions if energy rises.
 Keep R1 ints in memory in canonical form, NReq=4437240.
 SCF Done:  E(RB3LYP) =  -253.120403400     A.U. after   11 cycles
             Convg  =    0.8700D-08             -V/T =  2.0060

 **********************************************************************

            Population analysis using the SCF density.

 **********************************************************************

 Orbital symmetries:
       Occupied  (A) (A) (A) (A) (A) (A) (A) (A) (A) (A) (A) (A)
                 (A) (A) (A) (A)
       Virtual   (A) (A) (A) (A) (A) (A) (A) (A) (A) (A) (A) (A)
                 (A) (A) (A) (A) (A) (A) (A) (A) (A) (A) (A) (A)
                 (A) (A) (A) (A) (A) (A) (A) (A) (A) (A) (A) (A)
                 (A) (A) (A) (A) (A) (A) (A) (A) (A) (A) (A) (A)
                 (A) (A) (A) (A) (A)
 The electronic state is 1-A.
 Alpha  occ. eigenvalues --  -24.72880 -19.17967 -10.36776 -10.22859  -1.26200
 Alpha  occ. eigenvalues --   -1.08221  -0.79276  -0.61877  -0.53675  -0.51939
 Alpha  occ. eigenvalues --   -0.50405  -0.44089  -0.44078  -0.40987  -0.38006
 Alpha  occ. eigenvalues --   -0.32096
 Alpha virt. eigenvalues --   -0.03606  -0.00410   0.03783   0.04425   0.04712
 Alpha virt. eigenvalues --    0.07959   0.08126   0.08901   0.13263   0.14482
 Alpha virt. eigenvalues --    0.16123   0.19512   0.22491   0.25138   0.25686
 Alpha virt. eigenvalues --    0.27656   0.28541   0.32256   0.48106   0.61320
 Alpha virt. eigenvalues --    0.61452   0.65113   0.67338   0.67607   0.74460
 Alpha virt. eigenvalues --    0.88366   0.90224   0.90589   0.96266   0.99459
 Alpha virt. eigenvalues --    1.03928   1.08633   1.19456   1.20570   1.24913
 Alpha virt. eigenvalues --    1.32541   1.37985   1.53820   1.61675   1.68733
 Alpha virt. eigenvalues --    1.76665   1.79772   1.86854   1.99727   2.03245
 Alpha virt. eigenvalues --    2.16869   2.28017   2.29054   2.37612   2.54101
 Alpha virt. eigenvalues --    2.58045   2.87067   3.09176
          Condensed to atoms (all electrons):
              1          2          3          4          5          6
     1  C    5.773436   0.373761   0.363735   0.373756   0.125582  -0.106130
     2  H    0.373761   0.461884  -0.024620  -0.023181  -0.034428   0.000894
     3  H    0.363735  -0.024620   0.459798  -0.024620  -0.022504  -0.001169
     4  H    0.373756  -0.023181  -0.024620   0.461881  -0.034422   0.000893
     5  C    0.125582  -0.034428  -0.022504  -0.034422   4.615995   0.397804
     6  O   -0.106130   0.000894  -0.001169   0.000893   0.397804   8.164800
     7  F   -0.134103  -0.000814   0.002026  -0.000814   0.405960  -0.096988
              7
     1  C   -0.134103
     2  H   -0.000814
     3  H    0.002026
     4  H   -0.000814
     5  C    0.405960
     6  O   -0.096988
     7  F    8.980971
 Mulliken atomic charges:
              1
     1  C   -0.770037
     2  H    0.246505
     3  H    0.247354
     4  H    0.246506
     5  C    0.546014
     6  O   -0.360104
     7  F   -0.156238
 Sum of Mulliken atomic charges =   0.00000
 Mulliken charges with hydrogens summed into heavy atoms:
              1
     1  C   -0.029672
     5  C    0.546014
     6  O   -0.360104
     7  F   -0.156238
 Sum of Mulliken charges with hydrogens summed into heavy atoms =   0.00000
 Electronic spatial extent (au):  <R**2>=            244.8153
 Charge=              0.0000 electrons
 Dipole moment (field-independent basis, Debye):
    X=              3.3938    Y=              0.6676    Z=              0.0000  Tot=              3.4588
 Quadrupole moment (field-independent basis, Debye-Ang):
   XX=            -22.3513   YY=            -26.2333   ZZ=            -21.4924
   XY=             -0.7217   XZ=              0.0000   YZ=              0.0000
 Traceless Quadrupole moment (field-independent basis, Debye-Ang):
   XX=              1.0077   YY=             -2.8743   ZZ=              1.8666
   XY=             -0.7217   XZ=              0.0000   YZ=              0.0000
 Octapole moment (field-independent basis, Debye-Ang**2):
  XXX=             -0.9967  YYY=              5.4109  ZZZ=              0.0002  XYY=              1.7057
  XXY=              2.2497  XXZ=              0.0000  XZZ=             -1.4002  YZZ=              2.2598
  YYZ=             -0.0001  XYZ=              0.0000
 Hexadecapole moment (field-independent basis, Debye-Ang**3):
 XXXX=           -157.2854 YYYY=           -106.4870 ZZZZ=            -25.5918 XXXY=             -4.4567
 XXXZ=              0.0000 YYYX=             -5.6561 YYYZ=              0.0000 ZZZX=              0.0003
 ZZZY=              0.0000 XXYY=            -43.1530 XXZZ=            -29.0552 YYZZ=            -21.1072
 XXYZ=              0.0000 YYXZ=             -0.0003 ZZXY=              0.5093
 N-N= 1.187299102007D+02 E-N=-8.337016709010D+02  KE= 2.516227182919D+02
   1 Symmetry operations used in ECPInt.
 ECPInt:  NShTT=     351 NPrTT=    2107 LenC2=     352 LenP2D=    1683.
 LDataN:  DoStor=T MaxTD1= 5 Len=  102
 Calling FoFJK, ICntrl=      2127 FMM=F ISym2X=0 I1Cent= 0 IOpClX= 0 NMat=1 NMatS=1 NMatT=0.
 ***** Axes restored to original set *****
 -------------------------------------------------------------------
 Center     Atomic                   Forces (Hartrees/Bohr)
 Number     Number              X              Y              Z
 -------------------------------------------------------------------
      1        6           0.025275488   -0.005193519   -0.000001615
      2        1          -0.006449979   -0.000446302    0.003240303
      3        1          -0.007089921    0.004678779    0.000000530
      4        1          -0.006449587   -0.000445325   -0.003239481
      5        6          -0.019104505   -0.014970336    0.000000599
      6        8           0.012125714   -0.012807280   -0.000000309
      7        9           0.001692790    0.029183982   -0.000000027
 -------------------------------------------------------------------
 Cartesian Forces:  Max     0.029183982 RMS     0.011121182

 GradGradGradGradGradGradGradGradGradGradGradGradGradGradGradGradGradGrad
 Berny optimization.
 Internal  Forces:  Max     0.025667957 RMS     0.009528285
 Search for a local minimum.
 Step number   1 out of a maximum of   31
 All quantities printed in internal units (Hartrees-Bohrs-Radians)
 Mixed Optimization -- RFO/linear search
 Second derivative matrix not updated -- first step.
     Eigenvalues ---    0.01013   0.01013   0.07158   0.07246   0.16000
     Eigenvalues ---    0.16000   0.16000   0.25000   0.25000   0.33250
     Eigenvalues ---    0.33251   0.33301   0.34415   0.55316   1.07825
     Eigenvalues --- 1000.000001000.000001000.000001000.000001000.00000
     Eigenvalues --- 1000.00000
 RFO step:  Lambda=-6.29735548D-03 EMin= 1.01256184D-02
 Linear search not attempted -- first point.
 Iteration  1 RMS(Cart)=  0.04226204 RMS(Int)=  0.00108710
 Iteration  2 RMS(Cart)=  0.00108678 RMS(Int)=  0.00029430
 Iteration  3 RMS(Cart)=  0.00000057 RMS(Int)=  0.00029430
 Variable       Old X    -DE/DX   Delta X   Delta X   Delta X     New X
                                 (Linear)    (Quad)   (Total)
    R1        2.08614  -0.00505   0.00000  -0.01490  -0.01490   2.07124
    R2        2.08526  -0.00724   0.00000  -0.02134  -0.02134   2.06392
    R3        2.08614  -0.00505   0.00000  -0.01489  -0.01489   2.07124
    R4        2.79936   0.00518   0.00000   0.01478   0.01478   2.81413
    R5        2.25659   0.00273   0.00000   0.00252   0.00252   2.25911
    R6        2.54852   0.02522   0.00000   0.04507   0.04507   2.59360
    A1        1.87183   0.00540   0.00000   0.03667   0.03652   1.90835
    A2        1.85536   0.00405   0.00000   0.01602   0.01512   1.87048
    A3        1.95980  -0.00516   0.00000  -0.03332  -0.03385   1.92595
    A4        1.87183   0.00540   0.00000   0.03667   0.03651   1.90834
    A5        1.93972  -0.00336   0.00000  -0.01563  -0.01580   1.92392
    A6        1.95980  -0.00516   0.00000  -0.03332  -0.03385   1.92594
    A7        2.29633  -0.01366   0.00000  -0.05329  -0.05329   2.24304
    A8        1.97489  -0.01201   0.00000  -0.04686  -0.04686   1.92803
    A9        2.01197   0.02567   0.00000   0.10015   0.10015   2.11212
    D1        2.09683   0.00103   0.00000   0.01317   0.01287   2.10970
    D2       -1.04477   0.00103   0.00000   0.01319   0.01289  -1.03189
    D3        0.00007   0.00000   0.00000  -0.00001  -0.00001   0.00006
    D4       -3.14153   0.00000   0.00000   0.00000   0.00000  -3.14153
    D5       -2.09668  -0.00103   0.00000  -0.01319  -0.01289  -2.10957
    D6        1.04491  -0.00103   0.00000  -0.01318  -0.01288   1.03203
         Item               Value     Threshold  Converged?
 Maximum Force            0.025668     0.000450     NO 
 RMS     Force            0.009528     0.000300     NO 
 Maximum Displacement     0.090701     0.001800     NO 
 RMS     Displacement     0.042491     0.001200     NO 
 Predicted change in Energy=-3.222856D-03
 GradGradGradGradGradGradGradGradGradGradGradGradGradGradGradGradGradGrad

                          Input orientation:                          
 ---------------------------------------------------------------------
 Center     Atomic      Atomic             Coordinates (Angstroms)
 Number     Number       Type             X           Y           Z
 ---------------------------------------------------------------------
      1          6           0        1.381954   -0.038464    0.000000
      2          1           0        1.727971    0.512607   -0.882002
      3          1           0        1.825534   -1.036510   -0.000067
      4          1           0        1.727973    0.512483    0.882079
      5          6           0       -0.104067   -0.135344    0.000000
      6          8           0       -0.786110   -1.117162   -0.000003
      7          9           0       -0.666627    1.116537    0.000000
 ---------------------------------------------------------------------
                    Distance matrix (angstroms):
                    1          2          3          4          5
     1  C    0.000000
     2  H    1.096054   0.000000
     3  H    1.092180   1.785242   0.000000
     4  H    1.096055   1.764082   1.785239   0.000000
     5  C    1.489176   2.134041   2.129662   2.134036   0.000000
     6  O    2.421589   3.123248   2.612890   3.123208   1.195471
     7  F    2.351747   2.622358   3.293399   2.622414   1.372472
                    6          7
     6  O    0.000000
     7  F    2.236893   0.000000
 Stoichiometry    C2H3FO
 Framework group  C1[X(C2H3FO)]
 Deg. of freedom    15
 Full point group                 C1      NOp   1
 Largest Abelian subgroup         C1      NOp   1
 Largest concise Abelian subgroup C1      NOp   1
                         Standard orientation:                         
 ---------------------------------------------------------------------
 Center     Atomic      Atomic             Coordinates (Angstroms)
 Number     Number       Type             X           Y           Z
 ---------------------------------------------------------------------
      1          6           0        1.361482   -0.034360    0.000000
      2          1           0        1.705110    0.518204   -0.882002
      3          1           0        1.809379   -1.030476   -0.000067
      4          1           0        1.705113    0.518080    0.882080
      5          6           0       -0.124105   -0.137672    0.000001
      6          8           0       -0.801892   -1.122434   -0.000003
      7          9           0       -0.692080    1.111762    0.000001
 ---------------------------------------------------------------------
 Rotational constants (GHZ):     10.7596446      9.7091943      5.2706721
 Basis read from rwf:  (5D, 7F)
 Pseudo-potential data read from rwf file.
 There are    69 symmetry adapted basis functions of A   symmetry.
 Integral buffers will be    262144 words long.
 Raffenetti 2 integral format.
 Two-electron integral symmetry is turned on.
    69 basis functions,   133 primitive gaussians,    72 cartesian basis functions
    16 alpha electrons       16 beta electrons
       nuclear repulsion energy       118.0027480443 Hartrees.
 NAtoms=    7 NActive=    7 NUniq=    7 SFac= 7.50D-01 NAtFMM=   80 NAOKFM=F Big=F
 One-electron integrals computed using PRISM.
   1 Symmetry operations used in ECPInt.
 ECPInt:  NShTT=     351 NPrTT=    2107 LenC2=     352 LenP2D=    1683.
 LDataN:  DoStor=T MaxTD1= 4 Len=   56
 NBasis=    69 RedAO= T  NBF=    69
 NBsUse=    69 1.00D-06 NBFU=    69
 Initial guess read from the read-write file.
 B after Tr=     0.000000    0.000000    0.000000
         Rot=    1.000000    0.000000    0.000000    0.000000 Ang=   0.00 deg.
 Initial guess orbital symmetries:
       Occupied  (A) (A) (A) (A) (A) (A) (A) (A) (A) (A) (A) (A)
                 (A) (A) (A) (A)
       Virtual   (A) (A) (A) (A) (A) (A) (A) (A) (A) (A) (A) (A)
                 (A) (A) (A) (A) (A) (A) (A) (A) (A) (A) (A) (A)
                 (A) (A) (A) (A) (A) (A) (A) (A) (A) (A) (A) (A)
                 (A) (A) (A) (A) (A) (A) (A) (A) (A) (A) (A) (A)
                 (A) (A) (A) (A) (A)
 Harris functional with IExCor=  402 diagonalized for initial guess.
 ExpMin= 4.38D-02 ExpMax= 1.00D+04 ExpMxC= 8.25D+02 IAcc=2 IRadAn=         0 AccDes= 0.00D+00
 HarFok:  IExCor=  402 AccDes= 0.00D+00 IRadAn=         0 IDoV= 1
 ScaDFX=  1.000000  1.000000  1.000000  1.000000
 FoFCou: FMM=F IPFlag=           0 FMFlag=      100000 FMFlg1=           0
         NFxFlg=           0 DoJE=T BraDBF=F KetDBF=T FulRan=T
         Omega=  0.000000  0.000000  1.000000  0.000000  0.000000 ICntrl=     500 IOpCl=  0
         NMat0=    1 NMatS0=    1 NMatT0=    0 NMatD0=    1 NMtDS0=    0 NMtDT0=    0
         I1Cent=           4 NGrid=           0.
 Petite list used in FoFCou.
 Requested convergence on RMS density matrix=1.00D-08 within 128 cycles.
 Requested convergence on MAX density matrix=1.00D-06.
 Requested convergence on             energy=1.00D-06.
 No special actions if energy rises.
 Keep R1 ints in memory in canonical form, NReq=4437094.
 SCF Done:  E(RB3LYP) =  -253.123228229     A.U. after   10 cycles
             Convg  =    0.8937D-08             -V/T =  2.0061
   1 Symmetry operations used in ECPInt.
 ECPInt:  NShTT=     351 NPrTT=    2107 LenC2=     352 LenP2D=    1683.
 LDataN:  DoStor=T MaxTD1= 5 Len=  102
 Calling FoFJK, ICntrl=      2127 FMM=F ISym2X=0 I1Cent= 0 IOpClX= 0 NMat=1 NMatS=1 NMatT=0.
 ***** Axes restored to original set *****
 -------------------------------------------------------------------
 Center     Atomic                   Forces (Hartrees/Bohr)
 Number     Number              X              Y              Z
 -------------------------------------------------------------------
      1        6           0.009255587   -0.000590128    0.000000038
      2        1          -0.001045429    0.000563294    0.000185247
      3        1          -0.001452392    0.000248757    0.000000183
      4        1          -0.001045289    0.000563437   -0.000185115
      5        6          -0.002555474   -0.012932270   -0.000001156
      6        8           0.001433730    0.009825573    0.000000372
      7        9          -0.004590734    0.002321337    0.000000430
 -------------------------------------------------------------------
 Cartesian Forces:  Max     0.012932270 RMS     0.004308957

 GradGradGradGradGradGradGradGradGradGradGradGradGradGradGradGradGradGrad
 Berny optimization.
 Using GEDIIS/GDIIS optimizer.
 Internal  Forces:  Max     0.008885753 RMS     0.003042448
 Search for a local minimum.
 Step number   2 out of a maximum of   31
 All quantities printed in internal units (Hartrees-Bohrs-Radians)
 Mixed Optimization -- RFO/linear search
 Update second derivatives using D2CorX and points    1    2
 DE= -2.82D-03 DEPred=-3.22D-03 R= 8.76D-01
 SS=  1.41D+00  RLast= 1.56D-01 DXNew= 5.0454D-01 4.6786D-01
 Trust test= 8.76D-01 RLast= 1.56D-01 DXMaxT set to 4.68D-01
 Use linear search instead of GDIIS.
     Eigenvalues ---    0.01013   0.01013   0.07462   0.07484   0.14932
     Eigenvalues ---    0.16000   0.16004   0.24971   0.29884   0.32617
     Eigenvalues ---    0.33251   0.33282   0.36169   0.52177   1.10220
     Eigenvalues --- 1000.000001000.000001000.000001000.000001000.00000
     Eigenvalues --- 1000.00000
 RFO step:  Lambda=-3.88718802D-04 EMin= 1.01256184D-02
 Quartic linear search produced a step of -0.07204.
 Iteration  1 RMS(Cart)=  0.00746402 RMS(Int)=  0.00004831
 Iteration  2 RMS(Cart)=  0.00005164 RMS(Int)=  0.00000175
 Iteration  3 RMS(Cart)=  0.00000000 RMS(Int)=  0.00000175
 Variable       Old X    -DE/DX   Delta X   Delta X   Delta X     New X
                                 (Linear)    (Quad)   (Total)
    R1        2.07124  -0.00019   0.00107  -0.00249  -0.00142   2.06983
    R2        2.06392  -0.00082   0.00154  -0.00507  -0.00353   2.06039
    R3        2.07124  -0.00019   0.00107  -0.00249  -0.00142   2.06983
    R4        2.81413   0.00575  -0.00106   0.01742   0.01636   2.83049
    R5        2.25911  -0.00889  -0.00018  -0.00731  -0.00749   2.25162
    R6        2.59360   0.00400  -0.00325   0.01266   0.00941   2.60300
    A1        1.90835   0.00137  -0.00263   0.01365   0.01101   1.91936
    A2        1.87048   0.00058  -0.00109   0.00285   0.00176   1.87224
    A3        1.92595  -0.00107   0.00244  -0.01111  -0.00867   1.91728
    A4        1.90834   0.00137  -0.00263   0.01365   0.01101   1.91935
    A5        1.92392  -0.00109   0.00114  -0.00719  -0.00605   1.91787
    A6        1.92594  -0.00107   0.00244  -0.01111  -0.00867   1.91727
    A7        2.24304   0.00386   0.00384   0.00740   0.01124   2.25428
    A8        1.92803   0.00227   0.00338   0.00235   0.00573   1.93376
    A9        2.11212  -0.00613  -0.00721  -0.00976  -0.01697   2.09515
    D1        2.10970   0.00031  -0.00093   0.00515   0.00422   2.11392
    D2       -1.03189   0.00031  -0.00093   0.00510   0.00417  -1.02771
    D3        0.00006   0.00000   0.00000   0.00002   0.00002   0.00008
    D4       -3.14153   0.00000   0.00000  -0.00003  -0.00003  -3.14156
    D5       -2.10957  -0.00031   0.00093  -0.00511  -0.00418  -2.11375
    D6        1.03203  -0.00031   0.00093  -0.00516  -0.00423   1.02779
         Item               Value     Threshold  Converged?
 Maximum Force            0.008886     0.000450     NO 
 RMS     Force            0.003042     0.000300     NO 
 Maximum Displacement     0.018802     0.001800     NO 
 RMS     Displacement     0.007456     0.001200     NO 
 Predicted change in Energy=-2.120281D-04
 GradGradGradGradGradGradGradGradGradGradGradGradGradGradGradGradGradGrad

                          Input orientation:                          
 ---------------------------------------------------------------------
 Center     Atomic      Atomic             Coordinates (Angstroms)
 Number     Number       Type             X           Y           Z
 ---------------------------------------------------------------------
      1          6           0        1.391904   -0.040859   -0.000003
      2          1           0        1.728240    0.514747   -0.881974
      3          1           0        1.829046   -1.039702   -0.000062
      4          1           0        1.728228    0.514632    0.882046
      5          6           0       -0.102719   -0.138841   -0.000014
      6          8           0       -0.793110   -1.109950   -0.000001
      7          9           0       -0.674961    1.114120    0.000015
 ---------------------------------------------------------------------
                    Distance matrix (angstroms):
                    1          2          3          4          5
     1  C    0.000000
     2  H    1.095304   0.000000
     3  H    1.090312   1.790040   0.000000
     4  H    1.095305   1.764020   1.790036   0.000000
     5  C    1.497831   2.134816   2.131494   2.134812   0.000000
     6  O    2.432538   3.126455   2.623096   3.126406   1.191509
     7  F    2.367680   2.629169   3.302877   2.629198   1.377451
                    6          7
     6  O    0.000000
     7  F    2.227205   0.000000
 Stoichiometry    C2H3FO
 Framework group  C1[X(C2H3FO)]
 Deg. of freedom    15
 Full point group                 C1      NOp   1
 Largest Abelian subgroup         C1      NOp   1
 Largest concise Abelian subgroup C1      NOp   1
                         Standard orientation:                         
 ---------------------------------------------------------------------
 Center     Atomic      Atomic             Coordinates (Angstroms)
 Number     Number       Type             X           Y           Z
 ---------------------------------------------------------------------
      1          6           0       -1.373588    0.023160   -0.000004
      2          1           0       -1.701985   -0.537175   -0.881975
      3          1           0       -1.824898    1.015682   -0.000063
      4          1           0       -1.701975   -0.537060    0.882045
      5          6           0        0.119489    0.142398   -0.000015
      6          8           0        0.795993    1.123232   -0.000002
      7          9           0        0.709501   -1.102294    0.000014
 ---------------------------------------------------------------------
 Rotational constants (GHZ):     10.8418510      9.5742392      5.2499875
 Basis read from rwf:  (5D, 7F)
 Pseudo-potential data read from rwf file.
 There are    69 symmetry adapted basis functions of A   symmetry.
 Integral buffers will be    262144 words long.
 Raffenetti 2 integral format.
 Two-electron integral symmetry is turned on.
    69 basis functions,   133 primitive gaussians,    72 cartesian basis functions
    16 alpha electrons       16 beta electrons
       nuclear repulsion energy       117.8517250627 Hartrees.
 NAtoms=    7 NActive=    7 NUniq=    7 SFac= 7.50D-01 NAtFMM=   80 NAOKFM=F Big=F
 One-electron integrals computed using PRISM.
   1 Symmetry operations used in ECPInt.
 ECPInt:  NShTT=     351 NPrTT=    2107 LenC2=     352 LenP2D=    1682.
 LDataN:  DoStor=T MaxTD1= 4 Len=   56
 NBasis=    69 RedAO= T  NBF=    69
 NBsUse=    69 1.00D-06 NBFU=    69
 Initial guess read from the read-write file.
 B after Tr=     0.000000    0.000000    0.000000
         Rot=    1.000000    0.000000    0.000000    0.000000 Ang=   0.00 deg.
 Initial guess orbital symmetries:
       Occupied  (A) (A) (A) (A) (A) (A) (A) (A) (A) (A) (A) (A)
                 (A) (A) (A) (A)
       Virtual   (A) (A) (A) (A) (A) (A) (A) (A) (A) (A) (A) (A)
                 (A) (A) (A) (A) (A) (A) (A) (A) (A) (A) (A) (A)
                 (A) (A) (A) (A) (A) (A) (A) (A) (A) (A) (A) (A)
                 (A) (A) (A) (A) (A) (A) (A) (A) (A) (A) (A) (A)
                 (A) (A) (A) (A) (A)
 Requested convergence on RMS density matrix=1.00D-08 within 128 cycles.
 Requested convergence on MAX density matrix=1.00D-06.
 Requested convergence on             energy=1.00D-06.
 No special actions if energy rises.
 Keep R1 ints in memory in canonical form, NReq=4437094.
 SCF Done:  E(RB3LYP) =  -253.123489296     A.U. after   12 cycles
             Convg  =    0.5864D-08             -V/T =  2.0061
   1 Symmetry operations used in ECPInt.
 ECPInt:  NShTT=     351 NPrTT=    2107 LenC2=     352 LenP2D=    1682.
 LDataN:  DoStor=T MaxTD1= 5 Len=  102
 Calling FoFJK, ICntrl=      2127 FMM=F ISym2X=0 I1Cent= 0 IOpClX= 0 NMat=1 NMatS=1 NMatT=0.
 ***** Axes restored to original set *****
 -------------------------------------------------------------------
 Center     Atomic                   Forces (Hartrees/Bohr)
 Number     Number              X              Y              Z
 -------------------------------------------------------------------
      1        6           0.001430590    0.000848911   -0.000001685
      2        1          -0.000251191    0.000173937   -0.000142595
      3        1          -0.000316943   -0.000363232   -0.000000115
      4        1          -0.000251996    0.000173966    0.000142514
      5        6          -0.000137083   -0.005588322    0.000005270
      6        8           0.000591871    0.002873161   -0.000002044
      7        9          -0.001065249    0.001881578   -0.000001346
 -------------------------------------------------------------------
 Cartesian Forces:  Max     0.005588322 RMS     0.001508011

 GradGradGradGradGradGradGradGradGradGradGradGradGradGradGradGradGradGrad
 Berny optimization.
 Using GEDIIS/GDIIS optimizer.
 Internal  Forces:  Max     0.002682544 RMS     0.000902025
 Search for a local minimum.
 Step number   3 out of a maximum of   31
 All quantities printed in internal units (Hartrees-Bohrs-Radians)
 Mixed Optimization -- En-DIIS/RFO-DIIS
 Update second derivatives using D2CorX and points    1    2    3
 DE= -2.61D-04 DEPred=-2.12D-04 R= 1.23D+00
 SS=  1.41D+00  RLast= 3.71D-02 DXNew= 7.8685D-01 1.1141D-01
 Trust test= 1.23D+00 RLast= 3.71D-02 DXMaxT set to 4.68D-01
 Use linear search instead of GDIIS.
     Eigenvalues ---    0.01013   0.01013   0.07528   0.07612   0.13506
     Eigenvalues ---    0.16000   0.16003   0.24016   0.29160   0.33230
     Eigenvalues ---    0.33251   0.33387   0.34547   0.49790   1.04209
     Eigenvalues --- 1000.000001000.000001000.000001000.000001000.00000
     Eigenvalues --- 1000.00000
 RFO step:  Lambda=-2.30518045D-05 EMin= 1.01256181D-02
 Quartic linear search produced a step of  0.31957.
 Iteration  1 RMS(Cart)=  0.00320388 RMS(Int)=  0.00001863
 Iteration  2 RMS(Cart)=  0.00001630 RMS(Int)=  0.00001158
 Iteration  3 RMS(Cart)=  0.00000000 RMS(Int)=  0.00001158
 Variable       Old X    -DE/DX   Delta X   Delta X   Delta X     New X
                                 (Linear)    (Quad)   (Total)
    R1        2.06983   0.00013  -0.00045   0.00055   0.00010   2.06992
    R2        2.06039   0.00020  -0.00113   0.00128   0.00015   2.06054
    R3        2.06983   0.00013  -0.00045   0.00055   0.00010   2.06992
    R4        2.83049   0.00066   0.00523  -0.00146   0.00376   2.83426
    R5        2.25162  -0.00268  -0.00239  -0.00124  -0.00363   2.24799
    R6        2.60300   0.00215   0.00301   0.00374   0.00674   2.60975
    A1        1.91936   0.00041   0.00352   0.00148   0.00498   1.92434
    A2        1.87224   0.00025   0.00056   0.00161   0.00214   1.87438
    A3        1.91728  -0.00029  -0.00277  -0.00098  -0.00378   1.91350
    A4        1.91935   0.00041   0.00352   0.00148   0.00498   1.92434
    A5        1.91787  -0.00046  -0.00193  -0.00248  -0.00443   1.91344
    A6        1.91727  -0.00029  -0.00277  -0.00099  -0.00379   1.91348
    A7        2.25428   0.00160   0.00359   0.00438   0.00797   2.26225
    A8        1.93376  -0.00055   0.00183  -0.00552  -0.00369   1.93007
    A9        2.09515  -0.00105  -0.00542   0.00114  -0.00428   2.09087
    D1        2.11392   0.00002   0.00135  -0.00054   0.00080   2.11472
    D2       -1.02771   0.00003   0.00133  -0.00024   0.00109  -1.02663
    D3        0.00008   0.00000   0.00001  -0.00016  -0.00015  -0.00007
    D4       -3.14156   0.00000  -0.00001   0.00015   0.00014  -3.14142
    D5       -2.11375  -0.00003  -0.00134   0.00023  -0.00109  -2.11485
    D6        1.02779  -0.00002  -0.00135   0.00054  -0.00080   1.02699
         Item               Value     Threshold  Converged?
 Maximum Force            0.002683     0.000450     NO 
 RMS     Force            0.000902     0.000300     NO 
 Maximum Displacement     0.007177     0.001800     NO 
 RMS     Displacement     0.003203     0.001200     NO 
 Predicted change in Energy=-2.702746D-05
 GradGradGradGradGradGradGradGradGradGradGradGradGradGradGradGradGradGrad

                          Input orientation:                          
 ---------------------------------------------------------------------
 Center     Atomic      Atomic             Coordinates (Angstroms)
 Number     Number       Type             X           Y           Z
 ---------------------------------------------------------------------
      1          6           0        1.395046   -0.041190    0.000010
      2          1           0        1.726127    0.516491   -0.882702
      3          1           0        1.830017   -1.041065   -0.000079
      4          1           0        1.726188    0.516355    0.882786
      5          6           0       -0.101343   -0.142638    0.000069
      6          8           0       -0.796174   -1.108210   -0.000033
      7          9           0       -0.673233    1.114404   -0.000044
 ---------------------------------------------------------------------
                    Distance matrix (angstroms):
                    1          2          3          4          5
     1  C    0.000000
     2  H    1.095356   0.000000
     3  H    1.090390   1.793264   0.000000
     4  H    1.095356   1.765488   1.793262   0.000000
     5  C    1.499824   2.133866   2.130099   2.133853   0.000000
     6  O    2.437207   3.127421   2.627050   3.127441   1.189588
     7  F    2.369214   2.625550   3.303378   2.625694   1.381019
                    6          7
     6  O    0.000000
     7  F    2.226011   0.000000
 Stoichiometry    C2H3FO
 Framework group  C1[X(C2H3FO)]
 Deg. of freedom    15
 Full point group                 C1      NOp   1
 Largest Abelian subgroup         C1      NOp   1
 Largest concise Abelian subgroup C1      NOp   1
                         Standard orientation:                         
 ---------------------------------------------------------------------
 Center     Atomic      Atomic             Coordinates (Angstroms)
 Number     Number       Type             X           Y           Z
 ---------------------------------------------------------------------
      1          6           0        1.376156   -0.028954    0.000016
      2          1           0        1.701593    0.532039   -0.882697
      3          1           0        1.821195   -1.024389   -0.000074
      4          1           0        1.701655    0.531903    0.882792
      5          6           0       -0.119133   -0.145497    0.000075
      6          8           0       -0.804186   -1.118030   -0.000027
      7          9           0       -0.703678    1.105711   -0.000038
 ---------------------------------------------------------------------
 Rotational constants (GHZ):     10.8444550      9.5531311      5.2445277
 Basis read from rwf:  (5D, 7F)
 Pseudo-potential data read from rwf file.
 There are    69 symmetry adapted basis functions of A   symmetry.
 Integral buffers will be    262144 words long.
 Raffenetti 2 integral format.
 Two-electron integral symmetry is turned on.
    69 basis functions,   133 primitive gaussians,    72 cartesian basis functions
    16 alpha electrons       16 beta electrons
       nuclear repulsion energy       117.7989254528 Hartrees.
 NAtoms=    7 NActive=    7 NUniq=    7 SFac= 7.50D-01 NAtFMM=   80 NAOKFM=F Big=F
 One-electron integrals computed using PRISM.
   1 Symmetry operations used in ECPInt.
 ECPInt:  NShTT=     351 NPrTT=    2107 LenC2=     352 LenP2D=    1682.
 LDataN:  DoStor=T MaxTD1= 4 Len=   56
 NBasis=    69 RedAO= T  NBF=    69
 NBsUse=    69 1.00D-06 NBFU=    69
 Initial guess read from the read-write file.
 B after Tr=     0.000000    0.000000    0.000000
         Rot=    1.000000    0.000000    0.000000    0.000000 Ang=   0.00 deg.
 Initial guess orbital symmetries:
       Occupied  (A) (A) (A) (A) (A) (A) (A) (A) (A) (A) (A) (A)
                 (A) (A) (A) (A)
       Virtual   (A) (A) (A) (A) (A) (A) (A) (A) (A) (A) (A) (A)
                 (A) (A) (A) (A) (A) (A) (A) (A) (A) (A) (A) (A)
                 (A) (A) (A) (A) (A) (A) (A) (A) (A) (A) (A) (A)
                 (A) (A) (A) (A) (A) (A) (A) (A) (A) (A) (A) (A)
                 (A) (A) (A) (A) (A)
 Requested convergence on RMS density matrix=1.00D-08 within 128 cycles.
 Requested convergence on MAX density matrix=1.00D-06.
 Requested convergence on             energy=1.00D-06.
 No special actions if energy rises.
 Keep R1 ints in memory in canonical form, NReq=4437094.
 SCF Done:  E(RB3LYP) =  -253.123519954     A.U. after   12 cycles
             Convg  =    0.5385D-08             -V/T =  2.0061
   1 Symmetry operations used in ECPInt.
 ECPInt:  NShTT=     351 NPrTT=    2107 LenC2=     352 LenP2D=    1682.
 LDataN:  DoStor=T MaxTD1= 5 Len=  102
 Calling FoFJK, ICntrl=      2127 FMM=F ISym2X=0 I1Cent= 0 IOpClX= 0 NMat=1 NMatS=1 NMatT=0.
 ***** Axes restored to original set *****
 -------------------------------------------------------------------
 Center     Atomic                   Forces (Hartrees/Bohr)
 Number     Number              X              Y              Z
 -------------------------------------------------------------------
      1        6          -0.000678811    0.000332644    0.000010974
      2        1           0.000052626   -0.000095209   -0.000007494
      3        1           0.000243609   -0.000041313    0.000000813
      4        1           0.000057595   -0.000094891    0.000007320
      5        6           0.000637805   -0.001177206   -0.000032217
      6        8          -0.000042575    0.000110814    0.000011701
      7        9          -0.000270249    0.000965160    0.000008903
 -------------------------------------------------------------------
 Cartesian Forces:  Max     0.001177206 RMS     0.000406460

 GradGradGradGradGradGradGradGradGradGradGradGradGradGradGradGradGradGrad
 Berny optimization.
 Using GEDIIS/GDIIS optimizer.
 Internal  Forces:  Max     0.000987603 RMS     0.000259207
 Search for a local minimum.
 Step number   4 out of a maximum of   31
 All quantities printed in internal units (Hartrees-Bohrs-Radians)
 Mixed Optimization -- En-DIIS/RFO-DIIS
 Swaping is turned off.
 Update second derivatives using D2CorX and points    1    2    3    4
 DE= -3.07D-05 DEPred=-2.70D-05 R= 1.13D+00
 SS=  1.41D+00  RLast= 1.66D-02 DXNew= 7.8685D-01 4.9702D-02
 Trust test= 1.13D+00 RLast= 1.66D-02 DXMaxT set to 4.68D-01
     Eigenvalues ---    0.01013   0.01013   0.07571   0.07673   0.13919
     Eigenvalues ---    0.16000   0.16420   0.21371   0.29197   0.33218
     Eigenvalues ---    0.33251   0.33449   0.35297   0.46598   1.06435
     Eigenvalues --- 1000.000001000.000001000.000001000.000001000.00000
     Eigenvalues --- 1000.00000
 En-DIIS/RFO-DIIS IScMMF=        0 using points:     4    3
 RFO step:  Lambda=-2.40777507D-06.
 DIIS coeffs:      1.11389     -0.11389
 Iteration  1 RMS(Cart)=  0.00117829 RMS(Int)=  0.00000149
 Iteration  2 RMS(Cart)=  0.00000144 RMS(Int)=  0.00000053
 Iteration  3 RMS(Cart)=  0.00000000 RMS(Int)=  0.00000053
 Variable       Old X    -DE/DX   Delta X   Delta X   Delta X     New X
                                  (DIIS)     (GDIIS)  (Total)
    R1        2.06992  -0.00003   0.00001  -0.00015  -0.00014   2.06979
    R2        2.06054   0.00013   0.00002   0.00030   0.00032   2.06086
    R3        2.06992  -0.00002   0.00001  -0.00014  -0.00013   2.06979
    R4        2.83426  -0.00032   0.00043  -0.00076  -0.00033   2.83392
    R5        2.24799  -0.00006  -0.00041  -0.00005  -0.00046   2.24753
    R6        2.60975   0.00099   0.00077   0.00187   0.00264   2.61239
    A1        1.92434  -0.00017   0.00057  -0.00115  -0.00059   1.92376
    A2        1.87438   0.00000   0.00024   0.00007   0.00031   1.87469
    A3        1.91350   0.00003  -0.00043   0.00017  -0.00026   1.91324
    A4        1.92434  -0.00017   0.00057  -0.00116  -0.00060   1.92374
    A5        1.91344   0.00027  -0.00050   0.00181   0.00130   1.91474
    A6        1.91348   0.00004  -0.00043   0.00023  -0.00020   1.91328
    A7        2.26225   0.00027   0.00091   0.00094   0.00185   2.26410
    A8        1.93007  -0.00033  -0.00042  -0.00112  -0.00154   1.92853
    A9        2.09087   0.00006  -0.00049   0.00018  -0.00031   2.09056
    D1        2.11472  -0.00001   0.00009   0.00057   0.00066   2.11538
    D2       -1.02663  -0.00002   0.00012  -0.00097  -0.00084  -1.02747
    D3       -0.00007   0.00001  -0.00002   0.00075   0.00073   0.00066
    D4       -3.14142  -0.00001   0.00002  -0.00079  -0.00078   3.14099
    D5       -2.11485   0.00002  -0.00012   0.00089   0.00077  -2.11408
    D6        1.02699   0.00001  -0.00009  -0.00064  -0.00073   1.02626
         Item               Value     Threshold  Converged?
 Maximum Force            0.000988     0.000450     NO 
 RMS     Force            0.000259     0.000300     YES
 Maximum Displacement     0.003287     0.001800     NO 
 RMS     Displacement     0.001179     0.001200     YES
 Predicted change in Energy=-2.165992D-06
 GradGradGradGradGradGradGradGradGradGradGradGradGradGradGradGradGradGrad

                          Input orientation:                          
 ---------------------------------------------------------------------
 Center     Atomic      Atomic             Coordinates (Angstroms)
 Number     Number       Type             X           Y           Z
 ---------------------------------------------------------------------
      1          6           0        1.394897   -0.041410   -0.000059
      2          1           0        1.725617    0.516313   -0.882789
      3          1           0        1.831757   -1.040646    0.000034
      4          1           0        1.725304    0.516324    0.882786
      5          6           0       -0.101263   -0.143626   -0.000362
      6          8           0       -0.797233   -1.108076    0.000102
      7          9           0       -0.672451    1.115269    0.000295
 ---------------------------------------------------------------------
                    Distance matrix (angstroms):
                    1          2          3          4          5
     1  C    0.000000
     2  H    1.095283   0.000000
     3  H    1.090559   1.792976   0.000000
     4  H    1.095286   1.765576   1.792970   0.000000
     5  C    1.499648   2.133469   2.131012   2.133502   0.000000
     6  O    2.437870   3.127764   2.629854   3.127459   1.189343
     7  F    2.368932   2.624751   3.304395   2.624263   1.382416
                    6          7
     6  O    0.000000
     7  F    2.226843   0.000000
 Stoichiometry    C2H3FO
 Framework group  C1[X(C2H3FO)]
 Deg. of freedom    15
 Full point group                 C1      NOp   1
 Largest Abelian subgroup         C1      NOp   1
 Largest concise Abelian subgroup C1      NOp   1
                         Standard orientation:                         
 ---------------------------------------------------------------------
 Center     Atomic      Atomic             Coordinates (Angstroms)
 Number     Number       Type             X           Y           Z
 ---------------------------------------------------------------------
      1          6           0       -1.376027   -0.030637    0.000089
      2          1           0       -1.701675    0.530063    0.882820
      3          1           0       -1.821931   -1.025869   -0.000003
      4          1           0       -1.701361    0.530071   -0.882756
      5          6           0        0.119145   -0.146419    0.000393
      6          8           0        0.806339   -1.117141   -0.000071
      7          9           0        0.701728    1.107244   -0.000264
 ---------------------------------------------------------------------
 Rotational constants (GHZ):     10.8356299      9.5532005      5.2425009
 Basis read from rwf:  (5D, 7F)
 Pseudo-potential data read from rwf file.
 There are    69 symmetry adapted basis functions of A   symmetry.
 Integral buffers will be    262144 words long.
 Raffenetti 2 integral format.
 Two-electron integral symmetry is turned on.
    69 basis functions,   133 primitive gaussians,    72 cartesian basis functions
    16 alpha electrons       16 beta electrons
       nuclear repulsion energy       117.7752119602 Hartrees.
 NAtoms=    7 NActive=    7 NUniq=    7 SFac= 7.50D-01 NAtFMM=   80 NAOKFM=F Big=F
 One-electron integrals computed using PRISM.
   1 Symmetry operations used in ECPInt.
 ECPInt:  NShTT=     351 NPrTT=    2107 LenC2=     352 LenP2D=    1682.
 LDataN:  DoStor=T MaxTD1= 4 Len=   56
 NBasis=    69 RedAO= T  NBF=    69
 NBsUse=    69 1.00D-06 NBFU=    69
 Initial guess read from the read-write file.
 B after Tr=     0.000000    0.000000    0.000000
         Rot=    1.000000    0.000000    0.000000    0.000000 Ang=   0.00 deg.
 Initial guess orbital symmetries:
       Occupied  (A) (A) (A) (A) (A) (A) (A) (A) (A) (A) (A) (A)
                 (A) (A) (A) (A)
       Virtual   (A) (A) (A) (A) (A) (A) (A) (A) (A) (A) (A) (A)
                 (A) (A) (A) (A) (A) (A) (A) (A) (A) (A) (A) (A)
                 (A) (A) (A) (A) (A) (A) (A) (A) (A) (A) (A) (A)
                 (A) (A) (A) (A) (A) (A) (A) (A) (A) (A) (A) (A)
                 (A) (A) (A) (A) (A)
 Requested convergence on RMS density matrix=1.00D-08 within 128 cycles.
 Requested convergence on MAX density matrix=1.00D-06.
 Requested convergence on             energy=1.00D-06.
 No special actions if energy rises.
 Keep R1 ints in memory in canonical form, NReq=4437094.
 SCF Done:  E(RB3LYP) =  -253.123522922     A.U. after   12 cycles
             Convg  =    0.7751D-08             -V/T =  2.0061
   1 Symmetry operations used in ECPInt.
 ECPInt:  NShTT=     351 NPrTT=    2107 LenC2=     352 LenP2D=    1682.
 LDataN:  DoStor=T MaxTD1= 5 Len=  102
 Calling FoFJK, ICntrl=      2127 FMM=F ISym2X=0 I1Cent= 0 IOpClX= 0 NMat=1 NMatS=1 NMatT=0.
 ***** Axes restored to original set *****
 -------------------------------------------------------------------
 Center     Atomic                   Forces (Hartrees/Bohr)
 Number     Number              X              Y              Z
 -------------------------------------------------------------------
      1        6          -0.000520294    0.000106268   -0.000053489
      2        1           0.000070154   -0.000035720   -0.000017853
      3        1           0.000100659   -0.000002135   -0.000004094
      4        1           0.000045660   -0.000036802    0.000017905
      5        6           0.000428891   -0.000345698    0.000160342
      6        8          -0.000053310   -0.000055507   -0.000058664
      7        9          -0.000071760    0.000369593   -0.000044148
 -------------------------------------------------------------------
 Cartesian Forces:  Max     0.000520294 RMS     0.000193651

 GradGradGradGradGradGradGradGradGradGradGradGradGradGradGradGradGradGrad
 Berny optimization.
 Using GEDIIS/GDIIS optimizer.
 Internal  Forces:  Max     0.000363410 RMS     0.000120362
 Search for a local minimum.
 Step number   5 out of a maximum of   31
 All quantities printed in internal units (Hartrees-Bohrs-Radians)
 Mixed Optimization -- En-DIIS/RFO-DIIS
 Swaping is turned off.
 Update second derivatives using D2CorX and points    1    2    3    4    5
 DE= -2.97D-06 DEPred=-2.17D-06 R= 1.37D+00
 SS=  1.41D+00  RLast= 4.40D-03 DXNew= 7.8685D-01 1.3186D-02
 Trust test= 1.37D+00 RLast= 4.40D-03 DXMaxT set to 4.68D-01
     Eigenvalues ---    0.01013   0.01107   0.07563   0.07678   0.13971
     Eigenvalues ---    0.14799   0.16124   0.17819   0.29139   0.33243
     Eigenvalues ---    0.33260   0.33418   0.36107   0.38149   1.06877
     Eigenvalues --- 1000.000001000.000001000.000001000.000001000.00000
     Eigenvalues --- 1000.00000
 En-DIIS/RFO-DIIS IScMMF=        0 using points:     5    4    3
 RFO step:  Lambda=-7.55507865D-07.
 DIIS coeffs:      1.43980     -0.41082     -0.02898
 Iteration  1 RMS(Cart)=  0.00185787 RMS(Int)=  0.00000768
 Iteration  2 RMS(Cart)=  0.00000675 RMS(Int)=  0.00000407
 Iteration  3 RMS(Cart)=  0.00000000 RMS(Int)=  0.00000407
 Variable       Old X    -DE/DX   Delta X   Delta X   Delta X     New X
                                  (DIIS)     (GDIIS)  (Total)
    R1        2.06979   0.00002  -0.00006   0.00006   0.00000   2.06978
    R2        2.06086   0.00004   0.00014   0.00013   0.00027   2.06113
    R3        2.06979   0.00001  -0.00006   0.00002  -0.00003   2.06976
    R4        2.83392  -0.00030  -0.00004  -0.00096  -0.00100   2.83292
    R5        2.24753   0.00008  -0.00031  -0.00003  -0.00033   2.24720
    R6        2.61239   0.00036   0.00136   0.00110   0.00245   2.61484
    A1        1.92376  -0.00010  -0.00011  -0.00075  -0.00086   1.92290
    A2        1.87469  -0.00003   0.00020  -0.00003   0.00017   1.87486
    A3        1.91324   0.00007  -0.00022   0.00052   0.00029   1.91353
    A4        1.92374  -0.00008  -0.00012  -0.00068  -0.00080   1.92294
    A5        1.91474   0.00011   0.00044   0.00079   0.00123   1.91597
    A6        1.91328   0.00003  -0.00020   0.00014  -0.00006   1.91323
    A7        2.26410   0.00008   0.00104   0.00068   0.00171   2.26581
    A8        1.92853  -0.00015  -0.00078  -0.00073  -0.00152   1.92701
    A9        2.09056   0.00007  -0.00026   0.00006  -0.00021   2.09034
    D1        2.11538  -0.00005   0.00031  -0.00470  -0.00439   2.11100
    D2       -1.02747   0.00002  -0.00034   0.00472   0.00438  -1.02309
    D3        0.00066  -0.00004   0.00032  -0.00460  -0.00428  -0.00363
    D4        3.14099   0.00003  -0.00034   0.00481   0.00448  -3.13772
    D5       -2.11408  -0.00002   0.00031  -0.00435  -0.00404  -2.11812
    D6        1.02626   0.00005  -0.00035   0.00507   0.00472   1.03098
         Item               Value     Threshold  Converged?
 Maximum Force            0.000363     0.000450     YES
 RMS     Force            0.000120     0.000300     YES
 Maximum Displacement     0.004741     0.001800     NO 
 RMS     Displacement     0.001860     0.001200     NO 
 Predicted change in Energy=-1.423080D-06
 GradGradGradGradGradGradGradGradGradGradGradGradGradGradGradGradGradGrad

                          Input orientation:                          
 ---------------------------------------------------------------------
 Center     Atomic      Atomic             Coordinates (Angstroms)
 Number     Number       Type             X           Y           Z
 ---------------------------------------------------------------------
      1          6           0        1.394483   -0.041553    0.000343
      2          1           0        1.723937    0.516597   -0.882591
      3          1           0        1.833176   -1.040143   -0.000612
      4          1           0        1.725804    0.515778    0.883080
      5          6           0       -0.101093   -0.144554    0.002147
      6          8           0       -0.798082   -1.108045   -0.000704
      7          9           0       -0.671598    1.116069   -0.001655
 ---------------------------------------------------------------------
                    Distance matrix (angstroms):
                    1          2          3          4          5
     1  C    0.000000
     2  H    1.095283   0.000000
     3  H    1.090704   1.792557   0.000000
     4  H    1.095270   1.765672   1.792576   0.000000
     5  C    1.499119   2.133217   2.131545   2.132987   0.000000
     6  O    2.438185   3.126942   2.632134   3.128558   1.189166
     7  F    2.368287   2.621832   3.305018   2.625002   1.383713
                    6          7
     6  O    0.000000
     7  F    2.227708   0.000000
 Stoichiometry    C2H3FO
 Framework group  C1[X(C2H3FO)]
 Deg. of freedom    15
 Full point group                 C1      NOp   1
 Largest Abelian subgroup         C1      NOp   1
 Largest concise Abelian subgroup C1      NOp   1
                         Standard orientation:                         
 ---------------------------------------------------------------------
 Center     Atomic      Atomic             Coordinates (Angstroms)
 Number     Number       Type             X           Y           Z
 ---------------------------------------------------------------------
      1          6           0       -1.375588   -0.032410    0.000345
      2          1           0       -1.700069    0.528831    0.883161
      3          1           0       -1.822172   -1.027495    0.002138
      4          1           0       -1.703030    0.527027   -0.882507
      5          6           0        0.119124   -0.147248   -0.002315
      6          8           0        0.808465   -1.116225    0.000659
      7          9           0        0.699593    1.108821    0.000418
 ---------------------------------------------------------------------
 Rotational constants (GHZ):     10.8266643      9.5562114      5.2413337
 Basis read from rwf:  (5D, 7F)
 Pseudo-potential data read from rwf file.
 There are    69 symmetry adapted basis functions of A   symmetry.
 Integral buffers will be    262144 words long.
 Raffenetti 2 integral format.
 Two-electron integral symmetry is turned on.
    69 basis functions,   133 primitive gaussians,    72 cartesian basis functions
    16 alpha electrons       16 beta electrons
       nuclear repulsion energy       117.7584596976 Hartrees.
 NAtoms=    7 NActive=    7 NUniq=    7 SFac= 7.50D-01 NAtFMM=   80 NAOKFM=F Big=F
 One-electron integrals computed using PRISM.
   1 Symmetry operations used in ECPInt.
 ECPInt:  NShTT=     351 NPrTT=    2107 LenC2=     352 LenP2D=    1682.
 LDataN:  DoStor=T MaxTD1= 4 Len=   56
 NBasis=    69 RedAO= T  NBF=    69
 NBsUse=    69 1.00D-06 NBFU=    69
 Initial guess read from the read-write file.
 B after Tr=     0.000000    0.000000    0.000000
         Rot=    1.000000    0.000000    0.000000    0.000000 Ang=   0.00 deg.
 Initial guess orbital symmetries:
       Occupied  (A) (A) (A) (A) (A) (A) (A) (A) (A) (A) (A) (A)
                 (A) (A) (A) (A)
       Virtual   (A) (A) (A) (A) (A) (A) (A) (A) (A) (A) (A) (A)
                 (A) (A) (A) (A) (A) (A) (A) (A) (A) (A) (A) (A)
                 (A) (A) (A) (A) (A) (A) (A) (A) (A) (A) (A) (A)
                 (A) (A) (A) (A) (A) (A) (A) (A) (A) (A) (A) (A)
                 (A) (A) (A) (A) (A)
 Requested convergence on RMS density matrix=1.00D-08 within 128 cycles.
 Requested convergence on MAX density matrix=1.00D-06.
 Requested convergence on             energy=1.00D-06.
 No special actions if energy rises.
 Keep R1 ints in memory in canonical form, NReq=4437094.
 SCF Done:  E(RB3LYP) =  -253.123521225     A.U. after    9 cycles
             Convg  =    0.3297D-08             -V/T =  2.0061
   1 Symmetry operations used in ECPInt.
 ECPInt:  NShTT=     351 NPrTT=    2107 LenC2=     352 LenP2D=    1682.
 LDataN:  DoStor=T MaxTD1= 5 Len=  102
 Calling FoFJK, ICntrl=      2127 FMM=F ISym2X=0 I1Cent= 0 IOpClX= 0 NMat=1 NMatS=1 NMatT=0.
 ***** Axes restored to original set *****
 -------------------------------------------------------------------
 Center     Atomic                   Forces (Hartrees/Bohr)
 Number     Number              X              Y              Z
 -------------------------------------------------------------------
      1        6          -0.000110941   -0.000098136    0.000320341
      2        1          -0.000049151    0.000009496   -0.000003008
      3        1          -0.000030595    0.000015691    0.000024724
      4        1           0.000096971    0.000016882    0.000001954
      5        6           0.000054701    0.000377542   -0.000959903
      6        8          -0.000035669   -0.000137914    0.000350182
      7        9           0.000074685   -0.000183560    0.000265711
 -------------------------------------------------------------------
 Cartesian Forces:  Max     0.000959903 RMS     0.000263520

 GradGradGradGradGradGradGradGradGradGradGradGradGradGradGradGradGradGrad
 Berny optimization.
 Using GEDIIS/GDIIS optimizer.
 Internal  Forces:  Max     0.000225528 RMS     0.000135459
 Search for a local minimum.
 Step number   6 out of a maximum of   31
 All quantities printed in internal units (Hartrees-Bohrs-Radians)
 Mixed Optimization -- En-DIIS/RFO-DIIS
 Swaping is turned off.
 Update second derivatives using D2CorX and points    1    2    3    4    5
                                                      6
 DE=  1.70D-06 DEPred=-1.42D-06 R=-1.19D+00
 Trust test=-1.19D+00 RLast= 1.14D-02 DXMaxT set to 2.34D-01
     Eigenvalues ---    0.01013   0.03046   0.07467   0.07595   0.09118
     Eigenvalues ---    0.13250   0.16549   0.17041   0.28940   0.32952
     Eigenvalues ---    0.33267   0.33442   0.33981   0.36229   1.04395
     Eigenvalues --- 1000.000001000.000001000.000001000.000001000.00000
     Eigenvalues --- 1000.00000
 En-DIIS/RFO-DIIS IScMMF=        0 using points:     6    5    4    3
 RFO step:  Lambda=-1.38066045D-06.
 DIIS coeffs:      0.25072      1.27508     -0.59859      0.07280
 Iteration  1 RMS(Cart)=  0.00139872 RMS(Int)=  0.00000350
 Iteration  2 RMS(Cart)=  0.00000359 RMS(Int)=  0.00000077
 Iteration  3 RMS(Cart)=  0.00000000 RMS(Int)=  0.00000077
 Variable       Old X    -DE/DX   Delta X   Delta X   Delta X     New X
                                  (DIIS)     (GDIIS)  (Total)
    R1        2.06978  -0.00001  -0.00008   0.00014   0.00006   2.06985
    R2        2.06113  -0.00003  -0.00005  -0.00005  -0.00010   2.06103
    R3        2.06976   0.00004  -0.00005   0.00014   0.00009   2.06985
    R4        2.83292  -0.00010   0.00030  -0.00054  -0.00024   2.83269
    R5        2.24720   0.00013   0.00027  -0.00002   0.00025   2.24745
    R6        2.61484  -0.00020  -0.00094   0.00001  -0.00093   2.61391
    A1        1.92290   0.00004  -0.00003   0.00001  -0.00002   1.92288
    A2        1.87486  -0.00003  -0.00012  -0.00008  -0.00020   1.87466
    A3        1.91353  -0.00009  -0.00008   0.00021   0.00013   1.91366
    A4        1.92294  -0.00004  -0.00008   0.00001  -0.00007   1.92287
    A5        1.91597  -0.00003   0.00009  -0.00035  -0.00026   1.91570
    A6        1.91323   0.00015   0.00021   0.00021   0.00043   1.91365
    A7        2.26581  -0.00010  -0.00089   0.00016  -0.00072   2.26509
    A8        1.92701   0.00007   0.00060  -0.00007   0.00053   1.92754
    A9        2.09034   0.00003   0.00031  -0.00010   0.00021   2.09056
    D1        2.11100   0.00019   0.00358  -0.00001   0.00357   2.11456
    D2       -1.02309  -0.00023  -0.00380  -0.00016  -0.00396  -1.02705
    D3       -0.00363   0.00022   0.00361   0.00007   0.00367   0.00005
    D4       -3.13772  -0.00020  -0.00377  -0.00008  -0.00386  -3.14157
    D5       -2.11812   0.00019   0.00351   0.00014   0.00366  -2.11446
    D6        1.03098  -0.00022  -0.00387  -0.00001  -0.00387   1.02710
         Item               Value     Threshold  Converged?
 Maximum Force            0.000226     0.000450     YES
 RMS     Force            0.000135     0.000300     YES
 Maximum Displacement     0.004075     0.001800     NO 
 RMS     Displacement     0.001398     0.001200     NO 
 Predicted change in Energy=-2.658224D-06
 GradGradGradGradGradGradGradGradGradGradGradGradGradGradGradGradGradGrad

                          Input orientation:                          
 ---------------------------------------------------------------------
 Center     Atomic      Atomic             Coordinates (Angstroms)
 Number     Number       Type             X           Y           Z
 ---------------------------------------------------------------------
      1          6           0        1.394358   -0.041461   -0.000002
      2          1           0        1.725157    0.516214   -0.882774
      3          1           0        1.832583   -1.040202   -0.000052
      4          1           0        1.725149    0.516117    0.882835
      5          6           0       -0.101112   -0.144174   -0.000010
      6          8           0       -0.797659   -1.108155   -0.000017
      7          9           0       -0.671847    1.115808    0.000027
 ---------------------------------------------------------------------
                    Distance matrix (angstroms):
                    1          2          3          4          5
     1  C    0.000000
     2  H    1.095315   0.000000
     3  H    1.090652   1.792531   0.000000
     4  H    1.095316   1.765609   1.792529   0.000000
     5  C    1.498993   2.133224   2.131206   2.133220   0.000000
     6  O    2.437781   3.127688   2.631119   3.127658   1.189301
     7  F    2.368223   2.623829   3.304625   2.623846   1.383219
                    6          7
     6  O    0.000000
     7  F    2.227519   0.000000
 Stoichiometry    C2H3FO
 Framework group  C1[X(C2H3FO)]
 Deg. of freedom    15
 Full point group                 C1      NOp   1
 Largest Abelian subgroup         C1      NOp   1
 Largest concise Abelian subgroup C1      NOp   1
                         Standard orientation:                         
 ---------------------------------------------------------------------
 Center     Atomic      Atomic             Coordinates (Angstroms)
 Number     Number       Type             X           Y           Z
 ---------------------------------------------------------------------
      1          6           0        1.375466   -0.031810   -0.000004
      2          1           0        1.701639    0.528583   -0.882776
      3          1           0        1.821941   -1.026890   -0.000054
      4          1           0        1.701632    0.528487    0.882833
      5          6           0       -0.119103   -0.146895   -0.000011
      6          8           0       -0.807649   -1.116606   -0.000019
      7          9           0       -0.700245    1.108322    0.000026
 ---------------------------------------------------------------------
 Rotational constants (GHZ):     10.8289734      9.5575905      5.2422694
 Basis read from rwf:  (5D, 7F)
 Pseudo-potential data read from rwf file.
 There are    69 symmetry adapted basis functions of A   symmetry.
 Integral buffers will be    262144 words long.
 Raffenetti 2 integral format.
 Two-electron integral symmetry is turned on.
    69 basis functions,   133 primitive gaussians,    72 cartesian basis functions
    16 alpha electrons       16 beta electrons
       nuclear repulsion energy       117.7682784459 Hartrees.
 NAtoms=    7 NActive=    7 NUniq=    7 SFac= 7.50D-01 NAtFMM=   80 NAOKFM=F Big=F
 One-electron integrals computed using PRISM.
   1 Symmetry operations used in ECPInt.
 ECPInt:  NShTT=     351 NPrTT=    2107 LenC2=     352 LenP2D=    1682.
 LDataN:  DoStor=T MaxTD1= 4 Len=   56
 NBasis=    69 RedAO= T  NBF=    69
 NBsUse=    69 1.00D-06 NBFU=    69
 Initial guess read from the read-write file.
 B after Tr=     0.000000    0.000000    0.000000
         Rot=    1.000000    0.000000    0.000000    0.000000 Ang=   0.00 deg.
 Initial guess orbital symmetries:
       Occupied  (A) (A) (A) (A) (A) (A) (A) (A) (A) (A) (A) (A)
                 (A) (A) (A) (A)
       Virtual   (A) (A) (A) (A) (A) (A) (A) (A) (A) (A) (A) (A)
                 (A) (A) (A) (A) (A) (A) (A) (A) (A) (A) (A) (A)
                 (A) (A) (A) (A) (A) (A) (A) (A) (A) (A) (A) (A)
                 (A) (A) (A) (A) (A) (A) (A) (A) (A) (A) (A) (A)
                 (A) (A) (A) (A) (A)
 Requested convergence on RMS density matrix=1.00D-08 within 128 cycles.
 Requested convergence on MAX density matrix=1.00D-06.
 Requested convergence on             energy=1.00D-06.
 No special actions if energy rises.
 Keep R1 ints in memory in canonical form, NReq=4437094.
 SCF Done:  E(RB3LYP) =  -253.123523779     A.U. after   12 cycles
             Convg  =    0.7959D-08             -V/T =  2.0061
   1 Symmetry operations used in ECPInt.
 ECPInt:  NShTT=     351 NPrTT=    2107 LenC2=     352 LenP2D=    1682.
 LDataN:  DoStor=T MaxTD1= 5 Len=  102
 Calling FoFJK, ICntrl=      2127 FMM=F ISym2X=0 I1Cent= 0 IOpClX= 0 NMat=1 NMatS=1 NMatT=0.
 ***** Axes restored to original set *****
 -------------------------------------------------------------------
 Center     Atomic                   Forces (Hartrees/Bohr)
 Number     Number              X              Y              Z
 -------------------------------------------------------------------
      1        6          -0.000015746   -0.000018104   -0.000000818
      2        1           0.000002807    0.000000291    0.000005252
      3        1          -0.000003407   -0.000006970   -0.000000069
      4        1           0.000002449    0.000000325   -0.000005343
      5        6           0.000023851    0.000016007    0.000002868
      6        8          -0.000003008    0.000001939   -0.000001121
      7        9          -0.000006946    0.000006513   -0.000000770
 -------------------------------------------------------------------
 Cartesian Forces:  Max     0.000023851 RMS     0.000008852

 GradGradGradGradGradGradGradGradGradGradGradGradGradGradGradGradGradGrad
 Berny optimization.
 Using GEDIIS/GDIIS optimizer.
 Internal  Forces:  Max     0.000017852 RMS     0.000006368
 Search for a local minimum.
 Step number   7 out of a maximum of   31
 All quantities printed in internal units (Hartrees-Bohrs-Radians)
 Mixed Optimization -- En-DIIS/RFO-DIIS
 Swaping is turned off.
 Update second derivatives using D2CorX and points    1    2    3    4    5
                                                      6    7
 DE= -2.55D-06 DEPred=-2.66D-06 R= 9.61D-01
 SS=  1.41D+00  RLast= 9.35D-03 DXNew= 3.9343D-01 2.8038D-02
 Trust test= 9.61D-01 RLast= 9.35D-03 DXMaxT set to 2.34D-01
     Eigenvalues ---    0.01013   0.05254   0.07440   0.07628   0.11653
     Eigenvalues ---    0.14690   0.16786   0.18033   0.28641   0.32107
     Eigenvalues ---    0.33274   0.33480   0.33847   0.37624   1.04532
     Eigenvalues --- 1000.000001000.000001000.000001000.000001000.00000
     Eigenvalues --- 1000.00000
 En-DIIS/RFO-DIIS IScMMF=        0 using points:     7    6    5    4    3
[...]
     1   6     0.00   0.00   0.00    -0.07   0.20   0.00     0.00   0.00  -0.01
     2   1     0.00  -0.50  -0.32    -0.34   0.38   0.01     0.57  -0.02   0.20
     3   1     0.00   0.00   0.53     0.40   0.42   0.00     0.00   0.00   0.37
     4   1     0.00   0.50  -0.32    -0.34   0.38  -0.01    -0.57   0.02   0.20
     5   6     0.00   0.00   0.01    -0.03  -0.16   0.00     0.00   0.00  -0.35
     6   8     0.00   0.00  -0.05    -0.17  -0.06   0.00     0.00   0.00   0.12
     7   9     0.00   0.00   0.04     0.22  -0.04   0.00     0.00   0.00   0.08
                     4                      5                      6
                     A                      A                      A
 Frequencies --   589.7300               820.4652              1010.9692
 Red. masses --     8.2868                 6.3493                 1.9469
 Frc consts  --     1.6980                 2.5182                 1.1724
 IR Inten    --    19.0920                69.4422                47.4095
  Atom  AN      X      Y      Z        X      Y      Z        X      Y      Z
     1   6     0.38   0.06   0.00    -0.35   0.04   0.00     0.09   0.17   0.00
     2   1     0.33   0.08  -0.01    -0.17  -0.09  -0.01     0.52  -0.20  -0.07
     3   1     0.49   0.10   0.00    -0.73  -0.12   0.00    -0.53  -0.12   0.00
     4   1     0.33   0.08   0.01    -0.17  -0.09   0.01     0.52  -0.20   0.07
     5   6     0.18  -0.01   0.00     0.03   0.24   0.00    -0.15   0.06   0.00
     6   8    -0.30   0.33   0.00     0.13   0.21   0.00    -0.05  -0.10   0.00
     7   9    -0.16  -0.32   0.00     0.15  -0.34   0.00     0.06  -0.03   0.00
                     7                      8                      9
                     A                      A                      A
 Frequencies --  1077.9259              1199.3209              1425.1835
 Red. masses --     1.7259                 3.0517                 1.2859
 Frc consts  --     1.1815                 2.5862                 1.5388
 IR Inten    --    10.2020               194.1880                33.8457
  Atom  AN      X      Y      Z        X      Y      Z        X      Y      Z
     1   6     0.00   0.00   0.17    -0.10   0.14   0.00     0.15   0.01   0.00
     2   1    -0.60  -0.13  -0.16     0.06  -0.23  -0.16    -0.55   0.01  -0.25
     3   1     0.00   0.00  -0.37    -0.79  -0.18   0.00    -0.42  -0.24   0.00
     4   1     0.60   0.13  -0.16     0.06  -0.23   0.16    -0.55   0.01   0.25
     5   6     0.00   0.00  -0.19     0.29  -0.24   0.00    -0.03   0.03   0.00
     6   8     0.00   0.00   0.04    -0.04   0.03   0.00     0.00  -0.01   0.00
     7   9     0.00   0.00   0.02    -0.05   0.07   0.00     0.00  -0.01   0.00
                    10                     11                     12
                     A                      A                      A
 Frequencies --  1491.2128              1495.5058              1923.5307
 Red. masses --     1.0461                 1.0446                12.1916
 Frc consts  --     1.3705                 1.3765                26.5773
 IR Inten    --    16.7419                 9.9972               317.5542
  Atom  AN      X      Y      Z        X      Y      Z        X      Y      Z
     1   6     0.02  -0.05   0.00     0.00   0.00  -0.05    -0.07  -0.03   0.00
     2   1     0.07   0.51   0.36    -0.35   0.34   0.05    -0.12  -0.07  -0.06
     3   1    -0.41  -0.23   0.00     0.00   0.00   0.72     0.16   0.10   0.00
     4   1     0.07   0.51  -0.36     0.35  -0.34   0.05    -0.12  -0.07   0.06
     5   6     0.02   0.00   0.00     0.00   0.00  -0.03     0.53   0.60   0.00
     6   8    -0.01  -0.01   0.00     0.00   0.00   0.00    -0.31  -0.42   0.00
     7   9     0.00   0.00   0.00     0.00   0.00   0.00    -0.02   0.00   0.00
                    13                     14                     15
                     A                      A                      A
 Frequencies --  3072.3129              3134.6304              3184.1529
 Red. masses --     1.0367                 1.1004                 1.1038
 Frc consts  --     5.7656                 6.3703                 6.5939
 IR Inten    --     0.3088                 1.0848                 2.6560
  Atom  AN      X      Y      Z        X      Y      Z        X      Y      Z
     1   6     0.05   0.02   0.00     0.00   0.00   0.09     0.02  -0.09   0.00
     2   1    -0.19  -0.32   0.52     0.21   0.37  -0.56     0.09   0.13  -0.24
     3   1    -0.16   0.38   0.00     0.00   0.00   0.02    -0.37   0.83   0.00
     4   1    -0.19  -0.32  -0.52    -0.21  -0.37  -0.56     0.09   0.13   0.24
     5   6     0.00   0.00   0.00     0.00   0.00   0.00     0.00   0.00   0.00
     6   8     0.00   0.00   0.00     0.00   0.00   0.00     0.00   0.00   0.00
     7   9     0.00   0.00   0.00     0.00   0.00   0.00     0.00   0.00   0.00

 -------------------
 - Thermochemistry -
 -------------------
 Temperature   298.150 Kelvin.  Pressure   1.00000 Atm.
 Atom     1 has atomic number  6 and mass  12.00000
 Atom     2 has atomic number  1 and mass   1.00783
 Atom     3 has atomic number  1 and mass   1.00783
 Atom     4 has atomic number  1 and mass   1.00783
 Atom     5 has atomic number  6 and mass  12.00000
 Atom     6 has atomic number  8 and mass  15.99491
 Atom     7 has atomic number  9 and mass  18.99840
 Molecular mass:    62.01679 amu.
 Principal axes and moments of inertia in atomic units:
                           1         2         3
     Eigenvalues --   166.65857 188.82805 344.26716
           X            0.99519   0.09796   0.00000
           Y           -0.09796   0.99519  -0.00002
           Z            0.00000   0.00002   1.00000
 This molecule is an asymmetric top.
 Rotational symmetry number  1.
 Rotational temperatures (Kelvin)      0.51971     0.45869     0.25159
 Rotational constants (GHZ):          10.82897     9.55759     5.24227
 Zero-point vibrational energy     128718.0 (Joules/Mol)
                                   30.76434 (Kcal/Mol)
 Warning -- explicit consideration of   4 degrees of freedom as
           vibrations may cause significant error
 Vibrational temperatures:    172.67   591.12   811.71   848.49  1180.46
          (Kelvin)           1454.56  1550.89  1725.55  2050.52  2145.52
                             2151.70  2767.53  4420.37  4510.03  4581.28
 
 Zero-point correction=                           0.049026 (Hartree/Particle)
 Thermal correction to Energy=                    0.053371
 Thermal correction to Enthalpy=                  0.054315
 Thermal correction to Gibbs Free Energy=         0.022181
 Sum of electronic and zero-point Energies=           -253.074498
 Sum of electronic and thermal Energies=              -253.070153
 Sum of electronic and thermal Enthalpies=            -253.069209
 Sum of electronic and thermal Free Energies=         -253.101343
 
                     E (Thermal)             CV                S
                      KCal/Mol        Cal/Mol-Kelvin    Cal/Mol-Kelvin
 Total                   33.491             13.258             67.631
 Electronic               0.000              0.000              0.000
 Translational            0.889              2.981             38.294
 Rotational               0.889              2.981             23.897
 Vibrational             31.713              7.296              5.440
 Vibration     1          0.609              1.933              3.100
 Vibration     2          0.775              1.447              0.924
 Vibration     3          0.920              1.109              0.516
 Vibration     4          0.947              1.054              0.468
                       Q            Log10(Q)             Ln(Q)
 Total Bot       0.627172D-10        -10.202613        -23.492385
 Total V=0       0.222731D+13         12.347780         28.431814
 Vib (Bot)       0.876852D-22        -22.057074        -50.788289
 Vib (Bot)    1  0.170279D+01          0.231161          0.532269
 Vib (Bot)    2  0.430351D+00         -0.366177         -0.843153
 Vib (Bot)    3  0.274370D+00         -0.561663         -1.293278
 Vib (Bot)    4  0.255871D+00         -0.591979         -1.363082
 Vib (V=0)       0.311400D+01          0.493319          1.135910
 Vib (V=0)    1  0.227468D+01          0.356921          0.821841
 Vib (V=0)    2  0.115970D+01          0.064345          0.148160
 Vib (V=0)    3  0.107033D+01          0.029519          0.067969
 Vib (V=0)    4  0.106167D+01          0.025988          0.059840
 Electronic      0.100000D+01          0.000000          0.000000
 Translational   0.191964D+08          7.283219         16.770232
 Rotational      0.372599D+05          4.571241         10.525672
 ***** Axes restored to original set *****
 -------------------------------------------------------------------
 Center     Atomic                   Forces (Hartrees/Bohr)
 Number     Number              X              Y              Z
 -------------------------------------------------------------------
      1        6          -0.000015752   -0.000018111   -0.000000819
      2        1           0.000002806    0.000000289    0.000005254
      3        1          -0.000003408   -0.000006966   -0.000000069
      4        1           0.000002447    0.000000324   -0.000005345
      5        6           0.000023865    0.000016038    0.000002868
      6        8          -0.000003014    0.000001931   -0.000001120
      7        9          -0.000006944    0.000006494   -0.000000769
 -------------------------------------------------------------------
 Cartesian Forces:  Max     0.000023865 RMS     0.000008857

 GradGradGradGradGradGradGradGradGradGradGradGradGradGradGradGradGradGrad
 Berny optimization.
 Internal  Forces:  Max     0.000017861 RMS     0.000006370
 Search for a local minimum.
 Step number   1 out of a maximum of    2
 All quantities printed in internal units (Hartrees-Bohrs-Radians)
 Second derivative matrix not updated -- analytic derivatives used.
     Eigenvalues ---    0.00101   0.05044   0.05740   0.05759   0.12865
     Eigenvalues ---    0.13126   0.14500   0.18308   0.25183   0.32408
     Eigenvalues ---    0.33832   0.34224   0.34765   0.35740   0.97426
     Eigenvalues --- 1000.000001000.000001000.000001000.000001000.00000
     Eigenvalues --- 1000.00000
 Angle between quadratic step and forces=  38.51 degrees.
 Linear search not attempted -- first point.
 Iteration  1 RMS(Cart)=  0.00005054 RMS(Int)=  0.00000000
 Iteration  2 RMS(Cart)=  0.00000000 RMS(Int)=  0.00000000
 Variable       Old X    -DE/DX   Delta X   Delta X   Delta X     New X
                                 (Linear)    (Quad)   (Total)
    R1        2.06985   0.00000   0.00000   0.00000   0.00000   2.06985
    R2        2.06103   0.00000   0.00000   0.00000   0.00000   2.06104
    R3        2.06985   0.00000   0.00000   0.00000   0.00000   2.06985
    R4        2.83269  -0.00001   0.00000  -0.00006  -0.00006   2.83263
    R5        2.24745   0.00000   0.00000   0.00001   0.00001   2.24746
    R6        2.61391   0.00001   0.00000   0.00001   0.00001   2.61391
    A1        1.92288   0.00000   0.00000   0.00002   0.00002   1.92290
    A2        1.87466  -0.00001   0.00000  -0.00009  -0.00009   1.87457
    A3        1.91366   0.00000   0.00000   0.00002   0.00002   1.91368
    A4        1.92287   0.00000   0.00000   0.00003   0.00003   1.92290
    A5        1.91570   0.00000   0.00000   0.00000   0.00000   1.91570
    A6        1.91365   0.00000   0.00000   0.00002   0.00002   1.91368
    A7        2.26509  -0.00001   0.00000  -0.00007  -0.00007   2.26502
    A8        1.92754   0.00002   0.00000   0.00009   0.00009   1.92763
    A9        2.09056  -0.00001   0.00000  -0.00002  -0.00002   2.09053
    D1        2.11456   0.00000   0.00000  -0.00001  -0.00001   2.11456
    D2       -1.02705   0.00000   0.00000   0.00002   0.00002  -1.02703
    D3        0.00005   0.00000   0.00000  -0.00004  -0.00004   0.00000
    D4       -3.14157   0.00000   0.00000  -0.00002  -0.00002  -3.14159
    D5       -2.11446   0.00000   0.00000  -0.00009  -0.00009  -2.11455
    D6        1.02710   0.00000   0.00000  -0.00006  -0.00006   1.02704
         Item               Value     Threshold  Converged?
 Maximum Force            0.000018     0.000450     YES
 RMS     Force            0.000006     0.000300     YES
 Maximum Displacement     0.000111     0.001800     YES
 RMS     Displacement     0.000051     0.001200     YES
 Predicted change in Energy=-2.338835D-09
 Optimization completed.
    -- Stationary point found.
                           ----------------------------
                           !   Optimized Parameters   !
                           ! (Angstroms and Degrees)  !
 --------------------------                            --------------------------
 ! Name  Definition              Value          Derivative Info.                !
 --------------------------------------------------------------------------------
 ! R1    R(1,2)                  1.0953         -DE/DX =    0.0                 !
 ! R2    R(1,3)                  1.0907         -DE/DX =    0.0                 !
 ! R3    R(1,4)                  1.0953         -DE/DX =    0.0                 !
 ! R4    R(1,5)                  1.499          -DE/DX =    0.0                 !
 ! R5    R(5,6)                  1.1893         -DE/DX =    0.0                 !
 ! R6    R(5,7)                  1.3832         -DE/DX =    0.0                 !
 ! A1    A(2,1,3)              110.1728         -DE/DX =    0.0                 !
 ! A2    A(2,1,4)              107.4104         -DE/DX =    0.0                 !
 ! A3    A(2,1,5)              109.6446         -DE/DX =    0.0                 !
 ! A4    A(3,1,4)              110.1726         -DE/DX =    0.0                 !
 ! A5    A(3,1,5)              109.7617         -DE/DX =    0.0                 !
 ! A6    A(4,1,5)              109.6443         -DE/DX =    0.0                 !
 ! A7    A(1,5,6)              129.7799         -DE/DX =    0.0                 !
 ! A8    A(1,5,7)              110.4401         -DE/DX =    0.0                 !
 ! A9    A(6,5,7)              119.78           -DE/DX =    0.0                 !
 ! D1    D(2,1,5,6)            121.1556         -DE/DX =    0.0                 !
 ! D2    D(2,1,5,7)            -58.8459         -DE/DX =    0.0                 !
 ! D3    D(3,1,5,6)              0.0027         -DE/DX =    0.0                 !
 ! D4    D(3,1,5,7)           -179.9988         -DE/DX =    0.0                 !
 ! D5    D(4,1,5,6)           -121.1498         -DE/DX =    0.0                 !
 ! D6    D(4,1,5,7)             58.8487         -DE/DX =    0.0                 !
 --------------------------------------------------------------------------------
 GradGradGradGradGradGradGradGradGradGradGradGradGradGradGradGradGradGrad

 1|1|UNPC-WST-PGHS-014|Freq|RB3LYP|Gen|C2H3F1O1|214584429|25-Feb-2015|0
 ||#N Geom=AllCheck Guess=TCheck SCRF=Check GenChk RB3LYP/ChkBas Freq||
 gen calculation FAc-C H O=6-31+g(d)/F=LANL2DZ||0,1|C,1.3943580664,-0.0414614384,-0.0000021595|
 H,1.7251565912,0.5162136461,-0.8827743436|H,1.8325826418,-1.040201632,
 -0.0000523474|H,1.7251491136,0.5161169539,0.8828346476|C,-0.1011120851
 ,-0.1441741548,-0.0000095561|O,-0.7976590437,-1.1081548369,-0.00001698
 67|F,-0.6718472842,1.1158084622,0.0000274958||Version=IA32W-G09RevA.02
 |State=1-A|HF=-253.1235238|RMSD=1.360e-009|RMSF=8.857e-006|ZeroPoint=0
 .0490261|Thermal=0.0533708|Dipole=1.25647,0.1879643,-0.0000031|DipoleD
 eriv=-0.284284,-0.0506162,-0.0000049,-0.1163447,-0.021069,-0.0000033,-
 0.0000194,-0.0000069,0.0443953,0.0556992,-0.0071095,0.0012892,0.006486
 8,0.0749339,0.0648068,0.0394062,0.0647897,0.0169938,0.0394007,0.021602
 9,0.0000012,0.0573547,-0.024388,-0.0000061,0.0000045,-0.0000052,0.0980
 091,0.0556992,-0.0071094,-0.0012881,0.0064924,0.0749492,-0.0647995,-0.
 0393996,-0.0647822,0.0169809,1.4957426,0.0391009,0.000002,-0.0188547,1
 .9028719,0.0000355,-0.0000011,0.0000395,0.356403,-0.7890867,-0.3687083
 ,-0.0000083,-0.1948597,-0.920066,-0.0000151,0.0000003,-0.0000078,-0.32
 24446,-0.573171,0.3728396,0.0000088,0.2597252,-1.087232,-0.0000184,0.0
 00009,-0.000027,-0.2103375|Polar=29.0433178,2.7710895,30.0800683,0.000
 0442,0.0001872,19.8691348|PG=C01 [X(C2H3F1O1)]|NImag=0||0.49064273,-0.
 02359642,0.61733646,-0.00000326,0.00000119,0.54245538,-0.07192838,-0.0
 3730439,0.06777159,0.07692766,-0.03771768,-0.11646438,0.11396694,0.045
 14209,0.12226173,0.06697011,0.11255505,-0.22086761,-0.07196104,-0.1230
 0269,0.23868314,-0.09330989,0.09691710,0.00000517,0.00464465,-0.010296
 47,-0.00184202,0.10105904,0.10476838,-0.28763688,-0.00001192,0.0054382
 5,-0.01193751,-0.00148379,-0.11092804,0.30625282,0.00000555,-0.0000118
 7,-0.04964714,-0.01239268,0.02347554,0.00178080,-0.00000562,0.00001308
 ,0.04696690,-0.07192683,-0.03729630,-0.06777460,0.00381240,0.00631712,
 0.00855384,0.00464450,0.00543698,0.01239328,0.07692604,-0.03770920,-0.
 11643884,-0.11395534,0.00631789,0.00897154,0.01410214,-0.01029638,-0.0
 1193529,-0.02347723,0.04513291,0.12223426,-0.06697253,-0.11254350,-0.2
 2089280,-0.00855286,-0.01409879,-0.02114295,0.00184086,0.00148231,0.00
 177850,0.07196431,0.12298988,0.23871064,-0.20915094,-0.00140793,-0.000
 00036,-0.00878057,-0.00352727,-0.00016761,-0.01166113,-0.00291747,-0.0
 0000039,-0.00878097,-0.00352730,0.00016703,0.76042724,-0.00170547,-0.0
 7693188,0.00000042,-0.02148384,-0.00407794,0.00049240,0.03352530,0.001
 42504,0.00000031,-0.02148051,-0.00407772,-0.00049309,0.31271227,0.7911
 8074,0.00000059,0.00000057,-0.09383405,0.03318702,0.00000059,0.0022845
 0,0.00000176,0.00000037,-0.00309049,-0.03318946,-0.00000133,0.00228436
 ,0.00000088,0.00000675,0.21573018,-0.02263180,-0.03998687,-0.00000003,
 -0.00529203,-0.00091345,-0.00159645,0.00299373,-0.00045560,0.00000004,
 -0.00529132,-0.00091354,0.00159628,-0.39529977,-0.35339474,-0.00000253
 ,0.38893984,-0.01486272,-0.00558330,-0.00000059,0.00016399,0.00163946,
 -0.00148033,-0.00179206,0.00145997,0.00000012,0.00016396,0.00163920,0.
 00148060,-0.37771714,-0.56283869,-0.00000417,0.40560804,0.66832345,-0.
 00000056,-0.00000084,0.02862434,-0.00492000,-0.00012694,-0.00116223,-0
 .00000020,0.00000003,-0.00028812,0.00492033,0.00012738,-0.00116224,-0.
 00000223,-0.00000394,-0.07162282,0.00000310,0.00000674,0.02652263,-0.0
 2169488,0.04267481,0.00000149,0.00061627,0.00099565,0.00004318,-0.0083
 7091,-0.00134249,-0.00000018,0.00061618,0.00099563,-0.00004308,-0.1267
 5386,0.05182700,0.00000173,0.03658135,-0.01156407,-0.00000045,0.119005
 85,0.01082311,-0.01428117,-0.00000070,0.00172601,-0.00039290,-0.001182
 79,0.00287056,0.00237185,0.00000004,0.00172584,-0.00039315,0.00118259,
 0.07638485,-0.14467956,-0.00000279,-0.00994384,-0.10464010,-0.00000244
 ,-0.08358652,0.26201504,0.00000010,-0.00000061,0.01416188,-0.00313204,
 -0.00021465,0.00042434,0.00000005,-0.00000008,0.00249955,0.00313230,0.
 00021450,0.00042449,0.00000268,-0.00000286,-0.05175168,-0.00000041,-0.
 00000238,0.01908843,-0.00000268,0.00000609,0.01515299||0.00001575,0.00
 001811,0.00000082,-0.00000281,-0.00000029,-0.00000525,0.00000341,0.000
 00697,0.00000007,-0.00000245,-0.00000032,0.00000535,-0.00002386,-0.000
 01604,-0.00000287,0.00000301,-0.00000193,0.00000112,0.00000694,-0.0000
 0649,0.00000077|||@


 GARLIC THEN HAVE POWER TO SAVE FROM DEATH
 BEAR WITH IT THOUGH IT MAKETH UNSAVORY BREATH,
 AND SCORN NOT GARLIC LIKE SOME THAT THINK
 IT ONLY MAKETH MEN WINK AND DRINK AND STINK.
   --  SIR JOHN HARRINGTON,
       "THE ENGLISHMAN'S DOCTOR", 1609
 Job cpu time:  0 days  0 hours  0 minutes 48.0 seconds.
 File lengths (MBytes):  RWF=      8 Int=      0 D2E=      0 Chk=      1 Scr=      1
 Normal termination of Gaussian 09 at Wed Feb 25 12:18:27 2015.
