 Entering Link 1 = C:\G09W\l1.exe PID=      2980.
  
 Copyright (c) 1988,1990,1992,1993,1995,1998,2003,2009, Gaussian, Inc.
                  All Rights Reserved.
  
 This is part of the Gaussian(R) 09 program.  It is based on
 the Gaussian(R) 03 system (copyright 2003, Gaussian, Inc.),
 the Gaussian(R) 98 system (copyright 1998, Gaussian, Inc.),
 the Gaussian(R) 94 system (copyright 1995, Gaussian, Inc.),
 the Gaussian 92(TM) system (copyright 1992, Gaussian, Inc.),
 the Gaussian 90(TM) system (copyright 1990, Gaussian, Inc.),
 the Gaussian 88(TM) system (copyright 1988, Gaussian, Inc.),
 the Gaussian 86(TM) system (copyright 1986, Carnegie Mellon
 University), and the Gaussian 82(TM) system (copyright 1983,
 Carnegie Mellon University). Gaussian is a federally registered
 trademark of Gaussian, Inc.
  
 This software contains proprietary and confidential information,
 including trade secrets, belonging to Gaussian, Inc.
  
 This software is provided under written license and may be
 used, copied, transmitted, or stored only in accord with that
 written license.
  
 The following legend is applicable only to US Government
 contracts under FAR:
  
                    RESTRICTED RIGHTS LEGEND
  
 Use, reproduction and disclosure by the US Government is
 subject to restrictions as set forth in subparagraphs (a)
 and (c) of the Commercial Computer Software - Restricted
 Rights clause in FAR 52.227-19.
  
 Gaussian, Inc.
 340 Quinnipiac St., Bldg. 40, Wallingford CT 06492
  
  
 ---------------------------------------------------------------
 Warning -- This program may not be used in any manner that
 competes with the business of Gaussian, Inc. or will provide
 assistance to any competitor of Gaussian, Inc.  The licensee
 of this program is prohibited from giving any competitor of
 Gaussian, Inc. access to this program.  By using this program,
 the user acknowledges that Gaussian, Inc. is engaged in the
 business of creating and licensing software in the field of
 computational chemistry and represents and warrants to the
 licensee that it is not a competitor of Gaussian, Inc. and that
 it will not use this program in any manner prohibited above.
 ---------------------------------------------------------------
  

 Cite this work as:
 Gaussian 09, Revision A.02,
 M. J. Frisch, G. W. Trucks, H. B. Schlegel, G. E. Scuseria, 
 M. A. Robb, J. R. Cheeseman, G. Scalmani, V. Barone, B. Mennucci, 
 G. A. Petersson, H. Nakatsuji, M. Caricato, X. Li, H. P. Hratchian, 
 A. F. Izmaylov, J. Bloino, G. Zheng, J. L. Sonnenberg, M. Hada, 
 M. Ehara, K. Toyota, R. Fukuda, J. Hasegawa, M. Ishida, T. Nakajima, 
 Y. Honda, O. Kitao, H. Nakai, T. Vreven, J. A. Montgomery, Jr., 
 J. E. Peralta, F. Ogliaro, M. Bearpark, J. J. Heyd, E. Brothers, 
 K. N. Kudin, V. N. Staroverov, R. Kobayashi, J. Normand, 
 K. Raghavachari, A. Rendell, J. C. Burant, S. S. Iyengar, J. Tomasi, 
 M. Cossi, N. Rega, J. M. Millam, M. Klene, J. E. Knox, J. B. Cross, 
 V. Bakken, C. Adamo, J. Jaramillo, R. Gomperts, R. E. Stratmann, 
 O. Yazyev, A. J. Austin, R. Cammi, C. Pomelli, J. W. Ochterski, 
 R. L. Martin, K. Morokuma, V. G. Zakrzewski, G. A. Voth, 
 P. Salvador, J. J. Dannenberg, S. Dapprich, A. D. Daniels, 
 O. Farkas, J. B. Foresman, J. V. Ortiz, J. Cioslowski, 
 and D. J. Fox, Gaussian, Inc., Wallingford CT, 2009.
 
 ******************************************
 Gaussian 09:  IA32W-G09RevA.02 11-Jun-2009
                25-Feb-2015 
 ******************************************
 %chk=C:\Users\214584429\Dropbox\Ester(COOH)\fc.chk
 ----------------------------------------------------------
 # opt freq b3lyp/gen geom=connectivity gfinput pseudo=read
 ----------------------------------------------------------
 1/14=-1,18=20,19=15,26=3,38=1,57=2/1,3;
 2/9=110,12=2,17=6,18=5,40=1/2;
 3/5=7,11=2,16=1,17=8,24=10,25=1,30=1,71=1,74=-5/1,2,3;
 4//1;
 5/5=2,38=5/2;
 6/7=2,8=2,9=2,10=2,28=1/1;
 7//1,2,3,16;
 1/14=-1,18=20,19=15/3(2);
 2/9=110/2;
 99//99;
 2/9=110/2;
 3/5=7,6=1,11=2,16=1,17=8,25=1,30=1,71=1,74=-5,82=7/1,2,3;
 4/5=5,16=3/1;
 5/5=2,38=5/2;
 7//1,2,3,16;
 1/14=-1,18=20,19=15/3(-5);
 2/9=110/2;
 6/7=2,8=2,9=2,10=2,19=2,28=1/1;
 99/9=1/99;
 -------------------
 gen calculation FAc-C H O=6-31+g(d)/F=MIDIX
 -------------------
 Symbolic Z-matrix:
 Charge =  0 Multiplicity = 1
 C                     1.37869  -0.03125   0. 
 H                     1.7614    0.50902  -0.88336 
 H                     1.84595  -1.03091  -0.00007 
 H                     1.76139   0.50889   0.88344 
 C                    -0.09921  -0.13237  0. 
 O                    -0.82872  -1.07777   0. 
 F                    -0.71287   1.06854   0. 
 

 GradGradGradGradGradGradGradGradGradGradGradGradGradGradGradGradGradGrad
 Berny optimization.
 Initialization pass.
                           ----------------------------
                           !    Initial Parameters    !
                           ! (Angstroms and Degrees)  !
 --------------------------                            --------------------------
 ! Name  Definition              Value          Derivative Info.                !
 --------------------------------------------------------------------------------
 ! R1    R(1,2)                  1.1039         estimate D2E/DX2                !
 ! R2    R(1,3)                  1.1035         estimate D2E/DX2                !
 ! R3    R(1,4)                  1.1039         estimate D2E/DX2                !
 ! R4    R(1,5)                  1.4814         estimate D2E/DX2                !
 ! R5    R(5,6)                  1.1941         estimate D2E/DX2                !
 ! R6    R(5,7)                  1.3486         estimate D2E/DX2                !
 ! A1    A(2,1,3)              107.2481         estimate D2E/DX2                !
 ! A2    A(2,1,4)              106.3041         estimate D2E/DX2                !
 ! A3    A(2,1,5)              112.2884         estimate D2E/DX2                !
 ! A4    A(3,1,4)              107.2479         estimate D2E/DX2                !
 ! A5    A(3,1,5)              111.1378         estimate D2E/DX2                !
 ! A6    A(4,1,5)              112.288          estimate D2E/DX2                !
 ! A7    A(1,5,6)              131.57           estimate D2E/DX2                !
 ! A8    A(1,5,7)              113.1526         estimate D2E/DX2                !
 ! A9    A(6,5,7)              115.2773         estimate D2E/DX2                !
 ! D1    D(2,1,5,6)            120.1395         estimate D2E/DX2                !
 ! D2    D(2,1,5,7)            -59.861          estimate D2E/DX2                !
 ! D3    D(3,1,5,6)              0.0042         estimate D2E/DX2                !
 ! D4    D(3,1,5,7)           -179.9964         estimate D2E/DX2                !
 ! D5    D(4,1,5,6)           -120.1306         estimate D2E/DX2                !
 ! D6    D(4,1,5,7)             59.8688         estimate D2E/DX2                !
 --------------------------------------------------------------------------------
 Trust Radius=3.00D-01 FncErr=1.00D-07 GrdErr=1.00D-06
 Number of steps in this run=  31 maximum allowed number of steps= 100.
 GradGradGradGradGradGradGradGradGradGradGradGradGradGradGradGradGradGrad

                          Input orientation:                          
 ---------------------------------------------------------------------
 Center     Atomic      Atomic             Coordinates (Angstroms)
 Number     Number       Type             X           Y           Z
 ---------------------------------------------------------------------
      1          6           0        1.378693   -0.031247    0.000000
      2          1           0        1.761395    0.509015   -0.883364
      3          1           0        1.845953   -1.030909   -0.000068
      4          1           0        1.761393    0.508889    0.883441
      5          6           0       -0.099208   -0.132373   -0.000003
      6          8           0       -0.828724   -1.077768    0.000001
      7          9           0       -0.712874    1.068540    0.000001
 ---------------------------------------------------------------------
                    Distance matrix (angstroms):
                    1          2          3          4          5
     1  C    0.000000
     2  H    1.103937   0.000000
     3  H    1.103475   1.777281   0.000000
     4  H    1.103936   1.766805   1.777278   0.000000
     5  C    1.481357   2.157209   2.142666   2.157203   0.000000
     6  O    2.442928   3.163373   2.675087   3.163329   1.194138
     7  F    2.363088   2.686151   3.309876   2.686200   1.348621
                    6          7
     6  O    0.000000
     7  F    2.149432   0.000000
 Stoichiometry    C2H3FO
 Framework group  C1[X(C2H3FO)]
 Deg. of freedom    15
 Full point group                 C1      NOp   1
 Largest Abelian subgroup         C1      NOp   1
 Largest concise Abelian subgroup C1      NOp   1
                         Standard orientation:                         
 ---------------------------------------------------------------------
 Center     Atomic      Atomic             Coordinates (Angstroms)
 Number     Number       Type             X           Y           Z
 ---------------------------------------------------------------------
      1          6           0        1.378693   -0.031247    0.000000
      2          1           0        1.761395    0.509015   -0.883364
      3          1           0        1.845953   -1.030909   -0.000068
      4          1           0        1.761393    0.508889    0.883441
      5          6           0       -0.099208   -0.132373   -0.000003
      6          8           0       -0.828724   -1.077767    0.000000
      7          9           0       -0.712873    1.068541    0.000000
 ---------------------------------------------------------------------
 Rotational constants (GHZ):     11.5880396      9.3123761      5.3346202
 General basis read from cards:  (5D, 7F)
 AO basis set in the form of general basis input (Overlap normalization):
      1 0
 S   6 1.00       0.000000000000
      0.3047524880D+04  0.1834737132D-02
      0.4573695180D+03  0.1403732281D-01
      0.1039486850D+03  0.6884262226D-01
      0.2921015530D+02  0.2321844432D+00
      0.9286662960D+01  0.4679413484D+00
      0.3163926960D+01  0.3623119853D+00
 SP   3 1.00       0.000000000000
      0.7868272350D+01 -0.1193324198D+00  0.6899906659D-01
      0.1881288540D+01 -0.1608541517D+00  0.3164239610D+00
      0.5442492580D+00  0.1143456438D+01  0.7443082909D+00
 SP   1 1.00       0.000000000000
      0.1687144782D+00  0.1000000000D+01  0.1000000000D+01
 SP   1 1.00       0.000000000000
      0.4380000000D-01  0.1000000000D+01  0.1000000000D+01
 D   1 1.00       0.000000000000
      0.8000000000D+00  0.1000000000D+01
 ****
      2 0
 S   3 1.00       0.000000000000
      0.1873113696D+02  0.3349460434D-01
      0.2825394365D+01  0.2347269535D+00
      0.6401216923D+00  0.8137573261D+00
 S   1 1.00       0.000000000000
      0.1612777588D+00  0.1000000000D+01
 ****
      3 0
 S   3 1.00       0.000000000000
      0.1873113696D+02  0.3349460434D-01
      0.2825394365D+01  0.2347269535D+00
      0.6401216923D+00  0.8137573261D+00
 S   1 1.00       0.000000000000
      0.1612777588D+00  0.1000000000D+01
 ****
      4 0
 S   3 1.00       0.000000000000
      0.1873113696D+02  0.3349460434D-01
      0.2825394365D+01  0.2347269535D+00
      0.6401216923D+00  0.8137573261D+00
 S   1 1.00       0.000000000000
      0.1612777588D+00  0.1000000000D+01
 ****
      5 0
 S   6 1.00       0.000000000000
      0.3047524880D+04  0.1834737132D-02
      0.4573695180D+03  0.1403732281D-01
      0.1039486850D+03  0.6884262226D-01
      0.2921015530D+02  0.2321844432D+00
      0.9286662960D+01  0.4679413484D+00
      0.3163926960D+01  0.3623119853D+00
 SP   3 1.00       0.000000000000
      0.7868272350D+01 -0.1193324198D+00  0.6899906659D-01
      0.1881288540D+01 -0.1608541517D+00  0.3164239610D+00
      0.5442492580D+00  0.1143456438D+01  0.7443082909D+00
 SP   1 1.00       0.000000000000
      0.1687144782D+00  0.1000000000D+01  0.1000000000D+01
 SP   1 1.00       0.000000000000
      0.4380000000D-01  0.1000000000D+01  0.1000000000D+01
 D   1 1.00       0.000000000000
      0.8000000000D+00  0.1000000000D+01
 ****
      6 0
 S   6 1.00       0.000000000000
      0.5484671660D+04  0.1831074430D-02
      0.8252349460D+03  0.1395017220D-01
      0.1880469580D+03  0.6844507810D-01
      0.5296450000D+02  0.2327143360D+00
      0.1689757040D+02  0.4701928980D+00
      0.5799635340D+01  0.3585208530D+00
 SP   3 1.00       0.000000000000
      0.1553961625D+02 -0.1107775495D+00  0.7087426823D-01
      0.3599933586D+01 -0.1480262627D+00  0.3397528391D+00
      0.1013761750D+01  0.1130767015D+01  0.7271585773D+00
 SP   1 1.00       0.000000000000
      0.2700058226D+00  0.1000000000D+01  0.1000000000D+01
 SP   1 1.00       0.000000000000
      0.8450000000D-01  0.1000000000D+01  0.1000000000D+01
 D   1 1.00       0.000000000000
      0.8000000000D+00  0.1000000000D+01
 ****
      7 0
 S   3 1.00       0.000000000000
      0.3683711200D+03  0.6704002682D-01
      0.5506106000D+02  0.3892491557D+00
      0.1174767000D+02  0.6707882684D+00
 S   2 1.00       0.000000000000
      0.1515184000D+02 -0.1430237380D+00
      0.1151370000D+01  0.1043565469D+01
 S   1 1.00       0.000000000000
      0.3581100000D+00  0.1000000000D+01
 P   2 1.00       0.000000000000
      0.1057707000D+02  0.2289901111D+00
      0.2194980000D+01  0.8667566772D+00
 P   1 1.00       0.000000000000
      0.4793700000D+00  0.1000000000D+01
 D   1 1.00       0.000000000000
      0.1000000000D+01  0.1000000000D+01
 ****

 ======================================================================================================
                                       Pseudopotential Parameters
 ======================================================================================================
  Center     Atomic      Valence      Angular      Power
  Number     Number     Electrons     Momentum     of R      Exponent        Coefficient   SO-Coeffient
 ======================================================================================================
    1          6
                                   No pseudopotential on this center.
    2          1
                                   No pseudopotential on this center.
    3          1
                                   No pseudopotential on this center.
    4          1
                                   No pseudopotential on this center.
    5          6
                                   No pseudopotential on this center.
    6          8
                                   No pseudopotential on this center.
    7          9
                                   No pseudopotential on this center.
 ======================================================================================================
 There are    74 symmetry adapted basis functions of A   symmetry.
 Integral buffers will be    262144 words long.
 Raffenetti 2 integral format.
 Two-electron integral symmetry is turned on.
    74 basis functions,   129 primitive gaussians,    78 cartesian basis functions
    16 alpha electrons       16 beta electrons
       nuclear repulsion energy       118.7299102007 Hartrees.
 NAtoms=    7 NActive=    7 NUniq=    7 SFac= 7.50D-01 NAtFMM=   80 NAOKFM=F Big=F
 One-electron integrals computed using PRISM.
   1 Symmetry operations used in ECPInt.
 ECPInt:  NShTT=     378 NPrTT=    1779 LenC2=     378 LenP2D=    1486.
 LDataN:  DoStor=T MaxTD1= 4 Len=   56
 NBasis=    74 RedAO= T  NBF=    74
 NBsUse=    74 1.00D-06 NBFU=    74
 Harris functional with IExCor=  402 diagonalized for initial guess.
 ExpMin= 4.38D-02 ExpMax= 5.48D+03 ExpMxC= 8.25D+02 IAcc=2 IRadAn=         0 AccDes= 0.00D+00
 HarFok:  IExCor=  402 AccDes= 0.00D+00 IRadAn=         0 IDoV= 1
 ScaDFX=  1.000000  1.000000  1.000000  1.000000
 FoFCou: FMM=F IPFlag=           0 FMFlag=      100000 FMFlg1=           0
         NFxFlg=           0 DoJE=T BraDBF=F KetDBF=T FulRan=T
         Omega=  0.000000  0.000000  1.000000  0.000000  0.000000 ICntrl=     500 IOpCl=  0
         NMat0=    1 NMatS0=    1 NMatT0=    0 NMatD0=    1 NMtDS0=    0 NMtDT0=    0
         I1Cent=           4 NGrid=           0.
 Petite list used in FoFCou.
 Initial guess orbital symmetries:
       Occupied  (A) (A) (A) (A) (A) (A) (A) (A) (A) (A) (A) (A)
                 (A) (A) (A) (A)
       Virtual   (A) (A) (A) (A) (A) (A) (A) (A) (A) (A) (A) (A)
                 (A) (A) (A) (A) (A) (A) (A) (A) (A) (A) (A) (A)
                 (A) (A) (A) (A) (A) (A) (A) (A) (A) (A) (A) (A)
                 (A) (A) (A) (A) (A) (A) (A) (A) (A) (A) (A) (A)
                 (A) (A) (A) (A) (A) (A) (A) (A) (A) (A)
 The electronic state of the initial guess is 1-A.
 Requested convergence on RMS density matrix=1.00D-08 within 128 cycles.
 Requested convergence on MAX density matrix=1.00D-06.
 Requested convergence on             energy=1.00D-06.
 No special actions if energy rises.
 Keep R1 ints in memory in canonical form, NReq=5737517.
 SCF Done:  E(RB3LYP) =  -252.556667481     A.U. after   11 cycles
             Convg  =    0.9551D-08             -V/T =  2.0101

 **********************************************************************

            Population analysis using the SCF density.

 **********************************************************************

 Orbital symmetries:
       Occupied  (A) (A) (A) (A) (A) (A) (A) (A) (A) (A) (A) (A)
                 (A) (A) (A) (A)
       Virtual   (A) (A) (A) (A) (A) (A) (A) (A) (A) (A) (A) (A)
                 (A) (A) (A) (A) (A) (A) (A) (A) (A) (A) (A) (A)
                 (A) (A) (A) (A) (A) (A) (A) (A) (A) (A) (A) (A)
                 (A) (A) (A) (A) (A) (A) (A) (A) (A) (A) (A) (A)
                 (A) (A) (A) (A) (A) (A) (A) (A) (A) (A)
 The electronic state is 1-A.
 Alpha  occ. eigenvalues --  -24.59223 -19.17113 -10.36296 -10.22399  -1.25874
 Alpha  occ. eigenvalues --   -1.07535  -0.78817  -0.61828  -0.53126  -0.51200
 Alpha  occ. eigenvalues --   -0.49692  -0.43573  -0.43486  -0.40091  -0.37118
 Alpha  occ. eigenvalues --   -0.31284
 Alpha virt. eigenvalues --   -0.02733  -0.00282   0.03819   0.04509   0.04799
 Alpha virt. eigenvalues --    0.07844   0.08250   0.08808   0.13303   0.14962
 Alpha virt. eigenvalues --    0.16401   0.20750   0.22862   0.25278   0.25970
 Alpha virt. eigenvalues --    0.27929   0.29059   0.32757   0.49038   0.61592
 Alpha virt. eigenvalues --    0.61822   0.65701   0.67517   0.68234   0.74627
 Alpha virt. eigenvalues --    0.88653   0.93018   1.00379   1.06354   1.18264
 Alpha virt. eigenvalues --    1.20984   1.25027   1.31111   1.37048   1.43570
 Alpha virt. eigenvalues --    1.56893   1.66946   1.68610   1.77631   1.77696
 Alpha virt. eigenvalues --    1.84947   1.92944   1.98030   2.04389   2.10627
 Alpha virt. eigenvalues --    2.12426   2.18789   2.21269   2.22185   2.24860
 Alpha virt. eigenvalues --    2.32826   2.41159   2.60327   2.72960   2.81176
 Alpha virt. eigenvalues --    3.08724   3.14877   3.45944
          Condensed to atoms (all electrons):
              1          2          3          4          5          6
     1  C    6.130882   0.395726   0.333882   0.395723  -0.279629  -0.091203
     2  H    0.395726   0.471255  -0.027078  -0.022728  -0.060442   0.001769
     3  H    0.333882  -0.027078   0.468428  -0.027078   0.007219  -0.001017
     4  H    0.395723  -0.022728  -0.027078   0.471251  -0.060436   0.001768
     5  C   -0.279629  -0.060442   0.007219  -0.060436   5.012831   0.361615
     6  O   -0.091203   0.001769  -0.001017   0.001768   0.361615   8.173220
     7  F   -0.147589  -0.001542   0.001384  -0.001542   0.487982  -0.071104
              7
     1  C   -0.147589
     2  H   -0.001542
     3  H    0.001384
     4  H   -0.001542
     5  C    0.487982
     6  O   -0.071104
     7  F    8.880773
 Mulliken atomic charges:
              1
     1  C   -0.737793
     2  H    0.243040
     3  H    0.244259
     4  H    0.243042
     5  C    0.530861
     6  O   -0.375047
     7  F   -0.148362
 Sum of Mulliken atomic charges =   0.00000
 Mulliken charges with hydrogens summed into heavy atoms:
              1
     1  C   -0.007452
     5  C    0.530861
     6  O   -0.375047
     7  F   -0.148362
 Sum of Mulliken charges with hydrogens summed into heavy atoms =   0.00000
 Electronic spatial extent (au):  <R**2>=            244.5751
 Charge=              0.0000 electrons
 Dipole moment (field-independent basis, Debye):
    X=              3.1567    Y=              1.1209    Z=              0.0000  Tot=              3.3498
 Quadrupole moment (field-independent basis, Debye-Ang):
   XX=            -22.4380   YY=            -25.6948   ZZ=            -21.6210
   XY=             -1.2716   XZ=              0.0000   YZ=              0.0000
 Traceless Quadrupole moment (field-independent basis, Debye-Ang):
   XX=              0.8133   YY=             -2.4435   ZZ=              1.6303
   XY=             -1.2716   XZ=              0.0000   YZ=              0.0000
 Octapole moment (field-independent basis, Debye-Ang**2):
  XXX=             -1.6301  YYY=              7.0704  ZZZ=              0.0002  XYY=              0.9432
  XXY=              2.9272  XXZ=              0.0000  XZZ=             -1.4465  YZZ=              2.4227
  YYZ=             -0.0001  XYZ=              0.0000
 Hexadecapole moment (field-independent basis, Debye-Ang**3):
 XXXX=           -159.8764 YYYY=           -105.0749 ZZZZ=            -27.4291 XXXY=             -5.4596
 XXXZ=              0.0001 YYYX=             -7.1826 YYYZ=              0.0000 ZZZX=              0.0003
 ZZZY=              0.0000 XXYY=            -42.9420 XXZZ=            -29.8098 YYZZ=            -21.3133
 XXYZ=              0.0000 YYXZ=             -0.0003 ZZXY=              0.2455
 N-N= 1.187299102007D+02 E-N=-8.314832149794D+02  KE= 2.500365821899D+02
   1 Symmetry operations used in ECPInt.
 ECPInt:  NShTT=     378 NPrTT=    1779 LenC2=     378 LenP2D=    1486.
 LDataN:  DoStor=T MaxTD1= 5 Len=  102
 Calling FoFJK, ICntrl=      2127 FMM=F ISym2X=0 I1Cent= 0 IOpClX= 0 NMat=1 NMatS=1 NMatT=0.
 ***** Axes restored to original set *****
 -------------------------------------------------------------------
 Center     Atomic                   Forces (Hartrees/Bohr)
 Number     Number              X              Y              Z
 -------------------------------------------------------------------
      1        6           0.024256001   -0.007935527   -0.000001615
      2        1          -0.006357159   -0.000452014    0.003302342
      3        1          -0.006472950    0.004866614    0.000000581
      4        1          -0.006356766   -0.000450949   -0.003301545
      5        6          -0.024666127    0.002076639    0.000000464
      6        8           0.012390064   -0.018047646   -0.000000278
      7        9           0.007206938    0.019942882    0.000000052
 -------------------------------------------------------------------
 Cartesian Forces:  Max     0.024666127 RMS     0.010604501

 GradGradGradGradGradGradGradGradGradGradGradGradGradGradGradGradGradGrad
 Berny optimization.
 Internal  Forces:  Max     0.028832398 RMS     0.009224872
 Search for a local minimum.
 Step number   1 out of a maximum of   31
 All quantities printed in internal units (Hartrees-Bohrs-Radians)
 Mixed Optimization -- RFO/linear search
 Second derivative matrix not updated -- first step.
     Eigenvalues ---    0.01013   0.01013   0.07158   0.07246   0.16000
     Eigenvalues ---    0.16000   0.16000   0.25000   0.25000   0.33250
     Eigenvalues ---    0.33251   0.33301   0.34415   0.55316   1.07825
     Eigenvalues --- 1000.000001000.000001000.000001000.000001000.00000
     Eigenvalues --- 1000.00000
 RFO step:  Lambda=-6.60339126D-03 EMin= 1.01256184D-02
 Linear search not attempted -- first point.
 Iteration  1 RMS(Cart)=  0.04451519 RMS(Int)=  0.00127892
 Iteration  2 RMS(Cart)=  0.00124011 RMS(Int)=  0.00031128
 Iteration  3 RMS(Cart)=  0.00000047 RMS(Int)=  0.00031128
 Variable       Old X    -DE/DX   Delta X   Delta X   Delta X     New X
                                 (Linear)    (Quad)   (Total)
    R1        2.08614  -0.00507   0.00000  -0.01494  -0.01494   2.07120
    R2        2.08526  -0.00715   0.00000  -0.02106  -0.02106   2.06420
    R3        2.08614  -0.00506   0.00000  -0.01494  -0.01494   2.07120
    R4        2.79936   0.00479   0.00000   0.01365   0.01365   2.81301
    R5        2.25659   0.00672   0.00000   0.00620   0.00620   2.26279
    R6        2.54852   0.01447   0.00000   0.02586   0.02586   2.57438
    A1        1.87183   0.00502   0.00000   0.03480   0.03471   1.90655
    A2        1.85536   0.00392   0.00000   0.01426   0.01330   1.86865
    A3        1.95980  -0.00521   0.00000  -0.03385  -0.03438   1.92542
    A4        1.87183   0.00502   0.00000   0.03480   0.03471   1.90654
    A5        1.93972  -0.00244   0.00000  -0.00952  -0.00961   1.93011
    A6        1.95980  -0.00521   0.00000  -0.03385  -0.03438   1.92542
    A7        2.29633  -0.01821   0.00000  -0.07095  -0.07095   2.22538
    A8        1.97489  -0.01063   0.00000  -0.04141  -0.04141   1.93347
    A9        2.01197   0.02883   0.00000   0.11236   0.11236   2.12433
    D1        2.09683   0.00115   0.00000   0.01468   0.01433   2.11116
    D2       -1.04477   0.00115   0.00000   0.01469   0.01433  -1.03044
    D3        0.00007   0.00000   0.00000  -0.00001  -0.00001   0.00006
    D4       -3.14153   0.00000   0.00000   0.00000   0.00000  -3.14153
    D5       -2.09668  -0.00115   0.00000  -0.01470  -0.01435  -2.11102
    D6        1.04491  -0.00115   0.00000  -0.01470  -0.01434   1.03057
         Item               Value     Threshold  Converged?
 Maximum Force            0.028832     0.000450     NO 
 RMS     Force            0.009225     0.000300     NO 
 Maximum Displacement     0.095419     0.001800     NO 
 RMS     Displacement     0.044666     0.001200     NO 
 Predicted change in Energy=-3.387757D-03
 GradGradGradGradGradGradGradGradGradGradGradGradGradGradGradGradGradGrad

                          Input orientation:                          
 ---------------------------------------------------------------------
 Center     Atomic      Atomic             Coordinates (Angstroms)
 Number     Number       Type             X           Y           Z
 ---------------------------------------------------------------------
      1          6           0        1.378963   -0.039184   -0.000001
      2          1           0        1.727434    0.511277   -0.881390
      3          1           0        1.823189   -1.037105   -0.000066
      4          1           0        1.727433    0.511155    0.881465
      5          6           0       -0.106982   -0.127703   -0.000001
      6          8           0       -0.778230   -1.119284   -0.000004
      7          9           0       -0.665180    1.114991    0.000003
 ---------------------------------------------------------------------
                    Distance matrix (angstroms):
                    1          2          3          4          5
     1  C    0.000000
     2  H    1.096032   0.000000
     3  H    1.092329   1.784204   0.000000
     4  H    1.096032   1.762855   1.784202   0.000000
     5  C    1.488579   2.133125   2.133676   2.133120   0.000000
     6  O    2.412488   3.116717   2.602717   3.116676   1.197417
     7  F    2.347476   2.620291   3.289909   2.620342   1.362305
                    6          7
     6  O    0.000000
     7  F    2.237133   0.000000
 Stoichiometry    C2H3FO
 Framework group  C1[X(C2H3FO)]
 Deg. of freedom    15
 Full point group                 C1      NOp   1
 Largest Abelian subgroup         C1      NOp   1
 Largest concise Abelian subgroup C1      NOp   1
                         Standard orientation:                         
 ---------------------------------------------------------------------
 Center     Atomic      Atomic             Coordinates (Angstroms)
 Number     Number       Type             X           Y           Z
 ---------------------------------------------------------------------
      1          6           0       -1.357544    0.025967   -0.000001
      2          1           0       -1.699814   -0.528370   -0.881390
      3          1           0       -1.812944    1.018839   -0.000066
      4          1           0       -1.699814   -0.528249    0.881465
      5          6           0        0.127314    0.131161   -0.000001
      6          8           0        0.787389    1.130214   -0.000003
      7          9           0        0.699426   -1.105189    0.000003
 ---------------------------------------------------------------------
 Rotational constants (GHZ):     10.7697757      9.7657992      5.2895125
 Basis read from rwf:  (5D, 7F)
 Pseudo-potential data read from rwf file.
 There are    74 symmetry adapted basis functions of A   symmetry.
 Integral buffers will be    262144 words long.
 Raffenetti 2 integral format.
 Two-electron integral symmetry is turned on.
    74 basis functions,   129 primitive gaussians,    78 cartesian basis functions
    16 alpha electrons       16 beta electrons
       nuclear repulsion energy       118.2037503404 Hartrees.
 NAtoms=    7 NActive=    7 NUniq=    7 SFac= 7.50D-01 NAtFMM=   80 NAOKFM=F Big=F
 One-electron integrals computed using PRISM.
   1 Symmetry operations used in ECPInt.
 ECPInt:  NShTT=     378 NPrTT=    1779 LenC2=     378 LenP2D=    1490.
 LDataN:  DoStor=T MaxTD1= 4 Len=   56
 NBasis=    74 RedAO= T  NBF=    74
 NBsUse=    74 1.00D-06 NBFU=    74
 Initial guess read from the read-write file.
 B after Tr=     0.000000    0.000000    0.000000
         Rot=    1.000000    0.000000    0.000000    0.000000 Ang=   0.00 deg.
 Initial guess orbital symmetries:
       Occupied  (A) (A) (A) (A) (A) (A) (A) (A) (A) (A) (A) (A)
                 (A) (A) (A) (A)
       Virtual   (A) (A) (A) (A) (A) (A) (A) (A) (A) (A) (A) (A)
                 (A) (A) (A) (A) (A) (A) (A) (A) (A) (A) (A) (A)
                 (A) (A) (A) (A) (A) (A) (A) (A) (A) (A) (A) (A)
                 (A) (A) (A) (A) (A) (A) (A) (A) (A) (A) (A) (A)
                 (A) (A) (A) (A) (A) (A) (A) (A) (A) (A)
 Harris functional with IExCor=  402 diagonalized for initial guess.
 ExpMin= 4.38D-02 ExpMax= 5.48D+03 ExpMxC= 8.25D+02 IAcc=2 IRadAn=         0 AccDes= 0.00D+00
 HarFok:  IExCor=  402 AccDes= 0.00D+00 IRadAn=         0 IDoV= 1
 ScaDFX=  1.000000  1.000000  1.000000  1.000000
 FoFCou: FMM=F IPFlag=           0 FMFlag=      100000 FMFlg1=           0
         NFxFlg=           0 DoJE=T BraDBF=F KetDBF=T FulRan=T
         Omega=  0.000000  0.000000  1.000000  0.000000  0.000000 ICntrl=     500 IOpCl=  0
         NMat0=    1 NMatS0=    1 NMatT0=    0 NMatD0=    1 NMtDS0=    0 NMtDT0=    0
         I1Cent=           4 NGrid=           0.
 Petite list used in FoFCou.
 Requested convergence on RMS density matrix=1.00D-08 within 128 cycles.
 Requested convergence on MAX density matrix=1.00D-06.
 Requested convergence on             energy=1.00D-06.
 No special actions if energy rises.
 Keep R1 ints in memory in canonical form, NReq=5737371.
 SCF Done:  E(RB3LYP) =  -252.559446904     A.U. after   12 cycles
             Convg  =    0.6501D-08             -V/T =  2.0102
   1 Symmetry operations used in ECPInt.
 ECPInt:  NShTT=     378 NPrTT=    1779 LenC2=     378 LenP2D=    1490.
 LDataN:  DoStor=T MaxTD1= 5 Len=  102
 Calling FoFJK, ICntrl=      2127 FMM=F ISym2X=0 I1Cent= 0 IOpClX= 0 NMat=1 NMatS=1 NMatT=0.
 ***** Axes restored to original set *****
 -------------------------------------------------------------------
 Center     Atomic                   Forces (Hartrees/Bohr)
 Number     Number              X              Y              Z
 -------------------------------------------------------------------
      1        6           0.009367287   -0.001546112   -0.000000166
      2        1          -0.000753157    0.000661895    0.000139590
      3        1          -0.001497533    0.000439371    0.000000197
      4        1          -0.000753147    0.000662091   -0.000139494
      5        6          -0.004361050   -0.004175274   -0.000000553
      6        8           0.000339029    0.007653631    0.000000111
      7        9          -0.002341430   -0.003695602    0.000000315
 -------------------------------------------------------------------
 Cartesian Forces:  Max     0.009367287 RMS     0.003154034

 GradGradGradGradGradGradGradGradGradGradGradGradGradGradGradGradGradGrad
 Berny optimization.
 Using GEDIIS/GDIIS optimizer.
 Internal  Forces:  Max     0.006524097 RMS     0.002697965
 Search for a local minimum.
 Step number   2 out of a maximum of   31
 All quantities printed in internal units (Hartrees-Bohrs-Radians)
 Mixed Optimization -- RFO/linear search
 Update second derivatives using D2CorX and points    1    2
 DE= -2.78D-03 DEPred=-3.39D-03 R= 8.20D-01
 SS=  1.41D+00  RLast= 1.64D-01 DXNew= 5.0454D-01 4.9315D-01
 Trust test= 8.20D-01 RLast= 1.64D-01 DXMaxT set to 4.93D-01
 Use linear search instead of GDIIS.
     Eigenvalues ---    0.01013   0.01013   0.07420   0.07487   0.15166
     Eigenvalues ---    0.16000   0.16014   0.24902   0.28842   0.32791
     Eigenvalues ---    0.33251   0.33290   0.36256   0.56195   1.09762
     Eigenvalues --- 1000.000001000.000001000.000001000.000001000.00000
     Eigenvalues --- 1000.00000
 RFO step:  Lambda=-2.47519398D-04 EMin= 1.01256184D-02
 Quartic linear search produced a step of -0.12285.
 Iteration  1 RMS(Cart)=  0.00820520 RMS(Int)=  0.00004544
 Iteration  2 RMS(Cart)=  0.00003645 RMS(Int)=  0.00002807
 Iteration  3 RMS(Cart)=  0.00000000 RMS(Int)=  0.00002807
 Variable       Old X    -DE/DX   Delta X   Delta X   Delta X     New X
                                 (Linear)    (Quad)   (Total)
    R1        2.07120  -0.00002   0.00184  -0.00238  -0.00054   2.07066
    R2        2.06420  -0.00101   0.00259  -0.00596  -0.00337   2.06083
    R3        2.07120  -0.00002   0.00183  -0.00238  -0.00054   2.07066
    R4        2.81301   0.00637  -0.00168   0.01834   0.01667   2.82968
    R5        2.26279  -0.00652  -0.00076  -0.00432  -0.00508   2.25771
    R6        2.57438  -0.00242  -0.00318   0.00025  -0.00292   2.57146
    A1        1.90655   0.00124  -0.00426   0.01292   0.00866   1.91520
    A2        1.86865   0.00030  -0.00163   0.00155   0.00000   1.86866
    A3        1.92542  -0.00077   0.00422  -0.00994  -0.00567   1.91976
    A4        1.90654   0.00124  -0.00426   0.01292   0.00866   1.91520
    A5        1.93011  -0.00114   0.00118  -0.00680  -0.00561   1.92450
    A6        1.92542  -0.00077   0.00422  -0.00994  -0.00567   1.91975
    A7        2.22538   0.00289   0.00872  -0.00085   0.00787   2.23325
    A8        1.93347   0.00327   0.00509   0.00503   0.01012   1.94359
    A9        2.12433  -0.00616  -0.01380  -0.00419  -0.01799   2.10634
    D1        2.11116   0.00029  -0.00176   0.00518   0.00346   2.11461
    D2       -1.03044   0.00029  -0.00176   0.00516   0.00343  -1.02701
    D3        0.00006   0.00000   0.00000   0.00000   0.00001   0.00007
    D4       -3.14153   0.00000   0.00000  -0.00002  -0.00002  -3.14155
    D5       -2.11102  -0.00029   0.00176  -0.00517  -0.00345  -2.11447
    D6        1.03057  -0.00029   0.00176  -0.00520  -0.00347   1.02710
         Item               Value     Threshold  Converged?
 Maximum Force            0.006524     0.000450     NO 
 RMS     Force            0.002698     0.000300     NO 
 Maximum Displacement     0.019793     0.001800     NO 
 RMS     Displacement     0.008196     0.001200     NO 
 Predicted change in Energy=-1.768408D-04
 GradGradGradGradGradGradGradGradGradGradGradGradGradGradGradGradGradGrad

                          Input orientation:                          
 ---------------------------------------------------------------------
 Center     Atomic      Atomic             Coordinates (Angstroms)
 Number     Number       Type             X           Y           Z
 ---------------------------------------------------------------------
      1          6           0        1.387979   -0.040637   -0.000003
      2          1           0        1.730883    0.513104   -0.881162
      3          1           0        1.824823   -1.039864   -0.000061
      4          1           0        1.730874    0.512990    0.881233
      5          6           0       -0.106865   -0.128097   -0.000010
      6          8           0       -0.785412   -1.111433   -0.000005
      7          9           0       -0.675654    1.108084    0.000014
 ---------------------------------------------------------------------
                    Distance matrix (angstroms):
                    1          2          3          4          5
     1  C    0.000000
     2  H    1.095744   0.000000
     3  H    1.090545   1.787980   0.000000
     4  H    1.095745   1.762395   1.787977   0.000000
     5  C    1.497400   2.136559   2.136056   2.136554   0.000000
     6  O    2.422856   3.122067   2.611216   3.122023   1.194729
     7  F    2.361808   2.630949   3.296372   2.630981   1.360759
                    6          7
     6  O    0.000000
     7  F    2.222229   0.000000
 Stoichiometry    C2H3FO
 Framework group  C1[X(C2H3FO)]
 Deg. of freedom    15
 Full point group                 C1      NOp   1
 Largest Abelian subgroup         C1      NOp   1
 Largest concise Abelian subgroup C1      NOp   1
                         Standard orientation:                         
 ---------------------------------------------------------------------
 Center     Atomic      Atomic             Coordinates (Angstroms)
 Number     Number       Type             X           Y           Z
 ---------------------------------------------------------------------
      1          6           0       -1.369489    0.017436   -0.000004
      2          1           0       -1.702258   -0.542455   -0.881163
      3          1           0       -1.824448    1.008546   -0.000062
      4          1           0       -1.702251   -0.542341    0.881232
      5          6           0        0.123515    0.132089   -0.000011
      6          8           0        0.784052    1.127613   -0.000006
      7          9           0        0.714710   -1.093534    0.000014
 ---------------------------------------------------------------------
 Rotational constants (GHZ):     10.9020302      9.6252813      5.2791326
 Basis read from rwf:  (5D, 7F)
 Pseudo-potential data read from rwf file.
 There are    74 symmetry adapted basis functions of A   symmetry.
 Integral buffers will be    262144 words long.
 Raffenetti 2 integral format.
 Two-electron integral symmetry is turned on.
    74 basis functions,   129 primitive gaussians,    78 cartesian basis functions
    16 alpha electrons       16 beta electrons
       nuclear repulsion energy       118.1663836700 Hartrees.
 NAtoms=    7 NActive=    7 NUniq=    7 SFac= 7.50D-01 NAtFMM=   80 NAOKFM=F Big=F
 One-electron integrals computed using PRISM.
   1 Symmetry operations used in ECPInt.
 ECPInt:  NShTT=     378 NPrTT=    1779 LenC2=     378 LenP2D=    1486.
 LDataN:  DoStor=T MaxTD1= 4 Len=   56
 NBasis=    74 RedAO= T  NBF=    74
 NBsUse=    74 1.00D-06 NBFU=    74
 Initial guess read from the read-write file.
 B after Tr=     0.000000    0.000000    0.000000
         Rot=    1.000000    0.000000    0.000000    0.000000 Ang=   0.00 deg.
 Initial guess orbital symmetries:
       Occupied  (A) (A) (A) (A) (A) (A) (A) (A) (A) (A) (A) (A)
                 (A) (A) (A) (A)
       Virtual   (A) (A) (A) (A) (A) (A) (A) (A) (A) (A) (A) (A)
                 (A) (A) (A) (A) (A) (A) (A) (A) (A) (A) (A) (A)
                 (A) (A) (A) (A) (A) (A) (A) (A) (A) (A) (A) (A)
                 (A) (A) (A) (A) (A) (A) (A) (A) (A) (A) (A) (A)
                 (A) (A) (A) (A) (A) (A) (A) (A) (A) (A)
 Requested convergence on RMS density matrix=1.00D-08 within 128 cycles.
 Requested convergence on MAX density matrix=1.00D-06.
 Requested convergence on             energy=1.00D-06.
 No special actions if energy rises.
 Keep R1 ints in memory in canonical form, NReq=5737371.
 SCF Done:  E(RB3LYP) =  -252.559652081     A.U. after    9 cycles
             Convg  =    0.7363D-08             -V/T =  2.0102
   1 Symmetry operations used in ECPInt.
 ECPInt:  NShTT=     378 NPrTT=    1779 LenC2=     378 LenP2D=    1486.
 LDataN:  DoStor=T MaxTD1= 5 Len=  102
 Calling FoFJK, ICntrl=      2127 FMM=F ISym2X=0 I1Cent= 0 IOpClX= 0 NMat=1 NMatS=1 NMatT=0.
 ***** Axes restored to original set *****
 -------------------------------------------------------------------
 Center     Atomic                   Forces (Hartrees/Bohr)
 Number     Number              X              Y              Z
 -------------------------------------------------------------------
      1        6           0.002299803    0.000031843   -0.000000918
      2        1          -0.000315731    0.000203567   -0.000062331
      3        1          -0.000551736   -0.000199042   -0.000000034
      4        1          -0.000316161    0.000203648    0.000062236
      5        6          -0.001704526   -0.000806270    0.000003043
      6        8           0.000439904    0.001295571   -0.000001209
      7        9           0.000148446   -0.000729316   -0.000000787
 -------------------------------------------------------------------
 Cartesian Forces:  Max     0.002299803 RMS     0.000752959

 GradGradGradGradGradGradGradGradGradGradGradGradGradGradGradGradGradGrad
 Berny optimization.
 Using GEDIIS/GDIIS optimizer.
 Internal  Forces:  Max     0.001311071 RMS     0.000493271
 Search for a local minimum.
 Step number   3 out of a maximum of   31
 All quantities printed in internal units (Hartrees-Bohrs-Radians)
 Mixed Optimization -- En-DIIS/RFO-DIIS
 Update second derivatives using D2CorX and points    1    2    3
 DE= -2.05D-04 DEPred=-1.77D-04 R= 1.16D+00
 SS=  1.41D+00  RLast= 3.32D-02 DXNew= 8.2938D-01 9.9741D-02
 Trust test= 1.16D+00 RLast= 3.32D-02 DXMaxT set to 4.93D-01
 Use linear search instead of GDIIS.
     Eigenvalues ---    0.01013   0.01013   0.07471   0.07556   0.13691
     Eigenvalues ---    0.15996   0.16000   0.25003   0.28736   0.32949
     Eigenvalues ---    0.33251   0.33303   0.33916   0.55349   1.06771
     Eigenvalues --- 1000.000001000.000001000.000001000.000001000.00000
     Eigenvalues --- 1000.00000
 RFO step:  Lambda=-8.97442095D-06 EMin= 1.01256179D-02
 Quartic linear search produced a step of  0.19120.
 Iteration  1 RMS(Cart)=  0.00191575 RMS(Int)=  0.00000850
 Iteration  2 RMS(Cart)=  0.00000629 RMS(Int)=  0.00000539
 Iteration  3 RMS(Cart)=  0.00000000 RMS(Int)=  0.00000539
 Variable       Old X    -DE/DX   Delta X   Delta X   Delta X     New X
                                 (Linear)    (Quad)   (Total)
    R1        2.07066   0.00006  -0.00010   0.00015   0.00005   2.07071
    R2        2.06083  -0.00004  -0.00064   0.00022  -0.00043   2.06041
    R3        2.07066   0.00006  -0.00010   0.00015   0.00005   2.07071
    R4        2.82968   0.00113   0.00319   0.00123   0.00441   2.83409
    R5        2.25771  -0.00131  -0.00097  -0.00051  -0.00148   2.25623
    R6        2.57146  -0.00073  -0.00056  -0.00082  -0.00138   2.57008
    A1        1.91520   0.00053   0.00166   0.00310   0.00474   1.91995
    A2        1.86866   0.00024   0.00000   0.00147   0.00146   1.87012
    A3        1.91976  -0.00032  -0.00108  -0.00190  -0.00299   1.91677
    A4        1.91520   0.00053   0.00166   0.00310   0.00475   1.91994
    A5        1.92450  -0.00063  -0.00107  -0.00368  -0.00476   1.91974
    A6        1.91975  -0.00032  -0.00108  -0.00190  -0.00300   1.91675
    A7        2.23325   0.00038   0.00150  -0.00016   0.00135   2.23460
    A8        1.94359   0.00004   0.00194  -0.00192   0.00001   1.94360
    A9        2.10634  -0.00043  -0.00344   0.00208  -0.00136   2.10498
    D1        2.11461   0.00005   0.00066   0.00016   0.00082   2.11543
    D2       -1.02701   0.00005   0.00066   0.00032   0.00097  -1.02604
    D3        0.00007   0.00000   0.00000  -0.00009  -0.00008  -0.00002
    D4       -3.14155   0.00000   0.00000   0.00007   0.00007  -3.14148
    D5       -2.11447  -0.00005  -0.00066  -0.00033  -0.00099  -2.11545
    D6        1.02710  -0.00005  -0.00066  -0.00017  -0.00083   1.02627
         Item               Value     Threshold  Converged?
 Maximum Force            0.001311     0.000450     NO 
 RMS     Force            0.000493     0.000300     NO 
 Maximum Displacement     0.005064     0.001800     NO 
 RMS     Displacement     0.001916     0.001200     NO 
 Predicted change in Energy=-9.581165D-06
 GradGradGradGradGradGradGradGradGradGradGradGradGradGradGradGradGradGrad

                          Input orientation:                          
 ---------------------------------------------------------------------
 Center     Atomic      Atomic             Coordinates (Angstroms)
 Number     Number       Type             X           Y           Z
 ---------------------------------------------------------------------
      1          6           0        1.390658   -0.040604    0.000005
      2          1           0        1.730242    0.514435   -0.881657
      3          1           0        1.822928   -1.041574   -0.000067
      4          1           0        1.730271    0.514316    0.881731
      5          6           0       -0.106492   -0.128607    0.000035
      6          8           0       -0.785651   -1.110567   -0.000026
      7          9           0       -0.675328    1.106747   -0.000013
 ---------------------------------------------------------------------
                    Distance matrix (angstroms):
                    1          2          3          4          5
     1  C    0.000000
     2  H    1.095771   0.000000
     3  H    1.090319   1.790797   0.000000
     4  H    1.095771   1.763388   1.790795   0.000000
     5  C    1.499735   2.136463   2.134518   2.136454   0.000000
     6  O    2.425107   3.122118   2.609491   3.122115   1.193944
     7  F    2.363200   2.629619   3.294930   2.629706   1.360027
                    6          7
     6  O    0.000000
     7  F    2.220057   0.000000
 Stoichiometry    C2H3FO
 Framework group  C1[X(C2H3FO)]
 Deg. of freedom    15
 Full point group                 C1      NOp   1
 Largest Abelian subgroup         C1      NOp   1
 Largest concise Abelian subgroup C1      NOp   1
                         Standard orientation:                         
 ---------------------------------------------------------------------
 Center     Atomic      Atomic             Coordinates (Angstroms)
 Number     Number       Type             X           Y           Z
 ---------------------------------------------------------------------
      1          6           0       -1.371628    0.019338    0.000007
      2          1           0       -1.701950   -0.541263   -0.881655
      3          1           0       -1.820456    1.012993   -0.000065
      4          1           0       -1.701981   -0.541144    0.881733
      5          6           0        0.123855    0.132185    0.000037
      6          8           0        0.786617    1.125285   -0.000023
      7          9           0        0.713121   -1.093556   -0.000010
 ---------------------------------------------------------------------
 Rotational constants (GHZ):     10.9184283      9.6115944      5.2790435
 Basis read from rwf:  (5D, 7F)
 Pseudo-potential data read from rwf file.
 There are    74 symmetry adapted basis functions of A   symmetry.
 Integral buffers will be    262144 words long.
 Raffenetti 2 integral format.
 Two-electron integral symmetry is turned on.
    74 basis functions,   129 primitive gaussians,    78 cartesian basis functions
    16 alpha electrons       16 beta electrons
       nuclear repulsion energy       118.1757759860 Hartrees.
 NAtoms=    7 NActive=    7 NUniq=    7 SFac= 7.50D-01 NAtFMM=   80 NAOKFM=F Big=F
 One-electron integrals computed using PRISM.
   1 Symmetry operations used in ECPInt.
 ECPInt:  NShTT=     378 NPrTT=    1779 LenC2=     378 LenP2D=    1486.
 LDataN:  DoStor=T MaxTD1= 4 Len=   56
 NBasis=    74 RedAO= T  NBF=    74
 NBsUse=    74 1.00D-06 NBFU=    74
 Initial guess read from the read-write file.
 B after Tr=     0.000000    0.000000    0.000000
         Rot=    1.000000    0.000000    0.000000    0.000000 Ang=   0.00 deg.
 Initial guess orbital symmetries:
       Occupied  (A) (A) (A) (A) (A) (A) (A) (A) (A) (A) (A) (A)
                 (A) (A) (A) (A)
       Virtual   (A) (A) (A) (A) (A) (A) (A) (A) (A) (A) (A) (A)
                 (A) (A) (A) (A) (A) (A) (A) (A) (A) (A) (A) (A)
                 (A) (A) (A) (A) (A) (A) (A) (A) (A) (A) (A) (A)
                 (A) (A) (A) (A) (A) (A) (A) (A) (A) (A) (A) (A)
                 (A) (A) (A) (A) (A) (A) (A) (A) (A) (A)
 Requested convergence on RMS density matrix=1.00D-08 within 128 cycles.
 Requested convergence on MAX density matrix=1.00D-06.
 Requested convergence on             energy=1.00D-06.
 No special actions if energy rises.
 Keep R1 ints in memory in canonical form, NReq=5737371.
 SCF Done:  E(RB3LYP) =  -252.559662206     A.U. after    9 cycles
             Convg  =    0.2395D-08             -V/T =  2.0102
   1 Symmetry operations used in ECPInt.
 ECPInt:  NShTT=     378 NPrTT=    1779 LenC2=     378 LenP2D=    1486.
 LDataN:  DoStor=T MaxTD1= 5 Len=  102
 Calling FoFJK, ICntrl=      2127 FMM=F ISym2X=0 I1Cent= 0 IOpClX= 0 NMat=1 NMatS=1 NMatT=0.
 ***** Axes restored to original set *****
 -------------------------------------------------------------------
 Center     Atomic                   Forces (Hartrees/Bohr)
 Number     Number              X              Y              Z
 -------------------------------------------------------------------
      1        6           0.000138979    0.000073105    0.000005873
      2        1          -0.000015002   -0.000043835    0.000010026
      3        1           0.000031421   -0.000031287    0.000000431
      4        1          -0.000012435   -0.000043456   -0.000010226
      5        6          -0.000217299    0.000166015   -0.000017213
      6        8          -0.000006393   -0.000112996    0.000006036
      7        9           0.000080728   -0.000007545    0.000005073
 -------------------------------------------------------------------
 Cartesian Forces:  Max     0.000217299 RMS     0.000077329

 GradGradGradGradGradGradGradGradGradGradGradGradGradGradGradGradGradGrad
 Berny optimization.
 Using GEDIIS/GDIIS optimizer.
 Internal  Forces:  Max     0.000141399 RMS     0.000051563
 Search for a local minimum.
 Step number   4 out of a maximum of   31
 All quantities printed in internal units (Hartrees-Bohrs-Radians)
 Mixed Optimization -- En-DIIS/RFO-DIIS
 Swaping is turned off.
 Update second derivatives using D2CorX and points    1    2    3    4
 DE= -1.01D-05 DEPred=-9.58D-06 R= 1.06D+00
 SS=  1.41D+00  RLast= 1.09D-02 DXNew= 8.2938D-01 3.2649D-02
 Trust test= 1.06D+00 RLast= 1.09D-02 DXMaxT set to 4.93D-01
     Eigenvalues ---    0.01013   0.01013   0.07512   0.07622   0.13326
     Eigenvalues ---    0.16000   0.16138   0.25208   0.28425   0.32128
     Eigenvalues ---    0.33251   0.33373   0.33535   0.55394   1.08350
     Eigenvalues --- 1000.000001000.000001000.000001000.000001000.00000
     Eigenvalues --- 1000.00000
 En-DIIS/RFO-DIIS IScMMF=        0 using points:     4    3
 RFO step:  Lambda=-9.49057853D-08.
 DIIS coeffs:      1.00322     -0.00322
 Iteration  1 RMS(Cart)=  0.00020294 RMS(Int)=  0.00000007
 Iteration  2 RMS(Cart)=  0.00000005 RMS(Int)=  0.00000003
 Variable       Old X    -DE/DX   Delta X   Delta X   Delta X     New X
                                  (DIIS)     (GDIIS)  (Total)
    R1        2.07071  -0.00003   0.00000  -0.00010  -0.00010   2.07061
    R2        2.06041   0.00004   0.00000   0.00010   0.00010   2.06050
    R3        2.07071  -0.00003   0.00000  -0.00010  -0.00010   2.07061
    R4        2.83409   0.00014   0.00001   0.00048   0.00049   2.83458
    R5        2.25623   0.00010   0.00000   0.00007   0.00007   2.25630
    R6        2.57008  -0.00005   0.00000  -0.00010  -0.00010   2.56998
    A1        1.91995  -0.00002   0.00002  -0.00008  -0.00007   1.91988
    A2        1.87012   0.00003   0.00000   0.00023   0.00023   1.87035
    A3        1.91677  -0.00002  -0.00001  -0.00014  -0.00015   1.91662
    A4        1.91994  -0.00002   0.00002  -0.00008  -0.00007   1.91988
    A5        1.91974   0.00004  -0.00002   0.00018   0.00016   1.91990
    A6        1.91675  -0.00001  -0.00001  -0.00011  -0.00012   1.91664
    A7        2.23460  -0.00006   0.00000  -0.00022  -0.00021   2.23439
    A8        1.94360  -0.00004   0.00000  -0.00015  -0.00015   1.94346
    A9        2.10498   0.00010   0.00000   0.00037   0.00036   2.10534
    D1        2.11543   0.00000   0.00000   0.00029   0.00029   2.11572
    D2       -1.02604  -0.00001   0.00000  -0.00047  -0.00047  -1.02650
    D3       -0.00002   0.00000   0.00000   0.00036   0.00036   0.00034
    D4       -3.14148   0.00000   0.00000  -0.00040  -0.00040   3.14131
    D5       -2.11545   0.00001   0.00000   0.00042   0.00041  -2.11504
    D6        1.02627   0.00000   0.00000  -0.00034  -0.00034   1.02593
         Item               Value     Threshold  Converged?
 Maximum Force            0.000141     0.000450     YES
 RMS     Force            0.000052     0.000300     YES
 Maximum Displacement     0.000411     0.001800     YES
 RMS     Displacement     0.000203     0.001200     YES
 Predicted change in Energy=-8.889445D-08
 Optimization completed.
    -- Stationary point found.
                           ----------------------------
                           !   Optimized Parameters   !
                           ! (Angstroms and Degrees)  !
 --------------------------                            --------------------------
 ! Name  Definition              Value          Derivative Info.                !
 --------------------------------------------------------------------------------
 ! R1    R(1,2)                  1.0958         -DE/DX =    0.0                 !
 ! R2    R(1,3)                  1.0903         -DE/DX =    0.0                 !
 ! R3    R(1,4)                  1.0958         -DE/DX =    0.0                 !
 ! R4    R(1,5)                  1.4997         -DE/DX =    0.0001              !
 ! R5    R(5,6)                  1.1939         -DE/DX =    0.0001              !
 ! R6    R(5,7)                  1.36           -DE/DX =    0.0                 !
 ! A1    A(2,1,3)              110.005          -DE/DX =    0.0                 !
 ! A2    A(2,1,4)              107.1498         -DE/DX =    0.0                 !
 ! A3    A(2,1,5)              109.8226         -DE/DX =    0.0                 !
 ! A4    A(3,1,4)              110.0047         -DE/DX =    0.0                 !
 ! A5    A(3,1,5)              109.9931         -DE/DX =    0.0                 !
 ! A6    A(4,1,5)              109.8218         -DE/DX =    0.0                 !
 ! A7    A(1,5,6)              128.0331         -DE/DX =   -0.0001              !
 ! A8    A(1,5,7)              111.3603         -DE/DX =    0.0                 !
 ! A9    A(6,5,7)              120.6065         -DE/DX =    0.0001              !
 ! D1    D(2,1,5,6)            121.2053         -DE/DX =    0.0                 !
 ! D2    D(2,1,5,7)            -58.7875         -DE/DX =    0.0                 !
 ! D3    D(3,1,5,6)             -0.001          -DE/DX =    0.0                 !
 ! D4    D(3,1,5,7)            180.0062         -DE/DX =    0.0                 !
 ! D5    D(4,1,5,6)           -121.2064         -DE/DX =    0.0                 !
 ! D6    D(4,1,5,7)             58.8008         -DE/DX =    0.0                 !
 --------------------------------------------------------------------------------
 GradGradGradGradGradGradGradGradGradGradGradGradGradGradGradGradGradGrad

                          Input orientation:                          
 ---------------------------------------------------------------------
 Center     Atomic      Atomic             Coordinates (Angstroms)
 Number     Number       Type             X           Y           Z
 ---------------------------------------------------------------------
      1          6           0        1.390658   -0.040604    0.000005
      2          1           0        1.730242    0.514435   -0.881657
      3          1           0        1.822928   -1.041574   -0.000067
      4          1           0        1.730271    0.514316    0.881731
      5          6           0       -0.106492   -0.128607    0.000035
      6          8           0       -0.785651   -1.110567   -0.000026
      7          9           0       -0.675328    1.106747   -0.000013
 ---------------------------------------------------------------------
                    Distance matrix (angstroms):
                    1          2          3          4          5
     1  C    0.000000
     2  H    1.095771   0.000000
     3  H    1.090319   1.790797   0.000000
     4  H    1.095771   1.763388   1.790795   0.000000
     5  C    1.499735   2.136463   2.134518   2.136454   0.000000
     6  O    2.425107   3.122118   2.609491   3.122115   1.193944
     7  F    2.363200   2.629619   3.294930   2.629706   1.360027
                    6          7
     6  O    0.000000
     7  F    2.220057   0.000000
 Stoichiometry    C2H3FO
 Framework group  C1[X(C2H3FO)]
 Deg. of freedom    15
 Full point group                 C1      NOp   1
 Largest Abelian subgroup         C1      NOp   1
 Largest concise Abelian subgroup C1      NOp   1
                         Standard orientation:                         
 ---------------------------------------------------------------------
 Center     Atomic      Atomic             Coordinates (Angstroms)
 Number     Number       Type             X           Y           Z
 ---------------------------------------------------------------------
      1          6           0       -1.371628    0.019338    0.000007
      2          1           0       -1.701950   -0.541263   -0.881655
      3          1           0       -1.820456    1.012993   -0.000065
      4          1           0       -1.701981   -0.541144    0.881733
      5          6           0        0.123855    0.132185    0.000037
      6          8           0        0.786617    1.125285   -0.000023
      7          9           0        0.713121   -1.093556   -0.000010
 ---------------------------------------------------------------------
 Rotational constants (GHZ):     10.9184283      9.6115944      5.2790435

 **********************************************************************

            Population analysis using the SCF density.

 **********************************************************************

 Orbital symmetries:
       Occupied  (A) (A) (A) (A) (A) (A) (A) (A) (A) (A) (A) (A)
                 (A) (A) (A) (A)
       Virtual   (A) (A) (A) (A) (A) (A) (A) (A) (A) (A) (A) (A)
                 (A) (A) (A) (A) (A) (A) (A) (A) (A) (A) (A) (A)
                 (A) (A) (A) (A) (A) (A) (A) (A) (A) (A) (A) (A)
                 (A) (A) (A) (A) (A) (A) (A) (A) (A) (A) (A) (A)
                 (A) (A) (A) (A) (A) (A) (A) (A) (A) (A)
 The electronic state is 1-A.
 Alpha  occ. eigenvalues --  -24.59711 -19.17647 -10.36495 -10.21830  -1.25645
 Alpha  occ. eigenvalues --   -1.08117  -0.78348  -0.61863  -0.52443  -0.51132
 Alpha  occ. eigenvalues --   -0.49975  -0.44149  -0.43461  -0.40017  -0.37665
 Alpha  occ. eigenvalues --   -0.31638
 Alpha virt. eigenvalues --   -0.02594  -0.00135   0.03834   0.04559   0.04876
 Alpha virt. eigenvalues --    0.07804   0.08316   0.08822   0.12987   0.15638
 Alpha virt. eigenvalues --    0.16089   0.20089   0.22427   0.25135   0.25524
 Alpha virt. eigenvalues --    0.27682   0.29482   0.32045   0.48500   0.61688
 Alpha virt. eigenvalues --    0.61775   0.65480   0.66916   0.67726   0.74216
 Alpha virt. eigenvalues --    0.89412   0.94261   1.01023   1.06958   1.18040
 Alpha virt. eigenvalues --    1.20303   1.24764   1.29397   1.36402   1.43563
 Alpha virt. eigenvalues --    1.56754   1.66938   1.69435   1.77035   1.77784
 Alpha virt. eigenvalues --    1.85663   1.93375   2.00195   2.04370   2.05705
 Alpha virt. eigenvalues --    2.12253   2.18177   2.19852   2.22062   2.25479
 Alpha virt. eigenvalues --    2.32061   2.42242   2.55663   2.74148   2.81490
 Alpha virt. eigenvalues --    3.07105   3.12760   3.45929
          Condensed to atoms (all electrons):
              1          2          3          4          5          6
     1  C    5.952728   0.396041   0.341690   0.396048  -0.121312  -0.097701
     2  H    0.396041   0.473877  -0.025473  -0.023107  -0.060265   0.001816
     3  H    0.341690  -0.025473   0.466859  -0.025473   0.000416  -0.001100
     4  H    0.396048  -0.023107  -0.025473   0.473881  -0.060275   0.001818
     5  C   -0.121312  -0.060265   0.000416  -0.060275   4.885810   0.354903
     6  O   -0.097701   0.001816  -0.001100   0.001818   0.354903   8.167985
     7  F   -0.138215  -0.001782   0.001521  -0.001781   0.474553  -0.061269
              7
     1  C   -0.138215
     2  H   -0.001782
     3  H    0.001521
     4  H   -0.001781
     5  C    0.474553
     6  O   -0.061269
     7  F    8.876754
 Mulliken atomic charges:
              1
     1  C   -0.729280
     2  H    0.238892
     3  H    0.241560
     4  H    0.238888
     5  C    0.526171
     6  O   -0.366451
     7  F   -0.149780
 Sum of Mulliken atomic charges =   0.00000
 Mulliken charges with hydrogens summed into heavy atoms:
              1
     1  C   -0.009940
     5  C    0.526171
     6  O   -0.366451
     7  F   -0.149780
 Sum of Mulliken charges with hydrogens summed into heavy atoms =   0.00000
 Electronic spatial extent (au):  <R**2>=            245.5902
 Charge=              0.0000 electrons
 Dipole moment (field-independent basis, Debye):
    X=             -2.8666    Y=             -1.1677    Z=              0.0001  Tot=              3.0953
 Quadrupole moment (field-independent basis, Debye-Ang):
   XX=            -22.7527   YY=            -25.6999   ZZ=            -21.6304
   XY=             -1.2413   XZ=              0.0001   YZ=              0.0001
 Traceless Quadrupole moment (field-independent basis, Debye-Ang):
   XX=              0.6083   YY=             -2.3389   ZZ=              1.7306
   XY=             -1.2413   XZ=              0.0001   YZ=              0.0001
 Octapole moment (field-independent basis, Debye-Ang**2):
  XXX=              2.7226  YYY=             -7.2793  ZZZ=              0.0000  XYY=             -1.0691
  XXY=             -2.7916  XXZ=             -0.0001  XZZ=              1.5198  YZZ=             -2.4388
  YYZ=             -0.0002  XYZ=              0.0000
 Hexadecapole moment (field-independent basis, Debye-Ang**3):
 XXXX=           -157.8370 YYYY=           -109.6211 ZZZZ=            -27.3671 XXXY=             -5.9119
 XXXZ=              0.0006 YYYX=             -7.3191 YYYZ=              0.0003 ZZZX=              0.0003
 ZZZY=              0.0002 XXYY=            -43.0770 XXZZ=            -29.4087 YYZZ=            -21.9880
 XXYZ=              0.0001 YYXZ=              0.0005 ZZXY=              0.1525
 N-N= 1.181757759860D+02 E-N=-8.303261608552D+02  KE= 2.500094353088D+02
 1|1|UNPC-WST-PGHS-014|FOpt|RB3LYP|Gen|C2H3F1O1|214584429|25-Feb-2015|0
 ||# opt freq b3lyp/gen geom=connectivity gfinput pseudo=read||FAc-6-31
 +g(d)/MIDIX||0,1|C,1.3906584369,-0.0406040511,0.000004555|H,1.73024166
 01,0.5144353388,-0.8816573126|H,1.8229275083,-1.0415735971,-0.00006728
 05|H,1.730270986,0.5143160781,0.8817308114|C,-0.1064922405,-0.12860718
 13,0.0000347465|O,-0.785650823,-1.1105669416,-0.0000258565|F,-0.675327
 5278,1.1067473542,-0.0000129133||Version=IA32W-G09RevA.02|State=1-A|HF
 =-252.5596622|RMSD=2.395e-009|RMSF=7.733e-005|Dipole=1.1352803,0.44063
 68,0.0000457|Quadrupole=0.4210165,-1.7076898,1.2866733,-0.9587043,-0.0
 000547,-0.0000432|PG=C01 [X(C2H3F1O1)]||@


 THERE ARE PEOPLE SO ADDICTED TO EXAGERATING THEY
 CAN'T TELL THE TRUTH WITHOUT LYING. -- FORTUNE COOKIE
 Job cpu time:  0 days  0 hours  0 minutes 51.0 seconds.
 File lengths (MBytes):  RWF=      5 Int=      0 D2E=      0 Chk=      1 Scr=      1
 Normal termination of Gaussian 09 at Wed Feb 25 12:13:45 2015.
 Link1:  Proceeding to internal job step number  2.
 ------------------------------------------------------------------
 #N Geom=AllCheck Guess=TCheck SCRF=Check GenChk RB3LYP/ChkBas Freq
 ------------------------------------------------------------------
 1/10=4,29=7,30=1,38=1,40=1/1,3;
 2/12=2,40=1/2;
 3/5=7,6=2,11=2,14=-4,16=1,17=8,24=10,25=1,30=1,67=1,70=2,71=2,74=-5,82=7,116=1/1,2,3;
 4/5=101/1;
 5/5=2,98=1/2;
 8/6=4,10=90,11=11/1;
 11/6=1,8=1,9=11,15=111,16=1/1,2,10;
 10/6=1/2;
 6/7=2,8=2,9=2,10=2,18=1,28=1/1;
 7/8=1,10=1,25=1/1,2,3,16;
 1/10=4,30=1/3;
 99//99;
 -------------------
 gen calculation FAc-C H O=6-31+g(d)/F=MIDIX
 -------------------
 Redundant internal coordinates taken from checkpoint file:
 C:\Users\214584429\Dropbox\Ester(COOH)\fc.chk
 Charge =  0 Multiplicity = 1
 C,0,1.3906584369,-0.0406040511,0.000004555
 H,0,1.7302416601,0.5144353388,-0.8816573126
 H,0,1.8229275083,-1.0415735971,-0.0000672805
 H,0,1.730270986,0.5143160781,0.8817308114
 C,0,-0.1064922405,-0.1286071813,0.0000347465
 O,0,-0.785650823,-1.1105669416,-0.0000258565
 F,0,-0.6753275278,1.1067473542,-0.0000129133
 Recover connectivity data from disk.

 GradGradGradGradGradGradGradGradGradGradGradGradGradGradGradGradGradGrad
 Berny optimization.
 Initialization pass.
                           ----------------------------
                           !    Initial Parameters    !
                           ! (Angstroms and Degrees)  !
 --------------------------                            --------------------------
 ! Name  Definition              Value          Derivative Info.                !
 --------------------------------------------------------------------------------
 ! R1    R(1,2)                  1.0958         calculate D2E/DX2 analytically  !
 ! R2    R(1,3)                  1.0903         calculate D2E/DX2 analytically  !
 ! R3    R(1,4)                  1.0958         calculate D2E/DX2 analytically  !
 ! R4    R(1,5)                  1.4997         calculate D2E/DX2 analytically  !
 ! R5    R(5,6)                  1.1939         calculate D2E/DX2 analytically  !
 ! R6    R(5,7)                  1.36           calculate D2E/DX2 analytically  !
 ! A1    A(2,1,3)              110.005          calculate D2E/DX2 analytically  !
 ! A2    A(2,1,4)              107.1498         calculate D2E/DX2 analytically  !
 ! A3    A(2,1,5)              109.8226         calculate D2E/DX2 analytically  !
 ! A4    A(3,1,4)              110.0047         calculate D2E/DX2 analytically  !
 ! A5    A(3,1,5)              109.9931         calculate D2E/DX2 analytically  !
 ! A6    A(4,1,5)              109.8218         calculate D2E/DX2 analytically  !
 ! A7    A(1,5,6)              128.0331         calculate D2E/DX2 analytically  !
 ! A8    A(1,5,7)              111.3603         calculate D2E/DX2 analytically  !
 ! A9    A(6,5,7)              120.6065         calculate D2E/DX2 analytically  !
 ! D1    D(2,1,5,6)            121.2053         calculate D2E/DX2 analytically  !
 ! D2    D(2,1,5,7)            -58.7875         calculate D2E/DX2 analytically  !
 ! D3    D(3,1,5,6)             -0.001          calculate D2E/DX2 analytically  !
 ! D4    D(3,1,5,7)           -179.9938         calculate D2E/DX2 analytically  !
 ! D5    D(4,1,5,6)           -121.2064         calculate D2E/DX2 analytically  !
 ! D6    D(4,1,5,7)             58.8008         calculate D2E/DX2 analytically  !
 --------------------------------------------------------------------------------
 Trust Radius=3.00D-01 FncErr=1.00D-07 GrdErr=1.00D-07
 Number of steps in this run=   2 maximum allowed number of steps=   2.
 GradGradGradGradGradGradGradGradGradGradGradGradGradGradGradGradGradGrad

                          Input orientation:                          
 ---------------------------------------------------------------------
 Center     Atomic      Atomic             Coordinates (Angstroms)
 Number     Number       Type             X           Y           Z
 ---------------------------------------------------------------------
      1          6           0        1.390658   -0.040604    0.000005
      2          1           0        1.730242    0.514435   -0.881657
      3          1           0        1.822928   -1.041574   -0.000067
      4          1           0        1.730271    0.514316    0.881731
      5          6           0       -0.106492   -0.128607    0.000035
      6          8           0       -0.785651   -1.110567   -0.000026
      7          9           0       -0.675328    1.106747   -0.000013
 ---------------------------------------------------------------------
                    Distance matrix (angstroms):
                    1          2          3          4          5
     1  C    0.000000
     2  H    1.095771   0.000000
     3  H    1.090319   1.790797   0.000000
     4  H    1.095771   1.763388   1.790795   0.000000
     5  C    1.499735   2.136463   2.134518   2.136454   0.000000
     6  O    2.425107   3.122118   2.609491   3.122115   1.193944
     7  F    2.363200   2.629619   3.294930   2.629706   1.360027
                    6          7
     6  O    0.000000
     7  F    2.220057   0.000000
 Stoichiometry    C2H3FO
 Framework group  C1[X(C2H3FO)]
 Deg. of freedom    15
 Full point group                 C1      NOp   1
 Largest Abelian subgroup         C1      NOp   1
 Largest concise Abelian subgroup C1      NOp   1
                         Standard orientation:                         
 ---------------------------------------------------------------------
 Center     Atomic      Atomic             Coordinates (Angstroms)
 Number     Number       Type             X           Y           Z
 ---------------------------------------------------------------------
      1          6           0       -1.371628    0.019338    0.000007
      2          1           0       -1.701950   -0.541263   -0.881655
      3          1           0       -1.820456    1.012993   -0.000065
      4          1           0       -1.701981   -0.541144    0.881733
      5          6           0        0.123855    0.132185    0.000037
      6          8           0        0.786617    1.125285   -0.000023
      7          9           0        0.713121   -1.093556   -0.000010
 ---------------------------------------------------------------------
 Rotational constants (GHZ):     10.9184283      9.6115944      5.2790435
 Basis read from chk: C:\Users\214584429\Dropbox\Ester(COOH)\fc.chk (5D, 7F)
 AO basis set in the form of general basis input (Overlap normalization):
      1 0
 S   6 1.00       0.000000000000
      0.3047524880D+04  0.1834737132D-02
      0.4573695180D+03  0.1403732281D-01
      0.1039486850D+03  0.6884262226D-01
      0.2921015530D+02  0.2321844432D+00
      0.9286662960D+01  0.4679413484D+00
      0.3163926960D+01  0.3623119853D+00
 SP   3 1.00       0.000000000000
      0.7868272350D+01 -0.1193324198D+00  0.6899906659D-01
      0.1881288540D+01 -0.1608541517D+00  0.3164239610D+00
      0.5442492580D+00  0.1143456438D+01  0.7443082909D+00
 SP   1 1.00       0.000000000000
      0.1687144782D+00  0.1000000000D+01  0.1000000000D+01
 SP   1 1.00       0.000000000000
      0.4380000000D-01  0.1000000000D+01  0.1000000000D+01
 D   1 1.00       0.000000000000
      0.8000000000D+00  0.1000000000D+01
 ****
      2 0
 S   3 1.00       0.000000000000
      0.1873113696D+02  0.3349460434D-01
      0.2825394365D+01  0.2347269535D+00
      0.6401216923D+00  0.8137573261D+00
 S   1 1.00       0.000000000000
      0.1612777588D+00  0.1000000000D+01
 ****
      3 0
 S   3 1.00       0.000000000000
      0.1873113696D+02  0.3349460434D-01
      0.2825394365D+01  0.2347269535D+00
      0.6401216923D+00  0.8137573261D+00
 S   1 1.00       0.000000000000
      0.1612777588D+00  0.1000000000D+01
 ****
      4 0
 S   3 1.00       0.000000000000
      0.1873113696D+02  0.3349460434D-01
      0.2825394365D+01  0.2347269535D+00
      0.6401216923D+00  0.8137573261D+00
 S   1 1.00       0.000000000000
      0.1612777588D+00  0.1000000000D+01
 ****
      5 0
 S   6 1.00       0.000000000000
      0.3047524880D+04  0.1834737132D-02
      0.4573695180D+03  0.1403732281D-01
      0.1039486850D+03  0.6884262226D-01
      0.2921015530D+02  0.2321844432D+00
      0.9286662960D+01  0.4679413484D+00
      0.3163926960D+01  0.3623119853D+00
 SP   3 1.00       0.000000000000
      0.7868272350D+01 -0.1193324198D+00  0.6899906659D-01
      0.1881288540D+01 -0.1608541517D+00  0.3164239610D+00
      0.5442492580D+00  0.1143456438D+01  0.7443082909D+00
 SP   1 1.00       0.000000000000
      0.1687144782D+00  0.1000000000D+01  0.1000000000D+01
 SP   1 1.00       0.000000000000
      0.4380000000D-01  0.1000000000D+01  0.1000000000D+01
 D   1 1.00       0.000000000000
      0.8000000000D+00  0.1000000000D+01
 ****
      6 0
 S   6 1.00       0.000000000000
      0.5484671660D+04  0.1831074430D-02
      0.8252349460D+03  0.1395017220D-01
      0.1880469580D+03  0.6844507810D-01
      0.5296450000D+02  0.2327143360D+00
      0.1689757040D+02  0.4701928980D+00
      0.5799635340D+01  0.3585208530D+00
 SP   3 1.00       0.000000000000
      0.1553961625D+02 -0.1107775495D+00  0.7087426823D-01
      0.3599933586D+01 -0.1480262627D+00  0.3397528391D+00
      0.1013761750D+01  0.1130767015D+01  0.7271585773D+00
 SP   1 1.00       0.000000000000
      0.2700058226D+00  0.1000000000D+01  0.1000000000D+01
 SP   1 1.00       0.000000000000
      0.8450000000D-01  0.1000000000D+01  0.1000000000D+01
 D   1 1.00       0.000000000000
      0.8000000000D+00  0.1000000000D+01
 ****
      7 0
 S   3 1.00       0.000000000000
      0.3683711200D+03  0.6704002682D-01
      0.5506106000D+02  0.3892491557D+00
      0.1174767000D+02  0.6707882684D+00
 S   2 1.00       0.000000000000
      0.1515184000D+02 -0.1430237380D+00
      0.1151370000D+01  0.1043565469D+01
 S   1 1.00       0.000000000000
      0.3581100000D+00  0.1000000000D+01
 P   2 1.00       0.000000000000
      0.1057707000D+02  0.2289901111D+00
      0.2194980000D+01  0.8667566772D+00
 P   1 1.00       0.000000000000
      0.4793700000D+00  0.1000000000D+01
 D   1 1.00       0.000000000000
      0.1000000000D+01  0.1000000000D+01
 ****

 Pseudo-potential data read from chk file.
 There are    74 symmetry adapted basis functions of A   symmetry.
 Integral buffers will be    262144 words long.
 Raffenetti 2 integral format.
 Two-electron integral symmetry is turned on.
    74 basis functions,   129 primitive gaussians,    78 cartesian basis functions
    16 alpha electrons       16 beta electrons
       nuclear repulsion energy       118.1757759860 Hartrees.
 NAtoms=    7 NActive=    7 NUniq=    7 SFac= 7.50D-01 NAtFMM=   80 NAOKFM=F Big=F
 One-electron integrals computed using PRISM.
   1 Symmetry operations used in ECPInt.
 ECPInt:  NShTT=     378 NPrTT=    1779 LenC2=     378 LenP2D=    1486.
 LDataN:  DoStor=T MaxTD1= 4 Len=   56
 NBasis=    74 RedAO= T  NBF=    74
 NBsUse=    74 1.00D-06 NBFU=    74
 Initial guess read from the checkpoint file:  C:\Users\214584429\Dropbox\Ester(C
 OOH)\fc.chk
 B after Tr=     0.000000    0.000000    0.000000
         Rot=    1.000000    0.000000    0.000000    0.000000 Ang=   0.00 deg.
 Initial guess orbital symmetries:
       Occupied  (A) (A) (A) (A) (A) (A) (A) (A) (A) (A) (A) (A)
                 (A) (A) (A) (A)
       Virtual   (A) (A) (A) (A) (A) (A) (A) (A) (A) (A) (A) (A)
                 (A) (A) (A) (A) (A) (A) (A) (A) (A) (A) (A) (A)
                 (A) (A) (A) (A) (A) (A) (A) (A) (A) (A) (A) (A)
                 (A) (A) (A) (A) (A) (A) (A) (A) (A) (A) (A) (A)
                 (A) (A) (A) (A) (A) (A) (A) (A) (A) (A)
 Requested convergence on RMS density matrix=1.00D-08 within 128 cycles.
 Requested convergence on MAX density matrix=1.00D-06.
 Requested convergence on             energy=1.00D-06.
 No special actions if energy rises.
 Keep R1 ints in memory in canonical form, NReq=5737371.
 SCF Done:  E(RB3LYP) =  -252.559662206     A.U. after    1 cycles
             Convg  =    0.4090D-09             -V/T =  2.0102
 Range of M.O.s used for correlation:     1    74
 NBasis=    74 NAE=    16 NBE=    16 NFC=     0 NFV=     0
 NROrb=     74 NOA=    16 NOB=    16 NVA=    58 NVB=    58

 **** Warning!!: The largest alpha MO coefficient is  0.26500281D+02

   1 Symmetry operations used in ECPInt.
 ECPInt:  NShTT=     378 NPrTT=    1779 LenC2=     378 LenP2D=    1486.
 LDataN:  DoStor=T MaxTD1= 5 Len=  102
 Symmetrizing basis deriv contribution to polar:
 IMax=3 JMax=2 DiffMx= 0.00D+00
 G2DrvN: will do     8 centers at a time, making    1 passes doing MaxLOS=2.
 Calling FoFCou, ICntrl=  3107 FMM=F I1Cent=   0 AccDes= 0.00D+00.
 FoFDir/FoFCou used for L=0 through L=2.
 End of G2Drv Frequency-dependent properties file   721 does not exist.
 End of G2Drv Frequency-dependent properties file   722 does not exist.
          IDoAtm=1111111
          Differentiating once with respect to electric field.
                with respect to dipole field.
          Differentiating once with respect to nuclear coordinates.
          Keep R1 ints in memory in canonical form, NReq=5569300.
          There are    24 degrees of freedom in the 1st order CPHF.  IDoFFX=5.
     21 vectors produced by pass  0 Test12= 3.87D-15 4.17D-09 XBig12= 2.32D+01 3.15D+00.
 AX will form    21 AO Fock derivatives at one time.
     21 vectors produced by pass  1 Test12= 3.87D-15 4.17D-09 XBig12= 8.73D+00 8.52D-01.
     21 vectors produced by pass  2 Test12= 3.87D-15 4.17D-09 XBig12= 4.53D-02 4.70D-02.
     21 vectors produced by pass  3 Test12= 3.87D-15 4.17D-09 XBig12= 1.39D-04 2.94D-03.
     21 vectors produced by pass  4 Test12= 3.87D-15 4.17D-09 XBig12= 1.83D-07 9.00D-05.
     16 vectors produced by pass  5 Test12= 3.87D-15 4.17D-09 XBig12= 1.83D-10 3.69D-06.
      3 vectors produced by pass  6 Test12= 3.87D-15 4.17D-09 XBig12= 1.32D-13 5.99D-08.
      1 vectors produced by pass  7 Test12= 3.87D-15 4.17D-09 XBig12= 6.86D-16 1.21D-08.
 Inverted reduced A of dimension   125 with in-core refinement.
 Isotropic polarizability for W=    0.000000       26.76 Bohr**3.
[...]
 IR Inten    --     0.0236                 0.3105                 5.7550
  Atom  AN      X      Y      Z        X      Y      Z        X      Y      Z
     1   6     0.00   0.00   0.00    -0.07   0.20   0.00     0.00   0.00  -0.01
     2   1     0.01   0.50  -0.33    -0.34   0.38  -0.01    -0.56   0.04   0.19
     3   1     0.00   0.00   0.53     0.40   0.42   0.00     0.00   0.00   0.39
     4   1    -0.01  -0.50  -0.33    -0.34   0.38   0.01     0.56  -0.04   0.19
     5   6     0.00   0.00   0.02    -0.03  -0.15   0.00     0.00   0.00  -0.35
     6   8     0.00   0.00  -0.05    -0.17  -0.06   0.00     0.00   0.00   0.12
     7   9     0.00   0.00   0.04     0.22  -0.04   0.00     0.00   0.00   0.09
                     4                      5                      6
                     A                      A                      A
 Frequencies --   601.4536               856.4531              1026.2497
 Red. masses --     7.8550                 6.3147                 1.7321
 Frc consts  --     1.6742                 2.7290                 1.0748
 IR Inten    --    19.1304                32.8219                32.8050
  Atom  AN      X      Y      Z        X      Y      Z        X      Y      Z
     1   6     0.39   0.06   0.00    -0.36   0.03   0.00     0.06   0.17   0.00
     2   1     0.33   0.09   0.00    -0.23  -0.08   0.01     0.49  -0.20   0.07
     3   1     0.52   0.12   0.00    -0.70  -0.12   0.00    -0.60  -0.14   0.00
     4   1     0.33   0.09   0.00    -0.23  -0.08  -0.01     0.49  -0.20  -0.07
     5   6     0.18  -0.02   0.00     0.09   0.19   0.00    -0.12   0.04   0.00
     6   8    -0.31   0.30   0.00     0.12   0.25   0.00    -0.04  -0.08   0.00
     7   9    -0.16  -0.29   0.00     0.13  -0.33   0.00     0.06  -0.04   0.00
                     7                      8                      9
                     A                      A                      A
 Frequencies --  1077.2868              1243.7648              1429.9855
 Red. masses --     1.7318                 3.6582                 1.3110
 Frc consts  --     1.1842                 3.3342                 1.5795
 IR Inten    --     8.9455               195.1770                39.7004
  Atom  AN      X      Y      Z        X      Y      Z        X      Y      Z
     1   6     0.00   0.00   0.17    -0.09   0.13   0.00     0.15   0.01   0.00
     2   1     0.60   0.12  -0.16    -0.03  -0.21   0.17    -0.56   0.00   0.26
     3   1     0.00   0.00  -0.37    -0.77  -0.18   0.00    -0.40  -0.24   0.00
     4   1    -0.60  -0.12  -0.16    -0.03  -0.21  -0.17    -0.56   0.00  -0.26
     5   6     0.00   0.00  -0.19     0.34  -0.27   0.00    -0.04   0.04   0.00
     6   8     0.00   0.00   0.04    -0.05   0.02   0.00     0.00  -0.01   0.00
     7   9     0.00   0.00   0.02    -0.07   0.10   0.00     0.01  -0.01   0.00
                    10                     11                     12
                     A                      A                      A
 Frequencies --  1493.1209              1499.5028              1903.0393
 Red. masses --     1.0489                 1.0445                12.0558
 Frc consts  --     1.3777                 1.3837                25.7241
 IR Inten    --    16.3479                10.2109               312.2084
  Atom  AN      X      Y      Z        X      Y      Z        X      Y      Z
     1   6     0.02  -0.05   0.00     0.00   0.00  -0.05    -0.07  -0.03   0.00
     2   1     0.06   0.51  -0.36     0.35  -0.34   0.05    -0.12  -0.07   0.06
     3   1    -0.41  -0.23   0.00     0.00   0.00   0.72     0.18   0.11   0.00
     4   1     0.06   0.51   0.36    -0.35   0.34   0.05    -0.12  -0.07  -0.06
     5   6     0.02   0.00   0.00     0.00   0.00  -0.02     0.49   0.62   0.00
     6   8    -0.01  -0.01   0.00     0.00   0.00   0.00    -0.30  -0.43   0.00
     7   9     0.00   0.00   0.00     0.00   0.00   0.00    -0.01  -0.01   0.00
                    13                     14                     15
                     A                      A                      A
 Frequencies --  3068.4404              3126.9803              3184.6555
 Red. masses --     1.0381                 1.0999                 1.1027
 Frc consts  --     5.7587                 6.3365                 6.5893
 IR Inten    --     1.1463                 2.4417                 3.4241
  Atom  AN      X      Y      Z        X      Y      Z        X      Y      Z
     1   6    -0.05  -0.02   0.00     0.00   0.00   0.09     0.02  -0.09   0.00
     2   1     0.19   0.33   0.53    -0.22  -0.37  -0.56     0.08   0.12   0.22
     3   1     0.15  -0.36   0.00     0.00   0.00   0.02    -0.38   0.84   0.00
     4   1     0.19   0.33  -0.53     0.22   0.37  -0.56     0.08   0.12  -0.22
     5   6     0.00   0.00   0.00     0.00   0.00   0.00     0.00   0.00   0.00
     6   8     0.00   0.00   0.00     0.00   0.00   0.00     0.00   0.00   0.00
     7   9     0.00   0.00   0.00     0.00   0.00   0.00     0.00   0.00   0.00

 -------------------
 - Thermochemistry -
 -------------------
 Temperature   298.150 Kelvin.  Pressure   1.00000 Atm.
 Atom     1 has atomic number  6 and mass  12.00000
 Atom     2 has atomic number  1 and mass   1.00783
 Atom     3 has atomic number  1 and mass   1.00783
 Atom     4 has atomic number  1 and mass   1.00783
 Atom     5 has atomic number  6 and mass  12.00000
 Atom     6 has atomic number  8 and mass  15.99491
 Atom     7 has atomic number  9 and mass  18.99840
 Molecular mass:    62.01679 amu.
 Principal axes and moments of inertia in atomic units:
                           1         2         3
     Eigenvalues --   165.29313 187.76710 341.86898
           X            0.99401   0.10926   0.00001
           Y           -0.10926   0.99401   0.00000
           Z           -0.00001   0.00000   1.00000
 This molecule is an asymmetric top.
 Rotational symmetry number  1.
 Rotational temperatures (Kelvin)      0.52400     0.46128     0.25335
 Rotational constants (GHZ):          10.91843     9.61159     5.27904
 Zero-point vibrational energy     129397.1 (Joules/Mol)
                                   30.92666 (Kcal/Mol)
 Warning -- explicit consideration of   4 degrees of freedom as
           vibrations may cause significant error
 Vibrational temperatures:    206.86   589.83   818.45   865.36  1232.24
          (Kelvin)           1476.54  1549.97  1789.50  2057.43  2148.27
                             2157.45  2738.05  4414.80  4499.02  4582.00
 
 Zero-point correction=                           0.049285 (Hartree/Particle)
 Thermal correction to Energy=                    0.053564
 Thermal correction to Enthalpy=                  0.054508
 Thermal correction to Gibbs Free Energy=         0.022580
 Sum of electronic and zero-point Energies=           -252.510377
 Sum of electronic and thermal Energies=              -252.506098
 Sum of electronic and thermal Enthalpies=            -252.505154
 Sum of electronic and thermal Free Energies=         -252.537082
 
                     E (Thermal)             CV                S
                      KCal/Mol        Cal/Mol-Kelvin    Cal/Mol-Kelvin
 Total                   33.612             13.101             67.199
 Electronic               0.000              0.000              0.000
 Translational            0.889              2.981             38.294
 Rotational               0.889              2.981             23.877
 Vibrational             31.835              7.140              5.028
 Vibration     1          0.616              1.909              2.753
 Vibration     2          0.774              1.449              0.927
 Vibration     3          0.925              1.099              0.506
 Vibration     4          0.960              1.029              0.447
                       Q            Log10(Q)             Ln(Q)
 Total Bot       0.411149D-10        -10.386000        -23.914649
 Total V=0       0.192031D+13         12.283372         28.283509
 Vib (Bot)       0.580854D-22        -22.235933        -51.200127
 Vib (Bot)    1  0.141279D+01          0.150077          0.345566
 Vib (Bot)    2  0.431586D+00         -0.364933         -0.840289
 Vib (Bot)    3  0.270860D+00         -0.567255         -1.306153
 Vib (Bot)    4  0.247894D+00         -0.605735         -1.394756
 Vib (V=0)       0.271293D+01          0.433439          0.998030
 Vib (V=0)    1  0.199866D+01          0.300738          0.692475
 Vib (V=0)    2  0.116050D+01          0.064647          0.148855
 Vib (V=0)    3  0.106865D+01          0.028836          0.066398
 Vib (V=0)    4  0.105808D+01          0.024518          0.056454
 Electronic      0.100000D+01          0.000000          0.000000
 Translational   0.191964D+08          7.283219         16.770232
 Rotational      0.368734D+05          4.566713         10.515246
 ***** Axes restored to original set *****
 -------------------------------------------------------------------
 Center     Atomic                   Forces (Hartrees/Bohr)
 Number     Number              X              Y              Z
 -------------------------------------------------------------------
      1        6           0.000138981    0.000073105    0.000005874
      2        1          -0.000015002   -0.000043835    0.000010027
      3        1           0.000031421   -0.000031286    0.000000431
      4        1          -0.000012436   -0.000043456   -0.000010226
      5        6          -0.000217300    0.000166015   -0.000017213
      6        8          -0.000006392   -0.000112996    0.000006035
      7        9           0.000080728   -0.000007545    0.000005073
 -------------------------------------------------------------------
 Cartesian Forces:  Max     0.000217300 RMS     0.000077330

 GradGradGradGradGradGradGradGradGradGradGradGradGradGradGradGradGradGrad
 Berny optimization.
 Internal  Forces:  Max     0.000141399 RMS     0.000051563
 Search for a local minimum.
 Step number   1 out of a maximum of    2
 All quantities printed in internal units (Hartrees-Bohrs-Radians)
 Second derivative matrix not updated -- analytic derivatives used.
     Eigenvalues ---    0.00138   0.05169   0.05828   0.05877   0.12934
     Eigenvalues ---    0.13147   0.14508   0.19727   0.25051   0.33315
     Eigenvalues ---    0.34071   0.34654   0.35645   0.37193   0.95568
     Eigenvalues --- 1000.000001000.000001000.000001000.000001000.00000
     Eigenvalues --- 1000.00000
 Angle between quadratic step and forces=  30.26 degrees.
 Linear search not attempted -- first point.
 Iteration  1 RMS(Cart)=  0.00017357 RMS(Int)=  0.00000002
 Iteration  2 RMS(Cart)=  0.00000003 RMS(Int)=  0.00000000
 Variable       Old X    -DE/DX   Delta X   Delta X   Delta X     New X
                                 (Linear)    (Quad)   (Total)
    R1        2.07071  -0.00003   0.00000  -0.00010  -0.00010   2.07060
    R2        2.06041   0.00004   0.00000   0.00010   0.00010   2.06051
    R3        2.07071  -0.00003   0.00000  -0.00010  -0.00010   2.07060
    R4        2.83409   0.00014   0.00000   0.00056   0.00056   2.83465
    R5        2.25623   0.00010   0.00000   0.00010   0.00010   2.25633
    R6        2.57008  -0.00005   0.00000  -0.00027  -0.00027   2.56981
    A1        1.91995  -0.00002   0.00000  -0.00014  -0.00014   1.91981
    A2        1.87012   0.00003   0.00000   0.00036   0.00036   1.87047
    A3        1.91677  -0.00002   0.00000  -0.00012  -0.00012   1.91664
    A4        1.91994  -0.00002   0.00000  -0.00013  -0.00013   1.91981
    A5        1.91974   0.00004   0.00000   0.00015   0.00015   1.91989
    A6        1.91675  -0.00001   0.00000  -0.00011  -0.00011   1.91664
    A7        2.23460  -0.00006   0.00000  -0.00028  -0.00028   2.23431
    A8        1.94360  -0.00004   0.00000  -0.00015  -0.00015   1.94346
    A9        2.10498   0.00010   0.00000   0.00043   0.00043   2.10541
    D1        2.11543   0.00000   0.00000  -0.00014  -0.00014   2.11530
    D2       -1.02604  -0.00001   0.00000  -0.00026  -0.00026  -1.02630
    D3       -0.00002   0.00000   0.00000   0.00002   0.00002   0.00000
    D4       -3.14148   0.00000   0.00000  -0.00011  -0.00011  -3.14159
    D5       -2.11545   0.00001   0.00000   0.00016   0.00016  -2.11529
    D6        1.02627   0.00000   0.00000   0.00003   0.00003   1.02630
         Item               Value     Threshold  Converged?
 Maximum Force            0.000141     0.000450     YES
 RMS     Force            0.000052     0.000300     YES
 Maximum Displacement     0.000436     0.001800     YES
 RMS     Displacement     0.000174     0.001200     YES
 Predicted change in Energy=-1.047015D-07
 Optimization completed.
    -- Stationary point found.
                           ----------------------------
                           !   Optimized Parameters   !
                           ! (Angstroms and Degrees)  !
 --------------------------                            --------------------------
 ! Name  Definition              Value          Derivative Info.                !
 --------------------------------------------------------------------------------
 ! R1    R(1,2)                  1.0958         -DE/DX =    0.0                 !
 ! R2    R(1,3)                  1.0903         -DE/DX =    0.0                 !
 ! R3    R(1,4)                  1.0958         -DE/DX =    0.0                 !
 ! R4    R(1,5)                  1.4997         -DE/DX =    0.0001              !
 ! R5    R(5,6)                  1.1939         -DE/DX =    0.0001              !
 ! R6    R(5,7)                  1.36           -DE/DX =    0.0                 !
 ! A1    A(2,1,3)              110.005          -DE/DX =    0.0                 !
 ! A2    A(2,1,4)              107.1498         -DE/DX =    0.0                 !
 ! A3    A(2,1,5)              109.8226         -DE/DX =    0.0                 !
 ! A4    A(3,1,4)              110.0047         -DE/DX =    0.0                 !
 ! A5    A(3,1,5)              109.9931         -DE/DX =    0.0                 !
 ! A6    A(4,1,5)              109.8218         -DE/DX =    0.0                 !
 ! A7    A(1,5,6)              128.0331         -DE/DX =   -0.0001              !
 ! A8    A(1,5,7)              111.3603         -DE/DX =    0.0                 !
 ! A9    A(6,5,7)              120.6065         -DE/DX =    0.0001              !
 ! D1    D(2,1,5,6)            121.2053         -DE/DX =    0.0                 !
 ! D2    D(2,1,5,7)            -58.7875         -DE/DX =    0.0                 !
 ! D3    D(3,1,5,6)             -0.001          -DE/DX =    0.0                 !
 ! D4    D(3,1,5,7)           -179.9938         -DE/DX =    0.0                 !
 ! D5    D(4,1,5,6)           -121.2064         -DE/DX =    0.0                 !
 ! D6    D(4,1,5,7)             58.8008         -DE/DX =    0.0                 !
 --------------------------------------------------------------------------------
 GradGradGradGradGradGradGradGradGradGradGradGradGradGradGradGradGradGrad

 1|1|UNPC-WST-PGHS-014|Freq|RB3LYP|Gen|C2H3F1O1|214584429|25-Feb-2015|0
 ||#N Geom=AllCheck Guess=TCheck SCRF=Check GenChk RB3LYP/ChkBas Freq||
 gen calculation FAc-C H O=6-31+g(d)/F=MIDIX||0,1|C,1.3906584369,-0.0406040511,0.000004555|H,1.
 7302416601,0.5144353388,-0.8816573126|H,1.8229275083,-1.0415735971,-0.
 0000672805|H,1.730270986,0.5143160781,0.8817308114|C,-0.1064922405,-0.
 1286071813,0.0000347465|O,-0.785650823,-1.1105669416,-0.0000258565|F,-
 0.6753275278,1.1067473542,-0.0000129133||Version=IA32W-G09RevA.02|Stat
 e=1-A|HF=-252.5596622|RMSD=4.090e-010|RMSF=7.733e-005|ZeroPoint=0.0492
 848|Thermal=0.0535641|Dipole=1.1352803,0.4406368,0.0000457|DipoleDeriv
 =-0.2910045,-0.0489413,-0.0000069,-0.1138553,-0.0022346,0.0000066,0.00
 00164,0.0000074,0.0494564,0.0535831,-0.0099543,0.0043216,-0.0013254,0.
 0664544,0.0703287,0.0444312,0.0707963,0.006479,0.0382566,0.0190479,0.0
 000016,0.0607196,-0.028757,-0.0000074,0.00001,-0.0000061,0.0962169,0.0
 535905,-0.0099553,-0.0043245,-0.0013339,0.0664703,-0.0703246,-0.044434
 5,-0.0707906,0.0064543,1.4658939,0.0259097,0.0000027,0.0347576,1.80531
 47,-0.0000082,0.000016,-0.0000228,0.3181062,-0.8161841,-0.3501739,0.00
 00027,-0.216436,-0.9274564,0.0000089,-0.00002,-0.0000263,-0.3487116,-0
 .5041355,0.3740672,0.0000028,0.2374733,-0.9797914,-0.0000039,-0.000019
 1,0.000042,-0.1280013|Polar=29.7075707,3.2492873,29.9076173,0.0002698,
 0.0002613,20.6524951|PG=C01 [X(C2H3F1O1)]|NImag=0||0.49422690,-0.02272
 771,0.61941757,-0.00000015,0.00000023,0.53872942,-0.07348927,-0.037553
 91,0.06915865,0.07813280,-0.03817689,-0.11602278,0.11239590,0.04545755
 ,0.12147921,0.06812276,0.11076187,-0.21915973,-0.07326849,-0.12153035,
 0.23729145,-0.09222859,0.09565878,0.00000771,0.00465596,-0.01039192,-0
 .00170093,0.09972490,0.10395363,-0.28922640,-0.00001660,0.00537584,-0.
 01197945,-0.00135858,-0.10977821,0.30812592,0.00000831,-0.00001672,-0.
 04969292,-0.01219036,0.02370272,0.00162048,-0.00000808,0.00001833,0.04
 722657,-0.07349485,-0.03754890,-0.06916874,0.00385498,0.00631659,0.008
 65655,0.00465667,0.00537438,0.01219093,0.07813905,-0.03817093,-0.11599
 132,-0.11237883,0.00631848,0.00883444,0.01406296,-0.01039345,-0.011976
 72,-0.02370436,0.04545276,0.12144520,-0.06813213,-0.11074526,-0.219183
 27,-0.00865685,-0.01405923,-0.02137850,0.00169948,0.00135652,0.0016168
 9,0.07328081,0.12151206,0.23731757,-0.21005723,0.00232214,0.00000639,-
 0.00829767,-0.00303936,-0.00050028,-0.01100381,-0.00304470,-0.00000040
 ,-0.00829840,-0.00303999,0.00049919,0.74713610,0.00006893,-0.07936016,
 0.00000041,-0.02104276,-0.00374811,0.00071429,0.03397047,0.00126101,-0
 .00000040,-0.02103948,-0.00374742,-0.00071449,0.27320932,0.84187609,-0
 .00000154,0.00000027,-0.09364445,0.03293127,0.00028638,0.00241091,0.00
 000242,0.00000055,-0.00299960,-0.03293406,-0.00028703,0.00241224,0.000
 02556,0.00002393,0.21731913,-0.02386610,-0.04171921,-0.00000325,-0.005
 64729,-0.00104443,-0.00138123,0.00298128,-0.00055180,0.00000008,-0.005
 64748,-0.00104474,0.00138136,-0.37238961,-0.33734186,-0.00002098,0.367
 73213,-0.01547519,-0.00574294,-0.00000252,-0.00014991,0.00164203,-0.00
 146512,-0.00177799,0.00156571,0.00000029,-0.00015066,0.00164162,0.0014
 6555,-0.35804709,-0.56663863,-0.00002827,0.38823115,0.67265994,0.00000
 111,-0.00000160,0.02807392,-0.00485506,-0.00026450,-0.00111780,-0.0000
 0034,0.00000017,-0.00041149,0.00485513,0.00026494,-0.00111792,-0.00002
 453,-0.00002990,-0.07078519,0.00002319,0.00003143,0.02570012,-0.021090
 86,0.04156881,-0.00000061,0.00079049,0.00087847,0.00007161,-0.00878641
 ,-0.00132914,-0.00000047,0.00079003,0.00087788,-0.00007185,-0.13708938
 ,0.07217538,-0.00000268,0.03683706,-0.01263032,0.00000050,0.12854906,0
 .01052816,-0.01307396,0.00000142,0.00159472,-0.00020534,-0.00118506,0.
 00271233,0.00222992,0.00000014,0.00159531,-0.00020579,0.00118485,0.091
 63968,-0.18964279,0.00000417,-0.00652911,-0.10512773,-0.00000054,-0.10
 154108,0.30602569,0.00000164,0.00000123,0.01487702,-0.00311916,-0.0005
 3092,0.00033319,-0.00000025,-0.00000040,0.00264006,0.00311937,0.000530
 27,0.00033299,-0.00000593,0.00000616,-0.05471305,0.00000082,-0.0000013
 6,0.01965836,0.00000350,-0.00000498,0.01687144||-0.00013898,-0.0000731
 0,-0.00000587,0.00001500,0.00004384,-0.00001003,-0.00003142,0.00003129
 ,-0.00000043,0.00001244,0.00004346,0.00001023,0.00021730,-0.00016601,0
 .00001721,0.00000639,0.00011300,-0.00000604,-0.00008073,0.00000755,-0.
 00000507|||@


 REALITY IS FOR PEOPLE WHO CAN'T FACE SCIENCE FICTION.
 Job cpu time:  0 days  0 hours  0 minutes 55.0 seconds.
 File lengths (MBytes):  RWF=      8 Int=      0 D2E=      0 Chk=      1 Scr=      1
 Normal termination of Gaussian 09 at Wed Feb 25 12:14:40 2015.
