 Entering Link 1 = C:\G09W\l1.exe PID=      2076.
  
 Copyright (c) 1988,1990,1992,1993,1995,1998,2003,2009, Gaussian, Inc.
                  All Rights Reserved.
  
 This is part of the Gaussian(R) 09 program.  It is based on
 the Gaussian(R) 03 system (copyright 2003, Gaussian, Inc.),
 the Gaussian(R) 98 system (copyright 1998, Gaussian, Inc.),
 the Gaussian(R) 94 system (copyright 1995, Gaussian, Inc.),
 the Gaussian 92(TM) system (copyright 1992, Gaussian, Inc.),
 the Gaussian 90(TM) system (copyright 1990, Gaussian, Inc.),
 the Gaussian 88(TM) system (copyright 1988, Gaussian, Inc.),
 the Gaussian 86(TM) system (copyright 1986, Carnegie Mellon
 University), and the Gaussian 82(TM) system (copyright 1983,
 Carnegie Mellon University). Gaussian is a federally registered
 trademark of Gaussian, Inc.
  
 This software contains proprietary and confidential information,
 including trade secrets, belonging to Gaussian, Inc.
  
 This software is provided under written license and may be
 used, copied, transmitted, or stored only in accord with that
 written license.
  
 The following legend is applicable only to US Government
 contracts under FAR:
  
                    RESTRICTED RIGHTS LEGEND
  
 Use, reproduction and disclosure by the US Government is
 subject to restrictions as set forth in subparagraphs (a)
 and (c) of the Commercial Computer Software - Restricted
 Rights clause in FAR 52.227-19.
  
 Gaussian, Inc.
 340 Quinnipiac St., Bldg. 40, Wallingford CT 06492
  
  
 ---------------------------------------------------------------
 Warning -- This program may not be used in any manner that
 competes with the business of Gaussian, Inc. or will provide
 assistance to any competitor of Gaussian, Inc.  The licensee
 of this program is prohibited from giving any competitor of
 Gaussian, Inc. access to this program.  By using this program,
 the user acknowledges that Gaussian, Inc. is engaged in the
 business of creating and licensing software in the field of
 computational chemistry and represents and warrants to the
 licensee that it is not a competitor of Gaussian, Inc. and that
 it will not use this program in any manner prohibited above.
 ---------------------------------------------------------------
  

 Cite this work as:
 Gaussian 09, Revision A.02,
 M. J. Frisch, G. W. Trucks, H. B. Schlegel, G. E. Scuseria, 
 M. A. Robb, J. R. Cheeseman, G. Scalmani, V. Barone, B. Mennucci, 
 G. A. Petersson, H. Nakatsuji, M. Caricato, X. Li, H. P. Hratchian, 
 A. F. Izmaylov, J. Bloino, G. Zheng, J. L. Sonnenberg, M. Hada, 
 M. Ehara, K. Toyota, R. Fukuda, J. Hasegawa, M. Ishida, T. Nakajima, 
 Y. Honda, O. Kitao, H. Nakai, T. Vreven, J. A. Montgomery, Jr., 
 J. E. Peralta, F. Ogliaro, M. Bearpark, J. J. Heyd, E. Brothers, 
 K. N. Kudin, V. N. Staroverov, R. Kobayashi, J. Normand, 
 K. Raghavachari, A. Rendell, J. C. Burant, S. S. Iyengar, J. Tomasi, 
 M. Cossi, N. Rega, J. M. Millam, M. Klene, J. E. Knox, J. B. Cross, 
 V. Bakken, C. Adamo, J. Jaramillo, R. Gomperts, R. E. Stratmann, 
 O. Yazyev, A. J. Austin, R. Cammi, C. Pomelli, J. W. Ochterski, 
 R. L. Martin, K. Morokuma, V. G. Zakrzewski, G. A. Voth, 
 P. Salvador, J. J. Dannenberg, S. Dapprich, A. D. Daniels, 
 O. Farkas, J. B. Foresman, J. V. Ortiz, J. Cioslowski, 
 and D. J. Fox, Gaussian, Inc., Wallingford CT, 2009.
 
 ******************************************
 Gaussian 09:  IA32W-G09RevA.02 11-Jun-2009
                25-Feb-2015 
 ******************************************
 %chk=C:\Users\LawalM\Desktop\RCOOH\HAc631g.chk
 --------------------------------------------
 # opt freq b3lyp/6-31+g(d) geom=connectivity
 --------------------------------------------
 1/14=-1,18=20,19=15,26=3,38=1,57=2/1,3;
 2/9=110,12=2,17=6,18=5,40=1/2;
 3/5=1,6=6,7=11,11=2,16=1,25=1,30=1,71=1,74=-5/1,2,3;
 4//1;
 5/5=2,38=5/2;
 6/7=2,8=2,9=2,10=2,28=1/1;
 7//1,2,3,16;
 1/14=-1,18=20,19=15/3(2);
 2/9=110/2;
 99//99;
 2/9=110/2;
 3/5=1,6=6,7=11,11=2,16=1,25=1,30=1,71=1,74=-5/1,2,3;
 4/5=5,16=3/1;
 5/5=2,38=5/2;
 7//1,2,3,16;
 1/14=-1,18=20,19=15/3(-5);
 2/9=110/2;
 6/7=2,8=2,9=2,10=2,19=2,28=1/1;
 99/9=1/99;
 -------------------
 Title Card Required
 -------------------
 Symbolic Z-matrix:
 Charge =  0 Multiplicity = 1
 O                     0.90117   0.97671  -0.00004 
 H                     0.42626   1.83446   0.00079 
 C                     0.09966  -0.15056  -0.00025 
 C                    -1.37381   0.09115  -0.00016 
 H                    -1.83761  -0.35564   0.896 
 H                    -1.66584   1.14595  -0.03055 
 H                    -1.84634  -0.4082   -0.86353 
 O                     0.66988  -1.20922   0.00001 
 

 GradGradGradGradGradGradGradGradGradGradGradGradGradGradGradGradGradGrad
 Berny optimization.
 Initialization pass.
                           ----------------------------
                           !    Initial Parameters    !
                           ! (Angstroms and Degrees)  !
 --------------------------                            --------------------------
 ! Name  Definition              Value          Derivative Info.                !
 --------------------------------------------------------------------------------
 ! R1    R(1,2)                  0.9804         estimate D2E/DX2                !
 ! R2    R(1,3)                  1.3832         estimate D2E/DX2                !
 ! R3    R(3,4)                  1.4932         estimate D2E/DX2                !
 ! R4    R(3,8)                  1.2025         estimate D2E/DX2                !
 ! R5    R(4,5)                  1.1036         estimate D2E/DX2                !
 ! R6    R(4,6)                  1.0949         estimate D2E/DX2                !
 ! R7    R(4,7)                  1.1037         estimate D2E/DX2                !
 ! A1    A(2,1,3)              115.6143         estimate D2E/DX2                !
 ! A2    A(1,3,4)              116.0981         estimate D2E/DX2                !
 ! A3    A(1,3,8)              116.2779         estimate D2E/DX2                !
 ! A4    A(4,3,8)              127.6239         estimate D2E/DX2                !
 ! A5    A(3,4,5)              110.4418         estimate D2E/DX2                !
 ! A6    A(3,4,6)              114.7808         estimate D2E/DX2                !
 ! A7    A(3,4,7)              110.4394         estimate D2E/DX2                !
 ! A8    A(5,4,6)              107.486          estimate D2E/DX2                !
 ! A9    A(5,4,7)              105.7918         estimate D2E/DX2                !
 ! A10   A(6,4,7)              107.4558         estimate D2E/DX2                !
 ! D1    D(2,1,3,4)              0.0415         estimate D2E/DX2                !
 ! D2    D(2,1,3,8)           -179.9318         estimate D2E/DX2                !
 ! D3    D(1,3,4,5)           -119.9206         estimate D2E/DX2                !
 ! D4    D(1,3,4,6)              1.7652         estimate D2E/DX2                !
 ! D5    D(1,3,4,7)            123.4093         estimate D2E/DX2                !
 ! D6    D(8,3,4,5)             60.0492         estimate D2E/DX2                !
 ! D7    D(8,3,4,6)           -178.265          estimate D2E/DX2                !
 ! D8    D(8,3,4,7)            -56.621          estimate D2E/DX2                !
 --------------------------------------------------------------------------------
 Trust Radius=3.00D-01 FncErr=1.00D-07 GrdErr=1.00D-06
 Number of steps in this run=  35 maximum allowed number of steps= 100.
 GradGradGradGradGradGradGradGradGradGradGradGradGradGradGradGradGradGrad

                          Input orientation:                          
 ---------------------------------------------------------------------
 Center     Atomic      Atomic             Coordinates (Angstroms)
 Number     Number       Type             X           Y           Z
 ---------------------------------------------------------------------
      1          8           0        0.901171    0.976708   -0.000042
      2          1           0        0.426263    1.834456    0.000792
      3          6           0        0.099656   -0.150557   -0.000253
      4          6           0       -1.373808    0.091147   -0.000158
      5          1           0       -1.837613   -0.355636    0.896000
      6          1           0       -1.665842    1.145949   -0.030550
      7          1           0       -1.846339   -0.408203   -0.863528
      8          8           0        0.669884   -1.209221    0.000011
 ---------------------------------------------------------------------
                    Distance matrix (angstroms):
                    1          2          3          4          5
     1  O    0.000000
     2  H    0.980444   0.000000
     3  C    1.383168   2.011703   0.000000
     4  C    2.441259   2.505870   1.493157   0.000000
     5  H    3.174739   3.274605   2.144374   1.103553   0.000000
     6  H    2.572767   2.202709   2.190623   1.094904   1.772782
     7  H    3.195684   3.307762   2.144416   1.103650   1.760335
     8  O    2.198131   3.053411   1.202468   2.422320   2.796238
                    6          7          8
     6  H    0.000000
     7  H    1.772518   0.000000
     8  O    3.317134   2.778256   0.000000
 Stoichiometry    C2H4O2
 Framework group  C1[X(C2H4O2)]
 Deg. of freedom    18
 Full point group                 C1      NOp   1
 Largest Abelian subgroup         C1      NOp   1
 Largest concise Abelian subgroup C1      NOp   1
                         Standard orientation:                         
 ---------------------------------------------------------------------
 Center     Atomic      Atomic             Coordinates (Angstroms)
 Number     Number       Type             X           Y           Z
 ---------------------------------------------------------------------
      1          8           0        0.901172    0.976707   -0.000042
      2          1           0        0.426264    1.834456    0.000792
      3          6           0        0.099656   -0.150557   -0.000253
      4          6           0       -1.373808    0.091148   -0.000158
      5          1           0       -1.837613   -0.355635    0.896000
      6          1           0       -1.665841    1.145950   -0.030550
      7          1           0       -1.846339   -0.408202   -0.863528
      8          8           0        0.669883   -1.209221    0.000011
 ---------------------------------------------------------------------
 Rotational constants (GHZ):     11.1051529      9.3727877      5.2476803
 Standard basis: 6-31+G(d) (6D, 7F)
 There are    84 symmetry adapted basis functions of A   symmetry.
 Integral buffers will be    262144 words long.
 Raffenetti 2 integral format.
 Two-electron integral symmetry is turned on.
    84 basis functions,   144 primitive gaussians,    84 cartesian basis functions
    16 alpha electrons       16 beta electrons
       nuclear repulsion energy       120.2354350977 Hartrees.
 NAtoms=    8 NActive=    8 NUniq=    8 SFac= 7.50D-01 NAtFMM=   80 NAOKFM=F Big=F
 One-electron integrals computed using PRISM.
 NBasis=    84 RedAO= T  NBF=    84
 NBsUse=    84 1.00D-06 NBFU=    84
 Harris functional with IExCor=  402 diagonalized for initial guess.
 ExpMin= 4.38D-02 ExpMax= 5.48D+03 ExpMxC= 8.25D+02 IAcc=2 IRadAn=         0 AccDes= 0.00D+00
 HarFok:  IExCor=  402 AccDes= 0.00D+00 IRadAn=         0 IDoV= 1
 ScaDFX=  1.000000  1.000000  1.000000  1.000000
 FoFCou: FMM=F IPFlag=           0 FMFlag=      100000 FMFlg1=           0
         NFxFlg=           0 DoJE=T BraDBF=F KetDBF=T FulRan=T
         Omega=  0.000000  0.000000  1.000000  0.000000  0.000000 ICntrl=     500 IOpCl=  0
         NMat0=    1 NMatS0=    1 NMatT0=    0 NMatD0=    1 NMtDS0=    0 NMtDT0=    0
         I1Cent=           4 NGrid=           0.
 Petite list used in FoFCou.
 Initial guess orbital symmetries:
       Occupied  (A) (A) (A) (A) (A) (A) (A) (A) (A) (A) (A) (A)
                 (A) (A) (A) (A)
       Virtual   (A) (A) (A) (A) (A) (A) (A) (A) (A) (A) (A) (A)
                 (A) (A) (A) (A) (A) (A) (A) (A) (A) (A) (A) (A)
                 (A) (A) (A) (A) (A) (A) (A) (A) (A) (A) (A) (A)
                 (A) (A) (A) (A) (A) (A) (A) (A) (A) (A) (A) (A)
                 (A) (A) (A) (A) (A) (A) (A) (A) (A) (A) (A) (A)
                 (A) (A) (A) (A) (A) (A) (A) (A)
 The electronic state of the initial guess is 1-A.
 Requested convergence on RMS density matrix=1.00D-08 within 128 cycles.
 Requested convergence on MAX density matrix=1.00D-06.
 Requested convergence on             energy=1.00D-06.
 No special actions if energy rises.
 Keep R1 ints in memory in canonical form, NReq=7383353.
 SCF Done:  E(RB3LYP) =  -229.083363102     A.U. after   12 cycles
             Convg  =    0.1770D-08             -V/T =  2.0094

 **********************************************************************

            Population analysis using the SCF density.

 **********************************************************************

 Orbital symmetries:
       Occupied  (A) (A) (A) (A) (A) (A) (A) (A) (A) (A) (A) (A)
                 (A) (A) (A) (A)
       Virtual   (A) (A) (A) (A) (A) (A) (A) (A) (A) (A) (A) (A)
                 (A) (A) (A) (A) (A) (A) (A) (A) (A) (A) (A) (A)
                 (A) (A) (A) (A) (A) (A) (A) (A) (A) (A) (A) (A)
                 (A) (A) (A) (A) (A) (A) (A) (A) (A) (A) (A) (A)
                 (A) (A) (A) (A) (A) (A) (A) (A) (A) (A) (A) (A)
                 (A) (A) (A) (A) (A) (A) (A) (A)
 The electronic state is 1-A.
 Alpha  occ. eigenvalues --  -19.20805 -19.15406 -10.33942 -10.22556  -1.10791
 Alpha  occ. eigenvalues --   -1.02887  -0.77481  -0.62983  -0.53298  -0.48001
 Alpha  occ. eigenvalues --   -0.47651  -0.43465  -0.40550  -0.38303  -0.32851
 Alpha  occ. eigenvalues --   -0.29282
 Alpha virt. eigenvalues --   -0.01590  -0.01316   0.02155   0.04348   0.04530
 Alpha virt. eigenvalues --    0.06984   0.07988   0.09047   0.11113   0.13583
 Alpha virt. eigenvalues --    0.15426   0.17060   0.19260   0.22154   0.22166
 Alpha virt. eigenvalues --    0.24136   0.27695   0.28672   0.28986   0.30456
 Alpha virt. eigenvalues --    0.32387   0.35003   0.36671   0.45908   0.61731
 Alpha virt. eigenvalues --    0.62723   0.67954   0.70035   0.77239   0.78637
 Alpha virt. eigenvalues --    0.89103   0.95837   0.98473   1.06245   1.09297
 Alpha virt. eigenvalues --    1.10513   1.13141   1.25041   1.25613   1.30202
 Alpha virt. eigenvalues --    1.33649   1.34504   1.41128   1.43898   1.53541
 Alpha virt. eigenvalues --    1.60125   1.71604   1.74590   1.79297   1.80834
 Alpha virt. eigenvalues --    1.83412   1.95596   1.96048   2.05115   2.19931
 Alpha virt. eigenvalues --    2.21463   2.39739   2.40418   2.47133   2.64527
 Alpha virt. eigenvalues --    2.70433   2.81290   3.08361   3.11209   4.03841
 Alpha virt. eigenvalues --    4.18537   4.28290   4.52476
          Condensed to atoms (all electrons):
              1          2          3          4          5          6
     1  O    8.555588   0.137732   0.096326  -0.113008   0.001872   0.006488
     2  H    0.137732   0.376442   0.003919   0.015215   0.000111   0.000685
     3  C    0.096326   0.003919   4.866187   0.148109  -0.025529  -0.076748
     4  C   -0.113008   0.015215   0.148109   5.637217   0.370279   0.402454
     5  H    0.001872   0.000111  -0.025529   0.370279   0.455323  -0.027357
     6  H    0.006488   0.000685  -0.076748   0.402454  -0.027357   0.518695
     7  H    0.002337   0.000128  -0.028264   0.372962  -0.020403  -0.027380
     8  O   -0.108746   0.011140   0.433735  -0.103635  -0.004004   0.006536
              7          8
     1  O    0.002337  -0.108746
     2  H    0.000128   0.011140
     3  C   -0.028264   0.433735
     4  C    0.372962  -0.103635
     5  H   -0.020403  -0.004004
     6  H   -0.027380   0.006536
     7  H    0.454661  -0.003830
     8  O   -0.003830   8.193636
 Mulliken atomic charges:
              1
     1  O   -0.578589
     2  H    0.454628
     3  C    0.582264
     4  C   -0.729593
     5  H    0.249708
     6  H    0.196627
     7  H    0.249788
     8  O   -0.424832
 Sum of Mulliken atomic charges =   0.00000
 Mulliken charges with hydrogens summed into heavy atoms:
              1
     1  O   -0.123961
     3  C    0.582264
     4  C   -0.033471
     8  O   -0.424832
 Sum of Mulliken charges with hydrogens summed into heavy atoms =   0.00000
 Electronic spatial extent (au):  <R**2>=            258.2154
 Charge=              0.0000 electrons
 Dipole moment (field-independent basis, Debye):
    X=             -3.5791    Y=              3.0836    Z=              0.0052  Tot=              4.7243
 Quadrupole moment (field-independent basis, Debye-Ang):
   XX=            -25.5104   YY=            -23.3242   ZZ=            -23.4942
   XY=              0.8905   XZ=             -0.0079   YZ=              0.0049
 Traceless Quadrupole moment (field-independent basis, Debye-Ang):
   XX=             -1.4008   YY=              0.7854   ZZ=              0.6154
   XY=              0.8905   XZ=             -0.0079   YZ=              0.0049
 Octapole moment (field-independent basis, Debye-Ang**2):
  XXX=             -2.2867  YYY=             16.4329  ZZZ=              0.0685  XYY=             -0.9760
  XXY=             -1.1110  XXZ=              0.0061  XZZ=             -0.0294  YZZ=             -0.8120
  YYZ=             -0.0547  XYZ=             -0.0095
 Hexadecapole moment (field-independent basis, Debye-Ang**3):
 XXXX=           -171.2328 YYYY=           -107.7145 ZZZZ=            -28.8994 XXXY=              1.0156
 XXXZ=             -0.0090 YYYX=              4.9663 YYYZ=             -0.0064 ZZZX=             -0.1336
 ZZZY=              0.0054 XXYY=            -50.6610 XXZZ=            -31.3975 YYZZ=            -26.0845
 XXYZ=              0.0395 YYXZ=              0.1189 ZZXY=              1.2194
 N-N= 1.202354350977D+02 E-N=-7.768709119727D+02  KE= 2.269527725735D+02
 Calling FoFJK, ICntrl=      2127 FMM=F ISym2X=0 I1Cent= 0 IOpClX= 0 NMat=1 NMatS=1 NMatT=0.
 ***** Axes restored to original set *****
 -------------------------------------------------------------------
 Center     Atomic                   Forces (Hartrees/Bohr)
 Number     Number              X              Y              Z
 -------------------------------------------------------------------
      1        8          -0.003158704    0.004752489    0.000125895
      2        1          -0.001093782   -0.011404710   -0.000025596
      3        6           0.022984131    0.018363433   -0.000180559
      4        6          -0.022377066   -0.005356721   -0.000158664
      5        1           0.004634599    0.000980306   -0.003033226
      6        1           0.002619011    0.000062061    0.000057165
      7        1           0.004762528    0.001128256    0.003174919
      8        8          -0.008370717   -0.008525114    0.000040067
 -------------------------------------------------------------------
 Cartesian Forces:  Max     0.022984131 RMS     0.008597735

 GradGradGradGradGradGradGradGradGradGradGradGradGradGradGradGradGradGrad
 Berny optimization.
 Internal  Forces:  Max     0.013614730 RMS     0.005787349
 Search for a local minimum.
 Step number   1 out of a maximum of   35
 All quantities printed in internal units (Hartrees-Bohrs-Radians)
 Mixed Optimization -- RFO/linear search
 Second derivative matrix not updated -- first step.
     Eigenvalues ---    0.00856   0.01075   0.01914   0.06785   0.07413
     Eigenvalues ---    0.16000   0.16000   0.16000   0.16000   0.25000
     Eigenvalues ---    0.25000   0.33106   0.33282   0.33292   0.34252
     Eigenvalues ---    0.48528   0.51299   1.035931000.000001000.00000
     Eigenvalues --- 1000.000001000.000001000.000001000.000001000.00000
 RFO step:  Lambda=-3.25295345D-03 EMin= 8.56470907D-03
 Linear search not attempted -- first point.
 Iteration  1 RMS(Cart)=  0.03156316 RMS(Int)=  0.00118202
 Iteration  2 RMS(Cart)=  0.00108447 RMS(Int)=  0.00008118
 Iteration  3 RMS(Cart)=  0.00000042 RMS(Int)=  0.00008118
 Variable       Old X    -DE/DX   Delta X   Delta X   Delta X     New X
                                 (Linear)    (Quad)   (Total)
    R1        1.85277  -0.00945   0.00000  -0.01830  -0.01830   1.83447
    R2        2.61381  -0.00788   0.00000  -0.01614  -0.01614   2.59767
    R3        2.82166   0.00971   0.00000   0.02903   0.02903   2.85069
    R4        2.27234   0.00354   0.00000   0.00340   0.00340   2.27574
    R5        2.08541  -0.00481   0.00000  -0.01430  -0.01430   2.07111
    R6        2.06907  -0.00064   0.00000  -0.00186  -0.00186   2.06721
    R7        2.08560  -0.00503   0.00000  -0.01497  -0.01497   2.07062
    A1        2.01785  -0.01201   0.00000  -0.07357  -0.07357   1.94428
    A2        2.02629   0.00130   0.00000   0.00515   0.00514   2.03143
    A3        2.02943   0.01231   0.00000   0.04861   0.04861   2.07804
    A4        2.22746  -0.01361   0.00000  -0.05376  -0.05376   2.17369
    A5        1.92757  -0.00302   0.00000  -0.01892  -0.01906   1.90851
    A6        2.00330  -0.00201   0.00000  -0.01182  -0.01191   1.99139
    A7        1.92753  -0.00301   0.00000  -0.01848  -0.01862   1.90891
    A8        1.87598   0.00290   0.00000   0.01787   0.01777   1.89376
    A9        1.84642   0.00279   0.00000   0.01604   0.01585   1.86227
   A10        1.87546   0.00301   0.00000   0.01923   0.01914   1.89460
    D1        0.00072  -0.00006   0.00000  -0.00344  -0.00359  -0.00286
    D2       -3.14040   0.00003   0.00000   0.00208   0.00222  -3.13818
    D3       -2.09301  -0.00002   0.00000   0.00422   0.00421  -2.08880
    D4        0.03081   0.00002   0.00000   0.00461   0.00457   0.03538
    D5        2.15390   0.00021   0.00000   0.00714   0.00704   2.16094
    D6        1.04806  -0.00010   0.00000  -0.00200  -0.00192   1.04614
    D7       -3.11131  -0.00007   0.00000  -0.00161  -0.00156  -3.11287
    D8       -0.98822   0.00012   0.00000   0.00092   0.00091  -0.98731
         Item               Value     Threshold  Converged?
 Maximum Force            0.013615     0.000450     NO 
 RMS     Force            0.005787     0.000300     NO 
 Maximum Displacement     0.088688     0.001800     NO 
 RMS     Displacement     0.031519     0.001200     NO 
 Predicted change in Energy=-1.649960D-03
 GradGradGradGradGradGradGradGradGradGradGradGradGradGradGradGradGradGrad

                          Input orientation:                          
 ---------------------------------------------------------------------
 Center     Atomic      Atomic             Coordinates (Angstroms)
 Number     Number       Type             X           Y           Z
 ---------------------------------------------------------------------
      1          8           0        0.911473    0.986273    0.001584
      2          1           0        0.379331    1.798187    0.002321
      3          6           0        0.115971   -0.134780   -0.002449
      4          6           0       -1.374114    0.100337   -0.001001
      5          1           0       -1.812287   -0.352285    0.895838
      6          1           0       -1.659775    1.155843   -0.032147
      7          1           0       -1.823106   -0.407897   -0.861653
      8          8           0        0.635881   -1.221035   -0.000221
 ---------------------------------------------------------------------
                    Distance matrix (angstroms):
                    1          2          3          4          5
     1  O    0.000000
     2  H    0.970762   0.000000
     3  C    1.374627   1.950831   0.000000
     4  C    2.451285   2.440753   1.508521   0.000000
     5  H    3.163905   3.197826   2.138319   1.095985   0.000000
     6  H    2.577054   2.138164   2.195419   1.093922   1.777320
     7  H    3.188544   3.234808   2.138421   1.095726   1.758403
     8  O    2.224447   3.030103   1.204268   2.405433   2.747941
                    6          7          8
     6  H    0.000000
     7  H    1.777650   0.000000
     8  O    3.304634   2.729446   0.000000
 Stoichiometry    C2H4O2
 Framework group  C1[X(C2H4O2)]
 Deg. of freedom    18
 Full point group                 C1      NOp   1
 Largest Abelian subgroup         C1      NOp   1
 Largest concise Abelian subgroup C1      NOp   1
                         Standard orientation:                         
 ---------------------------------------------------------------------
 Center     Atomic      Atomic             Coordinates (Angstroms)
 Number     Number       Type             X           Y           Z
 ---------------------------------------------------------------------
      1          8           0       -0.946870   -0.951390    0.000381
      2          1           0       -0.442488   -1.780834    0.000794
      3          6           0       -0.113912    0.142124   -0.002241
      4          6           0        1.367369   -0.143247   -0.000047
      5          1           0        1.820009    0.293591    0.897434
      6          1           0        1.617195   -1.207785   -0.031870
      7          1           0        1.833855    0.350193   -0.860003
      8          8           0       -0.596795    1.245337    0.000540
 ---------------------------------------------------------------------
 Rotational constants (GHZ):     10.9595647      9.4691116      5.2442600
 Standard basis: 6-31+G(d) (6D, 7F)
 There are    84 symmetry adapted basis functions of A   symmetry.
 Integral buffers will be    262144 words long.
 Raffenetti 2 integral format.
 Two-electron integral symmetry is turned on.
    84 basis functions,   144 primitive gaussians,    84 cartesian basis functions
    16 alpha electrons       16 beta electrons
       nuclear repulsion energy       120.2989541437 Hartrees.
 NAtoms=    8 NActive=    8 NUniq=    8 SFac= 7.50D-01 NAtFMM=   80 NAOKFM=F Big=F
 One-electron integrals computed using PRISM.
 NBasis=    84 RedAO= T  NBF=    84
 NBsUse=    84 1.00D-06 NBFU=    84
 Initial guess read from the read-write file.
 B after Tr=     0.000000    0.000000    0.000000
         Rot=    1.000000    0.000000    0.000000    0.000000 Ang=   0.00 deg.
 Initial guess orbital symmetries:
       Occupied  (A) (A) (A) (A) (A) (A) (A) (A) (A) (A) (A) (A)
                 (A) (A) (A) (A)
       Virtual   (A) (A) (A) (A) (A) (A) (A) (A) (A) (A) (A) (A)
                 (A) (A) (A) (A) (A) (A) (A) (A) (A) (A) (A) (A)
                 (A) (A) (A) (A) (A) (A) (A) (A) (A) (A) (A) (A)
                 (A) (A) (A) (A) (A) (A) (A) (A) (A) (A) (A) (A)
                 (A) (A) (A) (A) (A) (A) (A) (A) (A) (A) (A) (A)
                 (A) (A) (A) (A) (A) (A) (A) (A)
 Harris functional with IExCor=  402 diagonalized for initial guess.
 ExpMin= 4.38D-02 ExpMax= 5.48D+03 ExpMxC= 8.25D+02 IAcc=2 IRadAn=         0 AccDes= 0.00D+00
 HarFok:  IExCor=  402 AccDes= 0.00D+00 IRadAn=         0 IDoV= 1
 ScaDFX=  1.000000  1.000000  1.000000  1.000000
 FoFCou: FMM=F IPFlag=           0 FMFlag=      100000 FMFlg1=           0
         NFxFlg=           0 DoJE=T BraDBF=F KetDBF=T FulRan=T
         Omega=  0.000000  0.000000  1.000000  0.000000  0.000000 ICntrl=     500 IOpCl=  0
         NMat0=    1 NMatS0=    1 NMatT0=    0 NMatD0=    1 NMtDS0=    0 NMtDT0=    0
         I1Cent=           4 NGrid=           0.
 Petite list used in FoFCou.
 Requested convergence on RMS density matrix=1.00D-08 within 128 cycles.
 Requested convergence on MAX density matrix=1.00D-06.
 Requested convergence on             energy=1.00D-06.
 No special actions if energy rises.
 Keep R1 ints in memory in canonical form, NReq=7383353.
 SCF Done:  E(RB3LYP) =  -229.085337569     A.U. after   13 cycles
             Convg  =    0.1751D-08             -V/T =  2.0093
 Calling FoFJK, ICntrl=      2127 FMM=F ISym2X=0 I1Cent= 0 IOpClX= 0 NMat=1 NMatS=1 NMatT=0.
 ***** Axes restored to original set *****
 -------------------------------------------------------------------
 Center     Atomic                   Forces (Hartrees/Bohr)
 Number     Number              X              Y              Z
 -------------------------------------------------------------------
      1        8          -0.002173875   -0.003992326   -0.000065723
      2        1          -0.000329938   -0.000631523   -0.000054787
      3        6           0.008820007    0.006679187    0.000570431
      4        6          -0.007595461   -0.000781133   -0.000231804
      5        1           0.001362708    0.000157608    0.000061980
      6        1          -0.000129466    0.000361252   -0.000031081
      7        1           0.001326805    0.000122142    0.000010835
      8        8          -0.001280781   -0.001915208   -0.000259850
 -------------------------------------------------------------------
 Cartesian Forces:  Max     0.008820007 RMS     0.002968228

 GradGradGradGradGradGradGradGradGradGradGradGradGradGradGradGradGradGrad
 Berny optimization.
 Using GEDIIS/GDIIS optimizer.
 Internal  Forces:  Max     0.005217811 RMS     0.001763984
 Search for a local minimum.
 Step number   2 out of a maximum of   35
 All quantities printed in internal units (Hartrees-Bohrs-Radians)
 Mixed Optimization -- RFO/linear search
 Update second derivatives using D2CorX and points    1    2
 DE= -1.97D-03 DEPred=-1.65D-03 R= 1.20D+00
 SS=  1.41D+00  RLast= 1.20D-01 DXNew= 5.0454D-01 3.6091D-01
 Trust test= 1.20D+00 RLast= 1.20D-01 DXMaxT set to 3.61D-01
 Use linear search instead of GDIIS.
     Eigenvalues ---    0.00856   0.01100   0.01914   0.06948   0.07610
     Eigenvalues ---    0.14078   0.16000   0.16000   0.16747   0.22317
     Eigenvalues ---    0.25600   0.31595   0.33287   0.33652   0.34308
     Eigenvalues ---    0.47205   0.52212   1.034411000.000001000.00000
     Eigenvalues --- 1000.000001000.000001000.000001000.000001000.00000
 RFO step:  Lambda=-1.81771573D-04 EMin= 8.56248552D-03
 Quartic linear search produced a step of  0.25137.
 Iteration  1 RMS(Cart)=  0.01105221 RMS(Int)=  0.00016313
 Iteration  2 RMS(Cart)=  0.00015611 RMS(Int)=  0.00005634
 Iteration  3 RMS(Cart)=  0.00000001 RMS(Int)=  0.00005634
 Variable       Old X    -DE/DX   Delta X   Delta X   Delta X     New X
                                 (Linear)    (Quad)   (Total)
    R1        1.83447  -0.00034  -0.00460   0.00282  -0.00178   1.83269
    R2        2.59767  -0.00522  -0.00406  -0.01023  -0.01428   2.58338
    R3        2.85069   0.00495   0.00730   0.01283   0.02013   2.87082
    R4        2.27574   0.00117   0.00086   0.00075   0.00160   2.27734
    R5        2.07111  -0.00056  -0.00360   0.00079  -0.00281   2.06831
    R6        2.06721   0.00038  -0.00047   0.00176   0.00130   2.06851
    R7        2.07062  -0.00061  -0.00376   0.00074  -0.00302   2.06760
    A1        1.94428  -0.00115  -0.01849   0.00646  -0.01203   1.93225
    A2        2.03143   0.00181   0.00129   0.00805   0.00928   2.04071
    A3        2.07804   0.00134   0.01222  -0.00317   0.00898   2.08702
    A4        2.17369  -0.00315  -0.01352  -0.00475  -0.01833   2.15536
    A5        1.90851  -0.00155  -0.00479  -0.00829  -0.01316   1.89535
    A6        1.99139   0.00066  -0.00299   0.00791   0.00490   1.99629
    A7        1.90891  -0.00145  -0.00468  -0.00747  -0.01222   1.89670
    A8        1.89376   0.00055   0.00447   0.00072   0.00517   1.89893
    A9        1.86227   0.00134   0.00398   0.00662   0.01047   1.87274
   A10        1.89460   0.00054   0.00481   0.00065   0.00545   1.90006
    D1       -0.00286   0.00004  -0.00090   0.00823   0.00743   0.00457
    D2       -3.13818  -0.00012   0.00056  -0.01340  -0.01294   3.13206
    D3       -2.08880  -0.00010   0.00106  -0.00821  -0.00707  -2.09586
    D4        0.03538  -0.00008   0.00115  -0.00798  -0.00680   0.02858
    D5        2.16094   0.00000   0.00177  -0.00722  -0.00547   2.15547
    D6        1.04614   0.00009  -0.00048   0.01476   0.01429   1.06043
    D7       -3.11287   0.00011  -0.00039   0.01498   0.01456  -3.09831
    D8       -0.98731   0.00018   0.00023   0.01574   0.01589  -0.97142
         Item               Value     Threshold  Converged?
 Maximum Force            0.005218     0.000450     NO 
 RMS     Force            0.001764     0.000300     NO 
 Maximum Displacement     0.029399     0.001800     NO 
 RMS     Displacement     0.011064     0.001200     NO 
 Predicted change in Energy=-1.787296D-04
 GradGradGradGradGradGradGradGradGradGradGradGradGradGradGradGradGradGrad

                          Input orientation:                          
 ---------------------------------------------------------------------
 Center     Atomic      Atomic             Coordinates (Angstroms)
 Number     Number       Type             X           Y           Z
 ---------------------------------------------------------------------
      1          8           0        0.918321    0.983924    0.001303
      2          1           0        0.381277    1.791470    0.001204
      3          6           0        0.121257   -0.126732    0.003904
      4          6           0       -1.380267    0.104120   -0.000145
      5          1           0       -1.806149   -0.353339    0.898346
      6          1           0       -1.675332    1.157687   -0.033315
      7          1           0       -1.811615   -0.411422   -0.863434
      8          8           0        0.625880   -1.221066   -0.005592
 ---------------------------------------------------------------------
                    Distance matrix (angstroms):
                    1          2          3          4          5
     1  O    0.000000
     2  H    0.969818   0.000000
     3  C    1.367068   1.935747   0.000000
     4  C    2.461212   2.439301   1.519172   0.000000
     5  H    3.164759   3.192163   2.136883   1.094500   0.000000
     6  H    2.599699   2.152328   2.208812   1.094608   1.779973
     7  H    3.185485   3.226315   2.137596   1.094127   1.762745
     8  O    2.224310   3.022459   1.205115   2.404324   2.735840
                    6          7          8
     6  H    0.000000
     7  H    1.780386   0.000000
     8  O    3.309806   2.707914   0.000000
 Stoichiometry    C2H4O2
 Framework group  C1[X(C2H4O2)]
 Deg. of freedom    18
 Full point group                 C1      NOp   1
 Largest Abelian subgroup         C1      NOp   1
 Largest concise Abelian subgroup C1      NOp   1
                         Standard orientation:                         
 ---------------------------------------------------------------------
 Center     Atomic      Atomic             Coordinates (Angstroms)
 Number     Number       Type             X           Y           Z
 ---------------------------------------------------------------------
      1          8           0       -0.965997   -0.935644   -0.000561
      2          1           0       -0.466757   -1.767089   -0.003191
      3          6           0       -0.118569    0.137070    0.004618
      4          6           0        1.370712   -0.162755   -0.000948
      5          1           0        1.817648    0.272094    0.898543
      6          1           0        1.616871   -1.228710   -0.037182
      7          1           0        1.824973    0.334739   -0.863073
      8          8           0       -0.572202    1.253529   -0.001579
 ---------------------------------------------------------------------
 Rotational constants (GHZ):     10.9864579      9.4258145      5.2379356
 Standard basis: 6-31+G(d) (6D, 7F)
 There are    84 symmetry adapted basis functions of A   symmetry.
 Integral buffers will be    262144 words long.
 Raffenetti 2 integral format.
 Two-electron integral symmetry is turned on.
    84 basis functions,   144 primitive gaussians,    84 cartesian basis functions
    16 alpha electrons       16 beta electrons
       nuclear repulsion energy       120.2833642027 Hartrees.
 NAtoms=    8 NActive=    8 NUniq=    8 SFac= 7.50D-01 NAtFMM=   80 NAOKFM=F Big=F
 One-electron integrals computed using PRISM.
 NBasis=    84 RedAO= T  NBF=    84
 NBsUse=    84 1.00D-06 NBFU=    84
 Initial guess read from the read-write file.
 B after Tr=     0.000000    0.000000    0.000000
         Rot=    1.000000    0.000000    0.000000    0.000000 Ang=   0.00 deg.
 Initial guess orbital symmetries:
       Occupied  (A) (A) (A) (A) (A) (A) (A) (A) (A) (A) (A) (A)
                 (A) (A) (A) (A)
       Virtual   (A) (A) (A) (A) (A) (A) (A) (A) (A) (A) (A) (A)
                 (A) (A) (A) (A) (A) (A) (A) (A) (A) (A) (A) (A)
                 (A) (A) (A) (A) (A) (A) (A) (A) (A) (A) (A) (A)
                 (A) (A) (A) (A) (A) (A) (A) (A) (A) (A) (A) (A)
                 (A) (A) (A) (A) (A) (A) (A) (A) (A) (A) (A) (A)
                 (A) (A) (A) (A) (A) (A) (A) (A)
 Harris functional with IExCor=  402 diagonalized for initial guess.
 ExpMin= 4.38D-02 ExpMax= 5.48D+03 ExpMxC= 8.25D+02 IAcc=2 IRadAn=         0 AccDes= 0.00D+00
 HarFok:  IExCor=  402 AccDes= 0.00D+00 IRadAn=         0 IDoV= 1
 ScaDFX=  1.000000  1.000000  1.000000  1.000000
 FoFCou: FMM=F IPFlag=           0 FMFlag=      100000 FMFlg1=           0
         NFxFlg=           0 DoJE=T BraDBF=F KetDBF=T FulRan=T
         Omega=  0.000000  0.000000  1.000000  0.000000  0.000000 ICntrl=     500 IOpCl=  0
         NMat0=    1 NMatS0=    1 NMatT0=    0 NMatD0=    1 NMtDS0=    0 NMtDT0=    0
         I1Cent=           4 NGrid=           0.
 Petite list used in FoFCou.
 Requested convergence on RMS density matrix=1.00D-08 within 128 cycles.
 Requested convergence on MAX density matrix=1.00D-06.
 Requested convergence on             energy=1.00D-06.
 No special actions if energy rises.
 Keep R1 ints in memory in canonical form, NReq=7383353.
 SCF Done:  E(RB3LYP) =  -229.085512171     A.U. after   10 cycles
             Convg  =    0.3178D-08             -V/T =  2.0093
 Calling FoFJK, ICntrl=      2127 FMM=F ISym2X=0 I1Cent= 0 IOpClX= 0 NMat=1 NMatS=1 NMatT=0.
 ***** Axes restored to original set *****
 -------------------------------------------------------------------
 Center     Atomic                   Forces (Hartrees/Bohr)
 Number     Number              X              Y              Z
 -------------------------------------------------------------------
      1        8          -0.001213401   -0.001814959    0.000594624
      2        1          -0.000008739    0.000937572    0.000122206
      3        6           0.001610365    0.001655081   -0.002490075
      4        6          -0.000736479    0.000039701    0.000726427
      5        1          -0.000058577    0.000013226    0.000260161
      6        1           0.000087790    0.000049595    0.000053703
      7        1           0.000280263   -0.000103914   -0.000212308
      8        8           0.000038777   -0.000776301    0.000945263
 -------------------------------------------------------------------
 Cartesian Forces:  Max     0.002490075 RMS     0.000920489

 GradGradGradGradGradGradGradGradGradGradGradGradGradGradGradGradGradGrad
 Berny optimization.
 Using GEDIIS/GDIIS optimizer.
 Internal  Forces:  Max     0.001425301 RMS     0.000503916
 Search for a local minimum.
 Step number   3 out of a maximum of   35
 All quantities printed in internal units (Hartrees-Bohrs-Radians)
 Mixed Optimization -- En-DIIS/RFO-DIIS
 Update second derivatives using D2CorX and points    1    2    3
 DE= -1.75D-04 DEPred=-1.79D-04 R= 9.77D-01
 SS=  1.41D+00  RLast= 5.30D-02 DXNew= 6.0698D-01 1.5905D-01
 Trust test= 9.77D-01 RLast= 5.30D-02 DXMaxT set to 3.61D-01
 Use linear search instead of GDIIS.
     Eigenvalues ---    0.00854   0.01286   0.01921   0.06972   0.07736
     Eigenvalues ---    0.13005   0.16000   0.16221   0.17563   0.20882
     Eigenvalues ---    0.25566   0.31145   0.33293   0.33656   0.34301
     Eigenvalues ---    0.45528   0.52712   1.032031000.000001000.00000
     Eigenvalues --- 1000.000001000.000001000.000001000.000001000.00000
 RFO step:  Lambda=-1.47409508D-04 EMin= 8.54336713D-03
 Quartic linear search produced a step of -0.01074.
 Iteration  1 RMS(Cart)=  0.01311993 RMS(Int)=  0.00038054
 Iteration  2 RMS(Cart)=  0.00037600 RMS(Int)=  0.00025590
 Iteration  3 RMS(Cart)=  0.00000005 RMS(Int)=  0.00025590
 Variable       Old X    -DE/DX   Delta X   Delta X   Delta X     New X
                                 (Linear)    (Quad)   (Total)
    R1        1.83269   0.00079   0.00002   0.00028   0.00030   1.83299
    R2        2.58338  -0.00143   0.00015  -0.00865  -0.00850   2.57489
    R3        2.87082   0.00042  -0.00022   0.00953   0.00932   2.88014
    R4        2.27734   0.00071  -0.00002   0.00138   0.00136   2.27870
    R5        2.06831   0.00023   0.00003  -0.00080  -0.00077   2.06754
    R6        2.06851   0.00002  -0.00001   0.00047   0.00046   2.06897
    R7        2.06760   0.00011   0.00003  -0.00127  -0.00124   2.06636
    A1        1.93225   0.00093   0.00013  -0.00097  -0.00085   1.93140
    A2        2.04071   0.00000  -0.00010   0.00384   0.00304   2.04375
    A3        2.08702   0.00033  -0.00010   0.00644   0.00564   2.09265
    A4        2.15536  -0.00032   0.00020  -0.00941  -0.00990   2.14546
    A5        1.89535   0.00008   0.00014  -0.00473  -0.00460   1.89076
    A6        1.99629  -0.00007  -0.00005   0.00078   0.00073   1.99702
    A7        1.89670  -0.00047   0.00013  -0.00804  -0.00792   1.88877
    A8        1.89893   0.00000  -0.00006   0.00255   0.00249   1.90142
    A9        1.87274   0.00025  -0.00011   0.00621   0.00608   1.87882
   A10        1.90006   0.00024  -0.00006   0.00366   0.00360   1.90365
    D1        0.00457  -0.00031  -0.00008  -0.02892  -0.02924  -0.02468
    D2        3.13206   0.00052   0.00014   0.03795   0.03833  -3.11279
    D3       -2.09586   0.00046   0.00008   0.03688   0.03687  -2.05899
    D4        0.02858   0.00047   0.00007   0.03718   0.03716   0.06574
    D5        2.15547   0.00038   0.00006   0.03645   0.03642   2.19189
    D6        1.06043  -0.00041  -0.00015  -0.03300  -0.03306   1.02737
    D7       -3.09831  -0.00040  -0.00016  -0.03270  -0.03277  -3.13108
    D8       -0.97142  -0.00049  -0.00017  -0.03343  -0.03352  -1.00494
         Item               Value     Threshold  Converged?
 Maximum Force            0.001425     0.000450     NO 
 RMS     Force            0.000504     0.000300     NO 
 Maximum Displacement     0.042738     0.001800     NO 
 RMS     Displacement     0.013060     0.001200     NO 
 Predicted change in Energy=-7.428636D-05
 GradGradGradGradGradGradGradGradGradGradGradGradGradGradGradGradGradGrad

                          Input orientation:                          
 ---------------------------------------------------------------------
 Center     Atomic      Atomic             Coordinates (Angstroms)
 Number     Number       Type             X           Y           Z
 ---------------------------------------------------------------------
      1          8           0        0.919475    0.982530    0.008181
      2          1           0        0.382775    1.790492    0.011321
      3          6           0        0.123667   -0.123168   -0.018712
      4          6           0       -1.383127    0.105420   -0.004345
      5          1           0       -1.791673   -0.350162    0.902614
      6          1           0       -1.681583    1.158246   -0.038693
      7          1           0       -1.816338   -0.416905   -0.861775
      8          8           0        0.620176   -1.221811    0.003680
 ---------------------------------------------------------------------
                    Distance matrix (angstroms):
                    1          2          3          4          5
     1  O    0.000000
     2  H    0.969979   0.000000
     3  C    1.362571   1.931355   0.000000
     4  C    2.464031   2.440926   1.524102   0.000000
     5  H    3.150619   3.178840   2.137498   1.094094   0.000000
     6  H    2.607408   2.159586   2.213900   1.094851   1.781425
     7  H    3.193730   3.235892   2.135570   1.093472   1.765823
     8  O    2.224572   3.021653   1.205836   2.403087   2.717512
                    6          7          8
     6  H    0.000000
     7  H    1.782337   0.000000
     8  O    3.311278   2.708041   0.000000
 Stoichiometry    C2H4O2
 Framework group  C1[X(C2H4O2)]
 Deg. of freedom    18
 Full point group                 C1      NOp   1
 Largest Abelian subgroup         C1      NOp   1
 Largest concise Abelian subgroup C1      NOp   1
                         Standard orientation:                         
 ---------------------------------------------------------------------
 Center     Atomic      Atomic             Coordinates (Angstroms)
 Number     Number       Type             X           Y           Z
 ---------------------------------------------------------------------
      1          8           0       -0.973253   -0.928562    0.003018
      2          1           0       -0.478946   -1.763133    0.006310
      3          6           0       -0.121386    0.134680   -0.017971
      4          6           0        1.371544   -0.171346    0.001851
      5          1           0        1.799302    0.260513    0.911555
      6          1           0        1.615455   -1.238083   -0.033899
      7          1           0        1.834638    0.329875   -0.852551
      8          8           0       -0.560672    1.257415    0.005145
 ---------------------------------------------------------------------
 Rotational constants (GHZ):     10.9918563      9.4184252      5.2379083
 Standard basis: 6-31+G(d) (6D, 7F)
 There are    84 symmetry adapted basis functions of A   symmetry.
 Integral buffers will be    262144 words long.
 Raffenetti 2 integral format.
 Two-electron integral symmetry is turned on.
    84 basis functions,   144 primitive gaussians,    84 cartesian basis functions
    16 alpha electrons       16 beta electrons
       nuclear repulsion energy       120.2915731410 Hartrees.
 NAtoms=    8 NActive=    8 NUniq=    8 SFac= 7.50D-01 NAtFMM=   80 NAOKFM=F Big=F
 One-electron integrals computed using PRISM.
 NBasis=    84 RedAO= T  NBF=    84
 NBsUse=    84 1.00D-06 NBFU=    84
 Initial guess read from the read-write file.
 B after Tr=     0.000000    0.000000    0.000000
         Rot=    1.000000    0.000000    0.000000    0.000000 Ang=   0.00 deg.
 Initial guess orbital symmetries:
       Occupied  (A) (A) (A) (A) (A) (A) (A) (A) (A) (A) (A) (A)
                 (A) (A) (A) (A)
       Virtual   (A) (A) (A) (A) (A) (A) (A) (A) (A) (A) (A) (A)
                 (A) (A) (A) (A) (A) (A) (A) (A) (A) (A) (A) (A)
                 (A) (A) (A) (A) (A) (A) (A) (A) (A) (A) (A) (A)
                 (A) (A) (A) (A) (A) (A) (A) (A) (A) (A) (A) (A)
                 (A) (A) (A) (A) (A) (A) (A) (A) (A) (A) (A) (A)
                 (A) (A) (A) (A) (A) (A) (A) (A)
 Harris functional with IExCor=  402 diagonalized for initial guess.
 ExpMin= 4.38D-02 ExpMax= 5.48D+03 ExpMxC= 8.25D+02 IAcc=2 IRadAn=         0 AccDes= 0.00D+00
 HarFok:  IExCor=  402 AccDes= 0.00D+00 IRadAn=         0 IDoV= 1
 ScaDFX=  1.000000  1.000000  1.000000  1.000000
 FoFCou: FMM=F IPFlag=           0 FMFlag=      100000 FMFlg1=           0
         NFxFlg=           0 DoJE=T BraDBF=F KetDBF=T FulRan=T
         Omega=  0.000000  0.000000  1.000000  0.000000  0.000000 ICntrl=     500 IOpCl=  0
         NMat0=    1 NMatS0=    1 NMatT0=    0 NMatD0=    1 NMtDS0=    0 NMtDT0=    0
         I1Cent=           4 NGrid=           0.
 Petite list used in FoFCou.
 Requested convergence on RMS density matrix=1.00D-08 within 128 cycles.
 Requested convergence on MAX density matrix=1.00D-06.
 Requested convergence on             energy=1.00D-06.
 No special actions if energy rises.
 Keep R1 ints in memory in canonical form, NReq=7383353.
 SCF Done:  E(RB3LYP) =  -229.085387549     A.U. after   10 cycles
             Convg  =    0.4900D-08             -V/T =  2.0093
 Calling FoFJK, ICntrl=      2127 FMM=F ISym2X=0 I1Cent= 0 IOpClX= 0 NMat=1 NMatS=1 NMatT=0.
 ***** Axes restored to original set *****
 -------------------------------------------------------------------
 Center     Atomic                   Forces (Hartrees/Bohr)
 Number     Number              X              Y              Z
 -------------------------------------------------------------------
      1        8           0.000153900    0.000030424   -0.001517412
      2        1           0.000149050    0.000878748   -0.000384222
      3        6          -0.002548280   -0.001267051    0.007169601
      4        6           0.002343766    0.000418239   -0.002169445
      5        1           0.000016681   -0.000120546    0.000188122
      6        1           0.000002253   -0.000104206   -0.000232751
      7        1          -0.000982767   -0.000073386   -0.000163591
      8        8           0.000865397    0.000237777   -0.002890302
 -------------------------------------------------------------------
 Cartesian Forces:  Max     0.007169601 RMS     0.001864344

 GradGradGradGradGradGradGradGradGradGradGradGradGradGradGradGradGradGrad
 Berny optimization.
 Using GEDIIS/GDIIS optimizer.
 Internal  Forces:  Max     0.001574258 RMS     0.000933425
 Search for a local minimum.
 Step number   4 out of a maximum of   35
 All quantities printed in internal units (Hartrees-Bohrs-Radians)
 Mixed Optimization -- En-DIIS/RFO-DIIS
 Swaping is turned off.
 Update second derivatives using D2CorX and points    1    2    3    4
 DE=  1.25D-04 DEPred=-7.43D-05 R=-1.68D+00
 Trust test=-1.68D+00 RLast= 1.01D-01 DXMaxT set to 1.80D-01
     Eigenvalues ---    0.00846   0.01895   0.03946   0.06990   0.07788
     Eigenvalues ---    0.09067   0.16199   0.16246   0.16575   0.19319
     Eigenvalues ---    0.25552   0.30970   0.33304   0.33432   0.34292
     Eigenvalues ---    0.44687   0.51536   1.030281000.000001000.00000
     Eigenvalues --- 1000.000001000.000001000.000001000.000001000.00000
 En-DIIS/RFO-DIIS IScMMF=        0 using points:     4    3
 RFO step:  Lambda=-7.76312355D-05.
 DIIS coeffs:      0.27012      0.72988
 Iteration  1 RMS(Cart)=  0.00925897 RMS(Int)=  0.00016658
 Iteration  2 RMS(Cart)=  0.00021180 RMS(Int)=  0.00004957
 Iteration  3 RMS(Cart)=  0.00000001 RMS(Int)=  0.00004957
 Variable       Old X    -DE/DX   Delta X   Delta X   Delta X     New X
                                  (DIIS)     (GDIIS)  (Total)
    R1        1.83299   0.00065  -0.00022   0.00141   0.00119   1.83418
    R2        2.57489   0.00088   0.00620  -0.00167   0.00453   2.57942
    R3        2.88014  -0.00137  -0.00680  -0.00012  -0.00692   2.87321
    R4        2.27870   0.00009  -0.00099   0.00052  -0.00047   2.27823
    R5        2.06754   0.00020   0.00056   0.00064   0.00120   2.06874
    R6        2.06897  -0.00009  -0.00033  -0.00003  -0.00037   2.06860
    R7        2.06636   0.00055   0.00090   0.00064   0.00154   2.06790
    A1        1.93140   0.00110   0.00062   0.00588   0.00649   1.93789
    A2        2.04375  -0.00038  -0.00222  -0.00043  -0.00251   2.04124
    A3        2.09265  -0.00079  -0.00412   0.00015  -0.00383   2.08882
    A4        2.14546   0.00129   0.00723   0.00029   0.00765   2.15312
    A5        1.89076  -0.00032   0.00335  -0.00011   0.00325   1.89400
    A6        1.99702  -0.00017  -0.00053  -0.00076  -0.00129   1.99573
    A7        1.88877   0.00125   0.00578  -0.00008   0.00571   1.89448
    A8        1.90142   0.00011  -0.00182   0.00002  -0.00180   1.89962
    A9        1.87882  -0.00037  -0.00444   0.00087  -0.00356   1.87525
   A10        1.90365  -0.00051  -0.00262   0.00016  -0.00246   1.90119
    D1       -0.02468   0.00090   0.02134  -0.00033   0.02106  -0.00362
    D2       -3.11279  -0.00157  -0.02798  -0.00048  -0.02850  -3.14130
    D3       -2.05899  -0.00105  -0.02691   0.00352  -0.02338  -2.08237
    D4        0.06574  -0.00126  -0.02713   0.00295  -0.02416   0.04158
    D5        2.19189  -0.00111  -0.02658   0.00259  -0.02398   2.16791
    D6        1.02737   0.00143   0.02413   0.00366   0.02778   1.05515
    D7       -3.13108   0.00122   0.02392   0.00309   0.02699  -3.10409
    D8       -1.00494   0.00137   0.02446   0.00273   0.02718  -0.97776
         Item               Value     Threshold  Converged?
 Maximum Force            0.001574     0.000450     NO 
 RMS     Force            0.000933     0.000300     NO 
 Maximum Displacement     0.030474     0.001800     NO 
 RMS     Displacement     0.009283     0.001200     NO 
 Predicted change in Energy=-1.501147D-04
 GradGradGradGradGradGradGradGradGradGradGradGradGradGradGradGradGradGrad

                          Input orientation:                          
 ---------------------------------------------------------------------
 Center     Atomic      Atomic             Coordinates (Angstroms)
 Number     Number       Type             X           Y           Z
 ---------------------------------------------------------------------
      1          8           0        0.917152    0.983001    0.004106
      2          1           0        0.384107    1.794138    0.005531
      3          6           0        0.121503   -0.126069   -0.002586
      4          6           0       -1.381439    0.103930   -0.001483
      5          1           0       -1.802163   -0.351144    0.900919
      6          1           0       -1.676789    1.157401   -0.036762
      7          1           0       -1.813581   -0.414943   -0.862579
      8          8           0        0.624583   -1.221670   -0.004874
 ---------------------------------------------------------------------
                    Distance matrix (angstroms):
                    1          2          3          4          5
     1  O    0.000000
     2  H    0.970609   0.000000
     3  C    1.364969   1.938097   0.000000
     4  C    2.460959   2.444177   1.520439   0.000000
     5  H    3.158939   3.191196   2.137164   1.094728   0.000000
     6  H    2.600119   2.157432   2.209597   1.094658   1.780638
     7  H    3.187836   3.234731   2.137191   1.094287   1.764688
     8  O    2.224018   3.025398   1.205586   2.404445   2.732649
                    6          7          8
     6  H    0.000000
     7  H    1.781277   0.000000
     8  O    3.310183   2.707603   0.000000
 Stoichiometry    C2H4O2
 Framework group  C1[X(C2H4O2)]
 Deg. of freedom    18
 Full point group                 C1      NOp   1
 Largest Abelian subgroup         C1      NOp   1
 Largest concise Abelian subgroup C1      NOp   1
                         Standard orientation:                         
 ---------------------------------------------------------------------
 Center     Atomic      Atomic             Coordinates (Angstroms)
 Number     Number       Type             X           Y           Z
 ---------------------------------------------------------------------
      1          8           0       -0.965860   -0.934625    0.000427
      2          1           0       -0.471116   -1.769675   -0.000945
      3          6           0       -0.119486    0.136257   -0.001429
      4          6           0        1.371131   -0.163398   -0.000222
      5          1           0        1.811802    0.268140    0.904220
      6          1           0        1.617197   -1.229321   -0.039396
      7          1           0        1.827664    0.338125   -0.859009
      8          8           0       -0.571067    1.254072    0.000203
 ---------------------------------------------------------------------
 Rotational constants (GHZ):     10.9852136      9.4277362      5.2385869
 Standard basis: 6-31+G(d) (6D, 7F)
 There are    84 symmetry adapted basis functions of A   symmetry.
 Integral buffers will be    262144 words long.
 Raffenetti 2 integral format.
 Two-electron integral symmetry is turned on.
    84 basis functions,   144 primitive gaussians,    84 cartesian basis functions
    16 alpha electrons       16 beta electrons
       nuclear repulsion energy       120.2862111316 Hartrees.
 NAtoms=    8 NActive=    8 NUniq=    8 SFac= 7.50D-01 NAtFMM=   80 NAOKFM=F Big=F
 One-electron integrals computed using PRISM.
 NBasis=    84 RedAO= T  NBF=    84
 NBsUse=    84 1.00D-06 NBFU=    84
 Initial guess read from the read-write file.
 B after Tr=     0.000000    0.000000    0.000000
         Rot=    1.000000    0.000000    0.000000    0.000000 Ang=   0.00 deg.
 Initial guess orbital symmetries:
       Occupied  (A) (A) (A) (A) (A) (A) (A) (A) (A) (A) (A) (A)
                 (A) (A) (A) (A)
       Virtual   (A) (A) (A) (A) (A) (A) (A) (A) (A) (A) (A) (A)
                 (A) (A) (A) (A) (A) (A) (A) (A) (A) (A) (A) (A)
                 (A) (A) (A) (A) (A) (A) (A) (A) (A) (A) (A) (A)
                 (A) (A) (A) (A) (A) (A) (A) (A) (A) (A) (A) (A)
                 (A) (A) (A) (A) (A) (A) (A) (A) (A) (A) (A) (A)
                 (A) (A) (A) (A) (A) (A) (A) (A)
 Harris functional with IExCor=  402 diagonalized for initial guess.
 ExpMin= 4.38D-02 ExpMax= 5.48D+03 ExpMxC= 8.25D+02 IAcc=2 IRadAn=         0 AccDes= 0.00D+00
 HarFok:  IExCor=  402 AccDes= 0.00D+00 IRadAn=         0 IDoV= 1
 ScaDFX=  1.000000  1.000000  1.000000  1.000000
 FoFCou: FMM=F IPFlag=           0 FMFlag=      100000 FMFlg1=           0
         NFxFlg=           0 DoJE=T BraDBF=F KetDBF=T FulRan=T
         Omega=  0.000000  0.000000  1.000000  0.000000  0.000000 ICntrl=     500 IOpCl=  0
         NMat0=    1 NMatS0=    1 NMatT0=    0 NMatD0=    1 NMtDS0=    0 NMtDT0=    0
         I1Cent=           4 NGrid=           0.
 Petite list used in FoFCou.
 Requested convergence on RMS density matrix=1.00D-08 within 128 cycles.
 Requested convergence on MAX density matrix=1.00D-06.
 Requested convergence on             energy=1.00D-06.
 No special actions if energy rises.
 Keep R1 ints in memory in canonical form, NReq=7383353.
 SCF Done:  E(RB3LYP) =  -229.085537708     A.U. after   10 cycles
             Convg  =    0.3554D-08             -V/T =  2.0093
 Calling FoFJK, ICntrl=      2127 FMM=F ISym2X=0 I1Cent= 0 IOpClX= 0 NMat=1 NMatS=1 NMatT=0.
 ***** Axes restored to original set *****
 -------------------------------------------------------------------
 Center     Atomic                   Forces (Hartrees/Bohr)
 Number     Number              X              Y              Z
 -------------------------------------------------------------------
      1        8          -0.000223861   -0.000409396    0.000032546
      2        1           0.000025793   -0.000037200   -0.000011274
      3        6           0.000055952    0.000574117    0.000060781
      4        6           0.000017960   -0.000055105   -0.000049185
      5        1          -0.000012856    0.000033057    0.000021432
      6        1           0.000030468   -0.000004205   -0.000024726
      7        1          -0.000019714   -0.000015549    0.000034844
      8        8           0.000126257   -0.000085719   -0.000064419
 -------------------------------------------------------------------
 Cartesian Forces:  Max     0.000574117 RMS     0.000157550

 GradGradGradGradGradGradGradGradGradGradGradGradGradGradGradGradGradGrad
 Berny optimization.
 Using GEDIIS/GDIIS optimizer.
 Internal  Forces:  Max     0.000476787 RMS     0.000107533
 Search for a local minimum.
 Step number   5 out of a maximum of   35
 All quantities printed in internal units (Hartrees-Bohrs-Radians)
 Mixed Optimization -- En-DIIS/RFO-DIIS
 Swaping is turned off.
 Update second derivatives using D2CorX and points    1    2    3    4    5
 DE= -1.50D-04 DEPred=-1.50D-04 R= 1.00D+00
 SS=  1.41D+00  RLast= 7.39D-02 DXNew= 3.0349D-01 2.2173D-01
 Trust test= 1.00D+00 RLast= 7.39D-02 DXMaxT set to 2.22D-01
     Eigenvalues ---    0.00820   0.01895   0.04705   0.07029   0.07734
     Eigenvalues ---    0.13584   0.15560   0.16299   0.16546   0.21420
     Eigenvalues ---    0.25953   0.31138   0.33295   0.33317   0.34301
     Eigenvalues ---    0.42133   0.51353   1.028151000.000001000.00000
     Eigenvalues --- 1000.000001000.000001000.000001000.000001000.00000
 En-DIIS/RFO-DIIS IScMMF=        0 using points:     5    4    3
 RFO step:  Lambda=-5.19224149D-07.
 DIIS coeffs:      1.06776     -0.01909     -0.04867
 Iteration  1 RMS(Cart)=  0.00210239 RMS(Int)=  0.00000414
 Iteration  2 RMS(Cart)=  0.00000232 RMS(Int)=  0.00000352
 Iteration  3 RMS(Cart)=  0.00000000 RMS(Int)=  0.00000352
 Variable       Old X    -DE/DX   Delta X   Delta X   Delta X     New X
                                  (DIIS)     (GDIIS)  (Total)
    R1        1.83418  -0.00004   0.00010  -0.00012  -0.00003   1.83416
    R2        2.57942  -0.00048  -0.00011  -0.00125  -0.00136   2.57806
    R3        2.87321  -0.00002  -0.00002   0.00014   0.00013   2.87334
    R4        2.27823   0.00013   0.00003   0.00016   0.00019   2.27842
    R5        2.06874   0.00001   0.00004  -0.00001   0.00004   2.06877
    R6        2.06860  -0.00001   0.00000  -0.00003  -0.00004   2.06857
    R7        2.06790  -0.00001   0.00004  -0.00009  -0.00004   2.06786
    A1        1.93789   0.00000   0.00040  -0.00018   0.00022   1.93812
    A2        2.04124   0.00009  -0.00002   0.00051   0.00048   2.04172
    A3        2.08882  -0.00014   0.00001  -0.00047  -0.00047   2.08835
    A4        2.15312   0.00005   0.00004  -0.00003  -0.00001   2.15311
    A5        1.89400   0.00002   0.00000   0.00003   0.00003   1.89403
    A6        1.99573  -0.00005  -0.00005  -0.00035  -0.00040   1.99533
    A7        1.89448   0.00004   0.00000   0.00012   0.00013   1.89461
    A8        1.89962   0.00000   0.00000  -0.00001  -0.00001   1.89961
    A9        1.87525  -0.00002   0.00005   0.00009   0.00014   1.87540
   A10        1.90119   0.00001   0.00001   0.00014   0.00015   1.90133
    D1       -0.00362   0.00000   0.00000  -0.00029  -0.00029  -0.00391
    D2       -3.14130  -0.00002  -0.00007  -0.00036  -0.00042   3.14147
    D3       -2.08237   0.00003   0.00021   0.00391   0.00412  -2.07826
    D4        0.04158   0.00002   0.00017   0.00369   0.00386   0.04544
    D5        2.16791   0.00002   0.00015   0.00372   0.00386   2.17177
    D6        1.05515   0.00005   0.00027   0.00397   0.00425   1.05939
    D7       -3.10409   0.00003   0.00023   0.00375   0.00399  -3.10010
    D8       -0.97776   0.00003   0.00021   0.00378   0.00399  -0.97376
         Item               Value     Threshold  Converged?
 Maximum Force            0.000477     0.000450     NO 
 RMS     Force            0.000108     0.000300     YES
 Maximum Displacement     0.004880     0.001800     NO 
 RMS     Displacement     0.002102     0.001200     NO 
 Predicted change in Energy=-7.418189D-07
 GradGradGradGradGradGradGradGradGradGradGradGradGradGradGradGradGradGrad

                          Input orientation:                          
 ---------------------------------------------------------------------
 Center     Atomic      Atomic             Coordinates (Angstroms)
 Number     Number       Type             X           Y           Z
 ---------------------------------------------------------------------
      1          8           0        0.916965    0.982561    0.005286
      2          1           0        0.384290    1.793922    0.007617
      3          6           0        0.121485   -0.125737   -0.003101
      4          6           0       -1.381582    0.103893   -0.001760
      5          1           0       -1.801725   -0.348953    0.902056
      6          1           0       -1.676788    1.157305   -0.039345
      7          1           0       -1.814151   -0.417044   -0.861366
      8          8           0        0.624877   -1.221303   -0.007114
 ---------------------------------------------------------------------
                    Distance matrix (angstroms):
                    1          2          3          4          5
     1  O    0.000000
     2  H    0.970595   0.000000
     3  C    1.364252   1.937594   0.000000
     4  C    2.460777   2.444297   1.520507   0.000000
     5  H    3.157277   3.189137   2.137257   1.094748   0.000000
     6  H    2.600016   2.157668   2.209366   1.094639   1.780634
     7  H    3.188883   3.236765   2.137327   1.094265   1.764780
     8  O    2.223170   3.024843   1.205688   2.404589   2.734224
                    6          7          8
     6  H    0.000000
     7  H    1.781337   0.000000
     8  O    3.310057   2.706554   0.000000
 Stoichiometry    C2H4O2
 Framework group  C1[X(C2H4O2)]
 Deg. of freedom    18
 Full point group                 C1      NOp   1
 Largest Abelian subgroup         C1      NOp   1
 Largest concise Abelian subgroup C1      NOp   1
                         Standard orientation:                         
 ---------------------------------------------------------------------
 Center     Atomic      Atomic             Coordinates (Angstroms)
 Number     Number       Type             X           Y           Z
 ---------------------------------------------------------------------
      1          8           0       -0.964801   -0.935053    0.000458
      2          1           0       -0.469676   -1.769860   -0.001227
      3          6           0       -0.119608    0.135849   -0.001395
      4          6           0        1.371424   -0.162085   -0.000262
      5          1           0        1.810934    0.266277    0.906275
      6          1           0        1.618328   -1.227645   -0.043334
      7          1           0        1.828096    0.343191   -0.856744
      8          8           0       -0.572521    1.253235    0.000164
 ---------------------------------------------------------------------
 Rotational constants (GHZ):     10.9917614      9.4270175      5.2398711
 Standard basis: 6-31+G(d) (6D, 7F)
 There are    84 symmetry adapted basis functions of A   symmetry.
 Integral buffers will be    262144 words long.
 Raffenetti 2 integral format.
 Two-electron integral symmetry is turned on.
    84 basis functions,   144 primitive gaussians,    84 cartesian basis functions
    16 alpha electrons       16 beta electrons
       nuclear repulsion energy       120.3003628192 Hartrees.
 NAtoms=    8 NActive=    8 NUniq=    8 SFac= 7.50D-01 NAtFMM=   80 NAOKFM=F Big=F
 One-electron integrals computed using PRISM.
 NBasis=    84 RedAO= T  NBF=    84
 NBsUse=    84 1.00D-06 NBFU=    84
 Initial guess read from the read-write file.
 B after Tr=     0.000000    0.000000    0.000000
         Rot=    1.000000    0.000000    0.000000    0.000000 Ang=   0.00 deg.
 Initial guess orbital symmetries:
       Occupied  (A) (A) (A) (A) (A) (A) (A) (A) (A) (A) (A) (A)
                 (A) (A) (A) (A)
       Virtual   (A) (A) (A) (A) (A) (A) (A) (A) (A) (A) (A) (A)
                 (A) (A) (A) (A) (A) (A) (A) (A) (A) (A) (A) (A)
                 (A) (A) (A) (A) (A) (A) (A) (A) (A) (A) (A) (A)
                 (A) (A) (A) (A) (A) (A) (A) (A) (A) (A) (A) (A)
                 (A) (A) (A) (A) (A) (A) (A) (A) (A) (A) (A) (A)
                 (A) (A) (A) (A) (A) (A) (A) (A)
 Requested convergence on RMS density matrix=1.00D-08 within 128 cycles.
 Requested convergence on MAX density matrix=1.00D-06.
 Requested convergence on             energy=1.00D-06.
 No special actions if energy rises.
 Keep R1 ints in memory in canonical form, NReq=7383353.
 SCF Done:  E(RB3LYP) =  -229.085538826     A.U. after    8 cycles
             Convg  =    0.3974D-08             -V/T =  2.0093
 Calling FoFJK, ICntrl=      2127 FMM=F ISym2X=0 I1Cent= 0 IOpClX= 0 NMat=1 NMatS=1 NMatT=0.
 ***** Axes restored to original set *****
 -------------------------------------------------------------------
 Center     Atomic                   Forces (Hartrees/Bohr)
 Number     Number              X              Y              Z
 -------------------------------------------------------------------
      1        8          -0.000040498    0.000030805    0.000052378
      2        1           0.000027347   -0.000008216   -0.000006030
      3        6          -0.000058863    0.000097095   -0.000011679
      4        6           0.000080166   -0.000031926   -0.000031725
      5        1          -0.000015792    0.000035758    0.000018656
      6        1          -0.000004134    0.000007946   -0.000024939
      7        1          -0.000011191   -0.000018122    0.000043345
      8        8           0.000022965   -0.000113340   -0.000040007
 -------------------------------------------------------------------
 Cartesian Forces:  Max     0.000113340 RMS     0.000044511

 GradGradGradGradGradGradGradGradGradGradGradGradGradGradGradGradGradGrad
 Berny optimization.
 Using GEDIIS/GDIIS optimizer.
 Internal  Forces:  Max     0.000111644 RMS     0.000032501
 Search for a local minimum.
 Step number   6 out of a maximum of   35
 All quantities printed in internal units (Hartrees-Bohrs-Radians)
 Mixed Optimization -- En-DIIS/RFO-DIIS
 Swaping is turned off.
 Update second derivatives using D2CorX and points    1    2    3    4    5
                                                      6
 DE= -1.12D-06 DEPred=-7.42D-07 R= 1.51D+00
 SS=  1.41D+00  RLast= 9.98D-03 DXNew= 3.7290D-01 2.9929D-02
 Trust test= 1.51D+00 RLast= 9.98D-03 DXMaxT set to 2.22D-01
     Eigenvalues ---    0.00268   0.01893   0.04801   0.07019   0.07765
     Eigenvalues ---    0.14007   0.15753   0.16532   0.16585   0.21492
     Eigenvalues ---    0.26896   0.32492   0.33273   0.33591   0.34315
     Eigenvalues ---    0.51384   0.58923   1.024951000.000001000.00000
     Eigenvalues --- 1000.000001000.000001000.000001000.000001000.00000
 En-DIIS/RFO-DIIS IScMMF=        0 using points:     6    5    4    3
 RFO step:  Lambda=-1.46988327D-07.
 DIIS coeffs:      1.87805     -0.77709     -0.02710     -0.07386
 Iteration  1 RMS(Cart)=  0.00610817 RMS(Int)=  0.00001908
 Iteration  2 RMS(Cart)=  0.00001980 RMS(Int)=  0.00000509
 Iteration  3 RMS(Cart)=  0.00000000 RMS(Int)=  0.00000509
 Variable       Old X    -DE/DX   Delta X   Delta X   Delta X     New X
                                  (DIIS)     (GDIIS)  (Total)
    R1        1.83416  -0.00002   0.00012  -0.00014  -0.00002   1.83414
    R2        2.57806   0.00001  -0.00136  -0.00029  -0.00166   2.57641
    R3        2.87334  -0.00005   0.00010  -0.00015  -0.00004   2.87330
    R4        2.27842   0.00011   0.00022   0.00023   0.00045   2.27887
    R5        2.06877   0.00001   0.00010   0.00001   0.00011   2.06888
    R6        2.06857   0.00001  -0.00003   0.00005   0.00001   2.06858
    R7        2.06786  -0.00002   0.00003  -0.00016  -0.00013   2.06773
    A1        1.93812   0.00003   0.00079   0.00009   0.00088   1.93900
    A2        2.04172  -0.00002   0.00039   0.00008   0.00046   2.04218
    A3        2.08835   0.00003  -0.00038   0.00012  -0.00028   2.08808
    A4        2.15311  -0.00002   0.00004  -0.00021  -0.00019   2.15292
    A5        1.89403   0.00002   0.00001   0.00012   0.00013   1.89416
    A6        1.99533   0.00000  -0.00043  -0.00004  -0.00047   1.99486
    A7        1.89461   0.00002   0.00010   0.00024   0.00034   1.89495
    A8        1.89961  -0.00002  -0.00001  -0.00024  -0.00024   1.89937
    A9        1.87540  -0.00002   0.00022  -0.00015   0.00006   1.87546
   A10        1.90133   0.00000   0.00015   0.00006   0.00021   1.90154
    D1       -0.00391  -0.00001  -0.00029  -0.00074  -0.00103  -0.00494
    D2        3.14147   0.00000  -0.00041  -0.00013  -0.00054   3.14093
    D3       -2.07826   0.00004   0.00398   0.00818   0.01216  -2.06610
    D4        0.04544   0.00003   0.00369   0.00794   0.01163   0.05706
    D5        2.17177   0.00004   0.00366   0.00817   0.01183   2.18360
    D6        1.05939   0.00003   0.00409   0.00755   0.01165   1.07104
    D7       -3.10010   0.00002   0.00381   0.00731   0.01111  -3.08899
    D8       -0.97376   0.00003   0.00378   0.00754   0.01132  -0.96245
         Item               Value     Threshold  Converged?
 Maximum Force            0.000112     0.000450     YES
 RMS     Force            0.000033     0.000300     YES
 Maximum Displacement     0.014301     0.001800     NO 
 RMS     Displacement     0.006109     0.001200     NO 
 Predicted change in Energy=-1.176020D-06
 GradGradGradGradGradGradGradGradGradGradGradGradGradGradGradGradGradGrad

                          Input orientation:                          
 ---------------------------------------------------------------------
 Center     Atomic      Atomic             Coordinates (Angstroms)
 Number     Number       Type             X           Y           Z
 ---------------------------------------------------------------------
      1          8           0        0.916566    0.982091    0.008724
      2          1           0        0.384715    1.793965    0.013872
      3          6           0        0.121462   -0.125347   -0.004899
      4          6           0       -1.381659    0.103765   -0.002622
      5          1           0       -1.800216   -0.342551    0.905238
      6          1           0       -1.676805    1.156939   -0.046912
      7          1           0       -1.815812   -0.423192   -0.857660
      8          8           0        0.625121   -1.221027   -0.013468
 ---------------------------------------------------------------------
                    Distance matrix (angstroms):
                    1          2          3          4          5
     1  O    0.000000
     2  H    0.970584   0.000000
     3  C    1.363376   1.937373   0.000000
     4  C    2.460370   2.444815   1.520483   0.000000
     5  H    3.152669   3.183263   2.137375   1.094805   0.000000
     6  H    2.599855   2.158555   2.209024   1.094645   1.780531
     7  H    3.192386   3.243096   2.137509   1.094196   1.764810
     8  O    2.222422   3.024685   1.205927   2.404653   2.738247
                    6          7          8
     6  H    0.000000
     7  H    1.781418   0.000000
     8  O    3.309789   2.703211   0.000000
 Stoichiometry    C2H4O2
 Framework group  C1[X(C2H4O2)]
 Deg. of freedom    18
 Full point group                 C1      NOp   1
 Largest Abelian subgroup         C1      NOp   1
 Largest concise Abelian subgroup C1      NOp   1
                         Standard orientation:                         
 ---------------------------------------------------------------------
 Center     Atomic      Atomic             Coordinates (Angstroms)
 Number     Number       Type             X           Y           Z
 ---------------------------------------------------------------------
      1          8           0       -0.963621   -0.935476    0.000575
      2          1           0       -0.468618   -1.770341   -0.001784
      3          6           0       -0.119769    0.135366   -0.001589
      4          6           0        1.371597   -0.160766   -0.000347
      5          1           0        1.808573    0.257530    0.912165
      6          1           0        1.619403   -1.225608   -0.054690
      7          1           0        1.829940    0.354534   -0.849847
      8          8           0       -0.573912    1.252511    0.000146
 ---------------------------------------------------------------------
 Rotational constants (GHZ):     10.9970813      9.4278179      5.2413342
 Standard basis: 6-31+G(d) (6D, 7F)
 There are    84 symmetry adapted basis functions of A   symmetry.
 Integral buffers will be    262144 words long.
 Raffenetti 2 integral format.
 Two-electron integral symmetry is turned on.
    84 basis functions,   144 primitive gaussians,    84 cartesian basis functions
    16 alpha electrons       16 beta electrons
       nuclear repulsion energy       120.3152100556 Hartrees.
 NAtoms=    8 NActive=    8 NUniq=    8 SFac= 7.50D-01 NAtFMM=   80 NAOKFM=F Big=F
 One-electron integrals computed using PRISM.
 NBasis=    84 RedAO= T  NBF=    84
 NBsUse=    84 1.00D-06 NBFU=    84
 Initial guess read from the read-write file.
 B after Tr=     0.000000    0.000000    0.000000
         Rot=    1.000000    0.000000    0.000000    0.000000 Ang=   0.00 deg.
 Initial guess orbital symmetries:
       Occupied  (A) (A) (A) (A) (A) (A) (A) (A) (A) (A) (A) (A)
                 (A) (A) (A) (A)
       Virtual   (A) (A) (A) (A) (A) (A) (A) (A) (A) (A) (A) (A)
                 (A) (A) (A) (A) (A) (A) (A) (A) (A) (A) (A) (A)
                 (A) (A) (A) (A) (A) (A) (A) (A) (A) (A) (A) (A)
                 (A) (A) (A) (A) (A) (A) (A) (A) (A) (A) (A) (A)
                 (A) (A) (A) (A) (A) (A) (A) (A) (A) (A) (A) (A)
                 (A) (A) (A) (A) (A) (A) (A) (A)
 Requested convergence on RMS density matrix=1.00D-08 within 128 cycles.
 Requested convergence on MAX density matrix=1.00D-06.
 Requested convergence on             energy=1.00D-06.
 No special actions if energy rises.
 Keep R1 ints in memory in canonical form, NReq=7383353.
 SCF Done:  E(RB3LYP) =  -229.085540841     A.U. after    8 cycles
             Convg  =    0.7631D-08             -V/T =  2.0093
 Calling FoFJK, ICntrl=      2127 FMM=F ISym2X=0 I1Cent= 0 IOpClX= 0 NMat=1 NMatS=1 NMatT=0.
 ***** Axes restored to original set *****
 -------------------------------------------------------------------
 Center     Atomic                   Forces (Hartrees/Bohr)
 Number     Number              X              Y              Z
 -------------------------------------------------------------------
      1        8           0.000282876    0.000510294    0.000084376
      2        1          -0.000015908   -0.000022078   -0.000000741
      3        6          -0.000196300   -0.000603960   -0.000095574
      4        6           0.000080319    0.000030006   -0.000018794
      5        1          -0.000009202    0.000039363    0.000028998
      6        1          -0.000033011    0.000011467   -0.000028117
      7        1           0.000008653   -0.000029185    0.000048146
      8        8          -0.000117427    0.000064093   -0.000018294
 -------------------------------------------------------------------
 Cartesian Forces:  Max     0.000603960 RMS     0.000181932

 GradGradGradGradGradGradGradGradGradGradGradGradGradGradGradGradGradGrad
 Berny optimization.
 Using GEDIIS/GDIIS optimizer.
 Internal  Forces:  Max     0.000554648 RMS     0.000121994
 Search for a local minimum.
 Step number   7 out of a maximum of   35
 All quantities printed in internal units (Hartrees-Bohrs-Radians)
 Mixed Optimization -- En-DIIS/RFO-DIIS
 Swaping is turned off.
 Update second derivatives using D2CorX and points    1    2    3    4    5
                                                      6    7
 DE= -2.01D-06 DEPred=-1.18D-06 R= 1.71D+00
 SS=  1.41D+00  RLast= 2.86D-02 DXNew= 3.7290D-01 8.5700D-02
 Trust test= 1.71D+00 RLast= 2.86D-02 DXMaxT set to 2.22D-01
     Eigenvalues ---    0.00048   0.01893   0.04783   0.07021   0.07794
     Eigenvalues ---    0.13714   0.16497   0.16597   0.17118   0.22385
     Eigenvalues ---    0.27214   0.32239   0.33263   0.33610   0.34329
     Eigenvalues ---    0.51799   0.99846   1.434681000.000001000.00000
[...]
     2   1    -0.54  -0.02  -0.12    -0.04   0.00   0.59    -0.24   0.05   0.00
     3   6     0.15   0.00   0.05     0.01   0.00  -0.29     0.16  -0.14   0.01
     4   6     0.33  -0.05   0.00     0.02   0.00  -0.02    -0.36   0.02   0.00
     5   1     0.45  -0.13  -0.02    -0.44   0.11   0.16    -0.47   0.16  -0.02
     6   1     0.18  -0.08  -0.04     0.05  -0.02   0.27    -0.18   0.07   0.00
     7   1     0.32  -0.10  -0.04     0.45  -0.11   0.16    -0.51   0.17   0.02
     8   8    -0.28  -0.19  -0.02    -0.02  -0.02   0.12     0.03  -0.25   0.00
                     7                      8                      9
                     A                      A                      A
 Frequencies --  1008.2804              1065.4539              1199.4591
 Red. masses --     1.4823                 1.7246                 1.6809
 Frc consts  --     0.8879                 1.1535                 1.4248
 IR Inten    --     7.5961                10.0884                 4.7123
  Atom  AN      X      Y      Z        X      Y      Z        X      Y      Z
     1   8    -0.03  -0.06   0.00     0.00   0.00  -0.03    -0.02   0.08   0.00
     2   1    -0.31  -0.22   0.00     0.00   0.00   0.01     0.68   0.49   0.00
     3   6     0.10   0.02   0.00     0.00   0.00   0.19    -0.15  -0.09   0.00
     4   6    -0.04   0.15   0.00     0.00   0.00  -0.17     0.04   0.09   0.00
     5   1     0.18  -0.23   0.06    -0.64   0.01   0.15     0.18  -0.23   0.07
     6   1    -0.76  -0.01   0.01     0.06  -0.03   0.37    -0.22   0.01   0.01
     7   1     0.28  -0.24  -0.07     0.58   0.02   0.18     0.24  -0.22  -0.08
     8   8     0.03  -0.03   0.00     0.00   0.00  -0.03     0.05  -0.08   0.00
                    10                     11                     12
                     A                      A                      A
 Frequencies --  1310.2345              1421.0960              1494.1435
 Red. masses --     2.4160                 1.2188                 1.0453
 Frc consts  --     2.4436                 1.4502                 1.3749
 IR Inten    --   437.6217                30.4487                 8.9330
  Atom  AN      X      Y      Z        X      Y      Z        X      Y      Z
     1   8    -0.15  -0.06   0.00     0.01   0.00   0.00     0.00   0.00   0.00
     2   1     0.76   0.46   0.00     0.00   0.00   0.00     0.00   0.00  -0.02
     3   6     0.25   0.13   0.00    -0.02  -0.01   0.00    -0.01   0.00   0.03
     4   6    -0.05  -0.03   0.00     0.14   0.00   0.00     0.00  -0.01   0.05
     5   1    -0.17   0.13  -0.02    -0.55   0.01   0.31    -0.23   0.50  -0.08
     6   1    -0.03  -0.01  -0.02    -0.42  -0.12  -0.03    -0.06   0.03  -0.70
     7   1    -0.18   0.11   0.02    -0.53   0.03  -0.33     0.29  -0.33  -0.01
     8   8    -0.02  -0.06   0.00     0.00   0.01   0.00     0.00   0.00   0.00
                    13                     14                     15
                     A                      A                      A
 Frequencies --  1509.3624              1853.7354              3064.1813
 Red. masses --     1.0760                10.1381                 1.0360
 Frc consts  --     1.4442                20.5258                 5.7313
 IR Inten    --     7.4562               310.3574                 7.4657
  Atom  AN      X      Y      Z        X      Y      Z        X      Y      Z
     1   8     0.00  -0.01   0.00     0.04  -0.03   0.00     0.00   0.00   0.00
     2   1    -0.03  -0.03   0.00    -0.37  -0.23   0.00     0.00   0.00   0.00
     3   6     0.04   0.01   0.01    -0.32   0.66   0.00     0.00   0.00   0.00
     4   6    -0.04   0.05   0.01     0.04  -0.04   0.00     0.05  -0.02   0.00
     5   1    -0.16  -0.43   0.27    -0.07  -0.01   0.04    -0.21  -0.21  -0.47
     6   1     0.51   0.16  -0.10     0.20   0.01   0.01    -0.14   0.65   0.05
     7   1    -0.07  -0.52  -0.36    -0.10   0.02  -0.05    -0.20  -0.25   0.38
     8   8    -0.01   0.01   0.00     0.18  -0.42   0.00     0.00   0.00   0.00
                    16                     17                     18
                     A                      A                      A
 Frequencies --  3136.4775              3145.5160              3750.7509
 Red. masses --     1.1033                 1.1015                 1.0662
 Frc consts  --     6.3947                 6.4212                 8.8371
 IR Inten    --    12.6421                 3.8150                39.8141
  Atom  AN      X      Y      Z        X      Y      Z        X      Y      Z
     1   8     0.00   0.00   0.00     0.00   0.00   0.00     0.03  -0.05   0.00
     2   1     0.01   0.00   0.00     0.00   0.00   0.00    -0.50   0.86   0.00
     3   6     0.00   0.00   0.00     0.00   0.00   0.00     0.00   0.00   0.00
     4   6    -0.01  -0.08  -0.05    -0.01  -0.05   0.08     0.00   0.00   0.00
     5   1     0.29   0.26   0.62    -0.16  -0.16  -0.33     0.00   0.00   0.00
     6   1    -0.15   0.66   0.04    -0.07   0.29   0.03     0.00   0.01   0.00
     7   1     0.04   0.03  -0.09     0.36   0.42  -0.66     0.00   0.00   0.00
     8   8     0.00   0.00   0.00     0.00   0.00   0.00     0.00   0.00   0.00

 -------------------
 - Thermochemistry -
 -------------------
 Temperature   298.150 Kelvin.  Pressure   1.00000 Atm.
 Atom     1 has atomic number  8 and mass  15.99491
 Atom     2 has atomic number  1 and mass   1.00783
 Atom     3 has atomic number  6 and mass  12.00000
 Atom     4 has atomic number  6 and mass  12.00000
 Atom     5 has atomic number  1 and mass   1.00783
 Atom     6 has atomic number  1 and mass   1.00783
 Atom     7 has atomic number  1 and mass   1.00783
 Atom     8 has atomic number  8 and mass  15.99491
 Molecular mass:    60.02113 amu.
 Principal axes and moments of inertia in atomic units:
                           1         2         3
     Eigenvalues --   164.16183 191.40541 344.35876
           X            0.99955  -0.02998   0.00020
           Y            0.02998   0.99955   0.00010
           Z           -0.00020  -0.00010   1.00000
 This molecule is an asymmetric top.
 Rotational symmetry number  1.
 Rotational temperatures (Kelvin)      0.52761     0.45251     0.25152
 Rotational constants (GHZ):          10.99367     9.42889     5.24087
    1 imaginary frequencies ignored.
 Zero-point vibrational energy     161083.1 (Joules/Mol)
                                   38.49977 (Kcal/Mol)
 Warning -- explicit consideration of   4 degrees of freedom as
           vibrations may cause significant error
 Vibrational temperatures:    644.52   674.50   846.71   881.44  1229.29
          (Kelvin)           1450.69  1532.95  1725.75  1885.13  2044.64
                             2149.74  2171.63  2667.11  4408.67  4512.69
                             4525.69  5396.49
 
 Zero-point correction=                           0.061353 (Hartree/Particle)
 Thermal correction to Energy=                    0.065193
 Thermal correction to Enthalpy=                  0.066137
 Thermal correction to Gibbs Free Energy=         0.035266
 Sum of electronic and zero-point Energies=           -229.024194
 Sum of electronic and thermal Energies=              -229.020354
 Sum of electronic and thermal Enthalpies=            -229.019410
 Sum of electronic and thermal Free Energies=         -229.050281
 
                     E (Thermal)             CV                S
                      KCal/Mol        Cal/Mol-Kelvin    Cal/Mol-Kelvin
 Total                   40.909             12.569             64.973
 Electronic               0.000              0.000              0.000
 Translational            0.889              2.981             38.196
 Rotational               0.889              2.981             23.896
 Vibrational             39.132              6.607              2.881
 Vibration     1          0.807              1.365              0.802
 Vibration     2          0.826              1.319              0.741
 Vibration     3          0.946              1.056              0.470
 Vibration     4          0.972              1.005              0.428
                       Q            Log10(Q)             Ln(Q)
 Total Bot       0.600942D-16        -16.221167        -37.350618
 Total V=0       0.998457D+12         11.999329         27.629477
 Vib (Bot)       0.882990D-28        -28.054044        -64.596824
 Vib (Bot)    1  0.383443D+00         -0.416299         -0.958564
 Vib (Bot)    2  0.360162D+00         -0.443503         -1.021203
 Vib (Bot)    3  0.256732D+00         -0.590520         -1.359723
 Vib (Bot)    4  0.240564D+00         -0.618770         -1.424770
 Vib (V=0)       0.146708D+01          0.166453          0.383271
 Vib (V=0)    1  0.113010D+01          0.053118          0.122308
 Vib (V=0)    2  0.111621D+01          0.047746          0.109940
 Vib (V=0)    3  0.106206D+01          0.026149          0.060210
 Vib (V=0)    4  0.105486D+01          0.023195          0.053409
 Electronic      0.100000D+01          0.000000          0.000000
 Translational   0.182773D+08          7.261911         16.721169
 Rotational      0.372362D+05          4.570965         10.525036
 ***** Axes restored to original set *****
 -------------------------------------------------------------------
 Center     Atomic                   Forces (Hartrees/Bohr)
 Number     Number              X              Y              Z
 -------------------------------------------------------------------
      1        8           0.000161296    0.000027778    0.000081545
      2        1          -0.000086313    0.000223592   -0.000005614
      3        6           0.000006827   -0.000294003    0.000000846
      4        6           0.000007373    0.000022034   -0.000032645
      5        1          -0.000005571    0.000046886    0.000058021
      6        1          -0.000002246    0.000010890   -0.000045638
      7        1          -0.000015044   -0.000051330    0.000019140
      8        8          -0.000066321    0.000014152   -0.000075655
 -------------------------------------------------------------------
 Cartesian Forces:  Max     0.000294003 RMS     0.000091368

 GradGradGradGradGradGradGradGradGradGradGradGradGradGradGradGradGradGrad
 Berny optimization.
 Internal  Forces:  Max     0.000250991 RMS     0.000080291
 Search for a local minimum.
 Step number   1 out of a maximum of    2
 All quantities printed in internal units (Hartrees-Bohrs-Radians)
 Second derivative matrix not updated -- analytic derivatives used.
     Eigenvalues ---   -0.00061   0.01159   0.04632   0.05476   0.05956
     Eigenvalues ---    0.12522   0.14150   0.14217   0.16672   0.21051
     Eigenvalues ---    0.23578   0.33174   0.34243   0.34372   0.35053
     Eigenvalues ---    0.39877   0.50857   0.902401000.000001000.00000
     Eigenvalues --- 1000.000001000.000001000.000001000.000001000.00000
 Eigenvalue     1 is  -6.07D-04 should be greater than     0.000000 Eigenvector:
                          D3        D5        D4        D6        D8
   1                    0.43263   0.42785   0.41711   0.39572   0.39094
                          D7        D1        A8        A10       A6
   1                    0.38020  -0.03927  -0.00863   0.00815  -0.00473
 Angle between quadratic step and forces=  71.01 degrees.
 Linear search not attempted -- first point.
 Iteration  1 RMS(Cart)=  0.04582528 RMS(Int)=  0.00103260
 Iteration  2 RMS(Cart)=  0.00111702 RMS(Int)=  0.00000322
 Iteration  3 RMS(Cart)=  0.00000048 RMS(Int)=  0.00000319
 Variable       Old X    -DE/DX   Delta X   Delta X   Delta X     New X
                                 (Linear)    (Quad)   (Total)
    R1        1.83368   0.00024   0.00000   0.00050   0.00050   1.83417
    R2        2.57742   0.00025   0.00000   0.00081   0.00081   2.57823
    R3        2.87300   0.00002   0.00000  -0.00010  -0.00010   2.87290
    R4        2.27869  -0.00004   0.00000  -0.00016  -0.00016   2.27852
    R5        2.06906   0.00003   0.00000   0.00107   0.00107   2.07014
    R6        2.06861   0.00001   0.00000   0.00009   0.00009   2.06869
    R7        2.06740   0.00002   0.00000  -0.00091  -0.00091   2.06649
    A1        1.93797   0.00009   0.00000   0.00029   0.00029   1.93826
    A2        2.04177  -0.00007   0.00000  -0.00100  -0.00101   2.04076
    A3        2.08821   0.00009   0.00000   0.00014   0.00013   2.08834
    A4        2.15318  -0.00002   0.00000   0.00081   0.00080   2.15399
    A5        1.89405   0.00000   0.00000  -0.00041  -0.00041   1.89364
    A6        1.99507   0.00000   0.00000  -0.00102  -0.00102   1.99405
    A7        1.89508   0.00000   0.00000   0.00106   0.00106   1.89614
    A8        1.89885  -0.00001   0.00000  -0.00195  -0.00195   1.89690
    A9        1.87538   0.00000   0.00000   0.00060   0.00060   1.87598
   A10        1.90190   0.00000   0.00000   0.00181   0.00181   1.90371
    D1       -0.00700  -0.00001   0.00000  -0.00864  -0.00864  -0.01564
    D2        3.14128   0.00000   0.00000  -0.00103  -0.00103   3.14025
    D3       -2.04444   0.00006   0.00000   0.09207   0.09207  -1.95237
    D4        0.07810   0.00005   0.00000   0.08858   0.08858   0.16668
    D5        2.20534   0.00006   0.00000   0.09101   0.09101   2.29635
    D6        1.09019   0.00005   0.00000   0.08415   0.08415   1.17434
    D7       -3.07045   0.00004   0.00000   0.08066   0.08066  -2.98980
    D8       -0.94322   0.00005   0.00000   0.08309   0.08309  -0.86013
         Item               Value     Threshold  Converged?
 Maximum Force            0.000251     0.000450     YES
 RMS     Force            0.000080     0.000300     YES
 Maximum Displacement     0.106940     0.001800     NO 
 RMS     Displacement     0.045828     0.001200     NO 
 Predicted change in Energy=-4.130195D-05
 GradGradGradGradGradGradGradGradGradGradGradGradGradGradGradGradGradGrad

 1|1|UNPC-LAWALM-PC|Freq|RB3LYP|6-31+G(d)|C2H4O2|LAWALM|25-Feb-2015|0||
 #N Geom=AllCheck Guess=TCheck SCRF=Check GenChk RB3LYP/6-31+G(d) Freq|
 |Title Card Required||0,1|O,0.9166520158,0.9823469115,0.0147741468|H,0
 .383946101,1.7933179335,0.0251933923|C,0.1214653586,-0.1255260636,-0.0
 085919164|C,-1.3814547187,0.1038351665,-0.0042660854|H,-1.7970093359,-
 0.3310040824,0.9106324266|H,-1.6768239339,1.1564046934,-0.0602409324|H
 ,-1.818552526,-0.4337227691,-0.8509414852|O,0.6251490391,-1.2210087899
 ,-0.0242875463||Version=IA32W-G09RevA.02|State=1-A|HF=-229.0855471|RMS
 D=2.451e-009|RMSF=9.137e-005|ZeroPoint=0.0613533|Thermal=0.0651927|Dip
 ole=-1.3253727,1.2481069,0.0211345|DipoleDeriv=-0.6591333,-0.5967673,-
 0.0103234,-0.3815652,-1.1147587,-0.0126444,-0.0052061,-0.016204,-0.406
 9802,0.2297782,0.1144272,0.0010003,0.0826553,0.2725552,-0.0006762,0.00
 029,0.0001451,0.352105,1.3784912,0.1485269,0.0009241,0.0982931,1.93318
 34,0.0315407,-0.0018334,0.0342863,0.2973263,-0.3409199,-0.0016985,0.00
 44107,-0.05569,0.0724118,-0.0078812,0.0172824,-0.0111677,0.0382968,0.0
 538392,0.0051629,0.0144422,0.0095741,0.062976,0.0565294,0.054052,0.049
 0814,-0.0004058,0.0079592,0.0088724,0.0008956,0.0691188,-0.129848,0.01
 01516,-0.0066268,0.0099562,0.0884819,0.0529172,-0.0000238,-0.0158248,0
 .0007807,0.0498689,-0.0627849,-0.0599793,-0.053425,0.0172871,-0.722931
 7,0.3215001,0.0044753,0.1768332,-1.1463887,-0.0142351,0.0020212,-0.012
 6721,-0.386111|Polar=33.2673127,-0.960856,37.7546176,-0.0724858,0.2417
 587,23.4317179|PG=C01 [X(C2H4O2)]|NImag=1||0.39020338,-0.10071265,0.62
 622418,0.00047950,0.00939902,0.02216107,-0.19343855,0.23767484,0.00289
 390,0.18298961,0.18208097,-0.34399068,-0.00448828,-0.20574261,0.374621
 24,0.00189243,-0.00409650,-0.00776680,-0.00234137,0.00478973,0.0086185
 7,-0.20139433,-0.11346952,-0.00261965,0.01645891,0.02993392,0.00064291
 ,0.63593811,-0.04382705,-0.17657338,-0.00252770,-0.02170069,-0.0309917
 1,-0.00050225,-0.20371473,0.92168812,-0.00154642,-0.00289533,-0.047946
 75,-0.00035285,-0.00026483,-0.00685965,-0.00228838,0.01121825,0.220792
 37,-0.02302997,-0.00706859,-0.00026407,-0.00164858,0.00100963,0.000068
 75,-0.18204466,0.00397396,-0.00009859,0.46772388,-0.03393306,-0.004061
 40,0.00024760,-0.00287908,0.00204823,-0.00027519,0.01673390,-0.0836902
 4,0.00023054,0.00147673,0.60115573,-0.00117551,-0.00026992,0.02225272,
 0.00017558,0.00040609,-0.00260706,-0.00071795,0.00000293,-0.08936871,0
 .00363342,0.00151491,0.54520901,-0.00501177,-0.00064357,-0.00370984,-0
 .00007129,0.00064988,0.00055500,-0.01328550,-0.01393162,0.03221023,-0.
 08368677,-0.03851346,0.08891726,0.09133010,-0.00065187,0.00046988,-0.0
 0057298,0.00041022,0.00049549,0.00068594,-0.00040100,0.00029729,-0.005
 14934,-0.03833410,-0.08964035,0.09231421,0.04312216,0.09314035,-0.0009
 2342,-0.00083959,-0.00116755,-0.00001357,-0.00008422,0.00012084,-0.000
 93317,-0.00043010,0.00231761,0.08670948,0.09177084,-0.23565227,-0.0935
 5911,-0.10036939,0.25396423,0.00136560,-0.00214719,0.00015366,-0.00301
 753,-0.00095462,-0.00017525,0.00098881,0.03312919,-0.00188412,-0.06925
 956,0.06344575,-0.00412173,0.00347672,-0.01265438,-0.00123696,0.072601
 31,-0.00002999,0.00220025,-0.00013335,-0.00022655,0.00166305,0.0000891
 8,-0.00441500,-0.00642793,-0.00037284,0.06715649,-0.29707679,0.0131522
 6,0.00295300,-0.01113811,-0.00056987,-0.07131433,0.32186193,-0.0001031
 4,-0.00015247,-0.00041123,-0.00018485,-0.00008446,0.00119632,0.0004068
 5,-0.00035064,-0.00415795,-0.00413806,0.01316979,-0.04913166,-0.008540
 34,0.02651624,0.00048624,0.00413310,-0.01460668,0.04615672,-0.00594156
 ,-0.00063372,0.00311982,-0.00008172,0.00089643,-0.00044902,-0.01389574
 ,-0.01773133,-0.02955921,-0.08808182,-0.05051067,-0.08698333,0.0057442
 3,0.00720510,0.01000651,0.00370432,0.00393362,0.00813563,0.09644735,-0
 .00037405,0.00069456,0.00010093,0.00050412,0.00060681,-0.00044859,-0.0
 0042639,0.00068060,0.00515794,-0.05113533,-0.11408423,-0.10639130,0.00
 627749,0.00703748,0.01097225,-0.01299043,-0.01378024,-0.02436993,0.056
 80282,0.11923975,0.00123844,0.00090665,-0.00099076,-0.00003293,-0.0000
 3880,0.00013544,0.00190797,0.00041929,0.00215084,-0.08614756,-0.105538
 05,-0.20998550,-0.01145326,-0.01428009,-0.02084485,0.00274721,0.002202
 68,0.00318093,0.09174966,0.11547610,0.22564919,0.03724721,-0.01299960,
 -0.00005332,-0.00119085,-0.00787360,-0.00019345,-0.24276561,0.26380227
 ,0.00351935,-0.01997252,0.04417989,0.00027226,0.00150428,0.00130387,-0
 .00004976,-0.00985966,0.00194276,0.00029081,0.00210494,0.00134176,-0.0
 0000953,0.23293221,-0.00255229,-0.10496341,-0.00202525,-0.00804026,-0.
 00445243,-0.00024233,0.27575882,-0.62498275,-0.00792439,0.02292121,-0.
 01465096,-0.00072918,0.00008612,-0.00066203,-0.00044993,0.00348601,0.0
 0269784,-0.00012185,0.00003774,-0.00039473,0.00085222,-0.29169735,0.74
 740848,0.00013812,-0.00205187,0.01386930,-0.00014390,-0.00023524,0.007
 16235,0.00360141,-0.00782978,-0.07692776,0.00023664,-0.00112044,0.0192
 8347,-0.00441994,0.00085540,0.00077575,0.00038409,0.00023863,0.0026806
 4,0.00397993,-0.00049740,0.00070471,-0.00377635,0.01064070,0.03245154|
 |-0.00016130,-0.00002778,-0.00008155,0.00008631,-0.00022359,0.00000561
 ,-0.00000683,0.00029400,-0.00000085,-0.00000737,-0.00002203,0.00003264
 ,0.00000557,-0.00004689,-0.00005802,0.00000225,-0.00001089,0.00004564,
 0.00001504,0.00005133,-0.00001914,0.00006632,-0.00001415,0.00007566|||
 @


 THE WORLD OF CHEMICAL REACTIONS IS LIKE A STAGE,
 ON WHICH SCENE AFTER SCENE IS CEASELESSLY PLAYED.
 THE ACTORS ON IT ARE THE ELEMENTS.
   -- CLEMENS WINKLER   BER. 30,13(1897)
 (DISCOVERER OF GERMANIUM, FEB 6, 1886)
 Job cpu time:  0 days  0 hours  1 minutes 33.0 seconds.
 File lengths (MBytes):  RWF=     10 Int=      0 D2E=      0 Chk=      1 Scr=      1
 Normal termination of Gaussian 09 at Wed Feb 25 12:36:40 2015.
