 Entering Link 1 = C:\G09W\l1.exe PID=      6896.
  
 Copyright (c) 1988,1990,1992,1993,1995,1998,2003,2009, Gaussian, Inc.
                  All Rights Reserved.
  
 This is part of the Gaussian(R) 09 program.  It is based on
 the Gaussian(R) 03 system (copyright 2003, Gaussian, Inc.),
 the Gaussian(R) 98 system (copyright 1998, Gaussian, Inc.),
 the Gaussian(R) 94 system (copyright 1995, Gaussian, Inc.),
 the Gaussian 92(TM) system (copyright 1992, Gaussian, Inc.),
 the Gaussian 90(TM) system (copyright 1990, Gaussian, Inc.),
 the Gaussian 88(TM) system (copyright 1988, Gaussian, Inc.),
 the Gaussian 86(TM) system (copyright 1986, Carnegie Mellon
 University), and the Gaussian 82(TM) system (copyright 1983,
 Carnegie Mellon University). Gaussian is a federally registered
 trademark of Gaussian, Inc.
  
 This software contains proprietary and confidential information,
 including trade secrets, belonging to Gaussian, Inc.
  
 This software is provided under written license and may be
 used, copied, transmitted, or stored only in accord with that
 written license.
  
 The following legend is applicable only to US Government
 contracts under FAR:
  
                    RESTRICTED RIGHTS LEGEND
  
 Use, reproduction and disclosure by the US Government is
 subject to restrictions as set forth in subparagraphs (a)
 and (c) of the Commercial Computer Software - Restricted
 Rights clause in FAR 52.227-19.
  
 Gaussian, Inc.
 340 Quinnipiac St., Bldg. 40, Wallingford CT 06492
  
  
 ---------------------------------------------------------------
 Warning -- This program may not be used in any manner that
 competes with the business of Gaussian, Inc. or will provide
 assistance to any competitor of Gaussian, Inc.  The licensee
 of this program is prohibited from giving any competitor of
 Gaussian, Inc. access to this program.  By using this program,
 the user acknowledges that Gaussian, Inc. is engaged in the
 business of creating and licensing software in the field of
 computational chemistry and represents and warrants to the
 licensee that it is not a competitor of Gaussian, Inc. and that
 it will not use this program in any manner prohibited above.
 ---------------------------------------------------------------
  

 Cite this work as:
 Gaussian 09, Revision A.02,
 M. J. Frisch, G. W. Trucks, H. B. Schlegel, G. E. Scuseria, 
 M. A. Robb, J. R. Cheeseman, G. Scalmani, V. Barone, B. Mennucci, 
 G. A. Petersson, H. Nakatsuji, M. Caricato, X. Li, H. P. Hratchian, 
 A. F. Izmaylov, J. Bloino, G. Zheng, J. L. Sonnenberg, M. Hada, 
 M. Ehara, K. Toyota, R. Fukuda, J. Hasegawa, M. Ishida, T. Nakajima, 
 Y. Honda, O. Kitao, H. Nakai, T. Vreven, J. A. Montgomery, Jr., 
 J. E. Peralta, F. Ogliaro, M. Bearpark, J. J. Heyd, E. Brothers, 
 K. N. Kudin, V. N. Staroverov, R. Kobayashi, J. Normand, 
 K. Raghavachari, A. Rendell, J. C. Burant, S. S. Iyengar, J. Tomasi, 
 M. Cossi, N. Rega, J. M. Millam, M. Klene, J. E. Knox, J. B. Cross, 
 V. Bakken, C. Adamo, J. Jaramillo, R. Gomperts, R. E. Stratmann, 
 O. Yazyev, A. J. Austin, R. Cammi, C. Pomelli, J. W. Ochterski, 
 R. L. Martin, K. Morokuma, V. G. Zakrzewski, G. A. Voth, 
 P. Salvador, J. J. Dannenberg, S. Dapprich, A. D. Daniels, 
 O. Farkas, J. B. Foresman, J. V. Ortiz, J. Cioslowski, 
 and D. J. Fox, Gaussian, Inc., Wallingford CT, 2009.
 
 ******************************************
 Gaussian 09:  IA32W-G09RevA.02 11-Jun-2009
                24-Mar-2015 
 ******************************************
 ----------------------------------------------------------
 # opt freq b3lyp/gen geom=connectivity gfinput pseudo=read
 ----------------------------------------------------------
 1/14=-1,18=20,19=15,26=3,38=1,57=2/1,3;
 2/9=110,12=2,17=6,18=5,40=1/2;
 3/5=7,11=2,16=1,17=8,24=10,25=1,30=1,71=1,74=-5/1,2,3;
 4//1;
 5/5=2,38=5/2;
 6/7=2,8=2,9=2,10=2,28=1/1;
 7//1,2,3,16;
 1/14=-1,18=20,19=15/3(2);
 2/9=110/2;
 99//99;
 2/9=110/2;
 3/5=7,6=1,11=2,16=1,17=8,25=1,30=1,71=1,74=-5,82=7/1,2,3;
 4/5=5,16=3/1;
 5/5=2,38=5/2;
 7//1,2,3,16;
 1/14=-1,18=20,19=15/3(-5);
 2/9=110/2;
 6/7=2,8=2,9=2,10=2,19=2,28=1/1;
 99/9=1/99;
 ---------------------------------------------
 gen calculation-iac C H O=aug-ccpvtz/I=dgdzvp
 ---------------------------------------------
 Symbolic Z-matrix:
 Charge =  0 Multiplicity = 1
 C                    -1.55617  -1.7399    0.15525 
 H                    -0.63396  -2.25101   0.33747 
 H                    -1.65831  -1.55123  -0.89302 
 H                    -2.37202  -2.34607   0.4897 
 C                    -1.56225  -0.40343   0.92037 
 O                    -2.20363   0.57907   0.46551 
 I                    -0.50022  -0.22056   2.72277 
 

 GradGradGradGradGradGradGradGradGradGradGradGradGradGradGradGradGradGrad
 Berny optimization.
 Initialization pass.
                           ----------------------------
                           !    Initial Parameters    !
                           ! (Angstroms and Degrees)  !
 --------------------------                            --------------------------
 ! Name  Definition              Value          Derivative Info.                !
 --------------------------------------------------------------------------------
 ! R1    R(1,2)                  1.07           estimate D2E/DX2                !
 ! R2    R(1,3)                  1.07           estimate D2E/DX2                !
 ! R3    R(1,4)                  1.07           estimate D2E/DX2                !
 ! R4    R(1,5)                  1.54           estimate D2E/DX2                !
 ! R5    R(5,6)                  1.2584         estimate D2E/DX2                !
 ! R6    R(5,7)                  2.1            estimate D2E/DX2                !
 ! A1    A(2,1,3)              109.4712         estimate D2E/DX2                !
 ! A2    A(2,1,4)              109.4712         estimate D2E/DX2                !
 ! A3    A(2,1,5)              109.4712         estimate D2E/DX2                !
 ! A4    A(3,1,4)              109.4712         estimate D2E/DX2                !
 ! A5    A(3,1,5)              109.4712         estimate D2E/DX2                !
 ! A6    A(4,1,5)              109.4712         estimate D2E/DX2                !
 ! A7    A(1,5,6)              120.0            estimate D2E/DX2                !
 ! A8    A(1,5,7)              120.0            estimate D2E/DX2                !
 ! A9    A(6,5,7)              120.0            estimate D2E/DX2                !
 ! D1    D(2,1,5,6)            150.0            estimate D2E/DX2                !
 ! D2    D(2,1,5,7)            -30.0            estimate D2E/DX2                !
 ! D3    D(3,1,5,6)             30.0            estimate D2E/DX2                !
 ! D4    D(3,1,5,7)           -150.0            estimate D2E/DX2                !
 ! D5    D(4,1,5,6)            -90.0            estimate D2E/DX2                !
 ! D6    D(4,1,5,7)             90.0            estimate D2E/DX2                !
 --------------------------------------------------------------------------------
 Trust Radius=3.00D-01 FncErr=1.00D-07 GrdErr=1.00D-06
 Number of steps in this run=  31 maximum allowed number of steps= 100.
 GradGradGradGradGradGradGradGradGradGradGradGradGradGradGradGradGradGrad

                          Input orientation:                          
 ---------------------------------------------------------------------
 Center     Atomic      Atomic             Coordinates (Angstroms)
 Number     Number       Type             X           Y           Z
 ---------------------------------------------------------------------
      1          6           0       -1.556173   -1.739904    0.155253
      2          1           0       -0.633963   -2.251008    0.337467
      3          1           0       -1.658308   -1.551227   -0.893017
      4          1           0       -2.372024   -2.346067    0.489700
      5          6           0       -1.562253   -0.403433    0.920371
      6          8           0       -2.203629    0.579071    0.465515
      7         53           0       -0.500224   -0.220558    2.722773
 ---------------------------------------------------------------------
                    Distance matrix (angstroms):
                    1          2          3          4          5
     1  C    0.000000
     2  H    1.070000   0.000000
     3  H    1.070000   1.747303   0.000000
     4  H    1.070000   1.747303   1.747303   0.000000
     5  C    1.540000   2.148263   2.148263   2.148263   0.000000
     6  O    2.427572   3.238764   2.584792   2.930080   1.258400
     7  I    3.164743   3.135330   4.023154   3.606665   2.100000
                    6          7
     6  O    0.000000
     7  I    2.938743   0.000000
 Stoichiometry    C2H3IO
 Framework group  C1[X(C2H3IO)]
 Deg. of freedom    15
 Full point group                 C1      NOp   1
 Largest Abelian subgroup         C1      NOp   1
 Largest concise Abelian subgroup C1      NOp   1
                         Standard orientation:                         
 ---------------------------------------------------------------------
 Center     Atomic      Atomic             Coordinates (Angstroms)
 Number     Number       Type             X           Y           Z
 ---------------------------------------------------------------------
      1          6           0       -2.202197   -1.034057    0.000000
      2          1           0       -1.712668   -1.840803   -0.504403
      3          1           0       -3.116465   -0.800408   -0.504403
      4          1           0       -2.414566   -1.320606    1.008806
      5          6           0       -1.285236    0.203192    0.000000
      6          8           0       -1.786151    1.357598    0.000000
      7         53           0        0.801085   -0.036109    0.000000
 ---------------------------------------------------------------------
 Rotational constants (GHZ):     10.1628292      2.2184086      1.8413393
 General basis read from cards:  (5D, 7F)
 AO basis set in the form of general basis input (Overlap normalization):
      1 0
 S   7 1.00       0.000000000000
      0.8236000000D+04  0.5419783203D-03
      0.1235000000D+04  0.4192873817D-02
      0.2808000000D+03  0.2152216205D-01
      0.7927000000D+02  0.8353432195D-01
      0.2559000000D+02  0.2395828457D+00
      0.8997000000D+01  0.4428528419D+00
      0.3319000000D+01  0.3517995618D+00
 S   6 1.00       0.000000000000
      0.2808000000D+03 -0.5949224937D-04
      0.7927000000D+02 -0.1148158310D-02
      0.2559000000D+02 -0.1001913745D-01
      0.8997000000D+01 -0.6121949230D-01
      0.3319000000D+01 -0.1732698541D+00
      0.3643000000D+00  0.1072915192D+01
 S   1 1.00       0.000000000000
      0.9059000000D+00  0.1000000000D+01
 S   1 1.00       0.000000000000
      0.1285000000D+00  0.1000000000D+01
 S   1 1.00       0.000000000000
      0.4402000000D-01  0.1000000000D+01
 P   3 1.00       0.000000000000
      0.1871000000D+02  0.3942638716D-01
      0.4133000000D+01  0.2440889849D+00
      0.1200000000D+01  0.8154920089D+00
 P   1 1.00       0.000000000000
      0.3827000000D+00  0.1000000000D+01
 P   1 1.00       0.000000000000
      0.1209000000D+00  0.1000000000D+01
 P   1 1.00       0.000000000000
      0.3569000000D-01  0.1000000000D+01
 D   1 1.00       0.000000000000
      0.1097000000D+01  0.1000000000D+01
 D   1 1.00       0.000000000000
      0.3180000000D+00  0.1000000000D+01
 D   1 1.00       0.000000000000
      0.1000000000D+00  0.1000000000D+01
 F   1 1.00       0.000000000000
      0.7610000000D+00  0.1000000000D+01
 F   1 1.00       0.000000000000
      0.2680000000D+00  0.1000000000D+01
 ****
      2 0
 S   3 1.00       0.000000000000
      0.3387000000D+02  0.2549486323D-01
      0.5095000000D+01  0.1903627659D+00
      0.1159000000D+01  0.8521620222D+00
 S   1 1.00       0.000000000000
      0.3258000000D+00  0.1000000000D+01
 S   1 1.00       0.000000000000
      0.1027000000D+00  0.1000000000D+01
 S   1 1.00       0.000000000000
      0.2526000000D-01  0.1000000000D+01
 P   1 1.00       0.000000000000
      0.1407000000D+01  0.1000000000D+01
 P   1 1.00       0.000000000000
      0.3880000000D+00  0.1000000000D+01
 P   1 1.00       0.000000000000
      0.1020000000D+00  0.1000000000D+01
 D   1 1.00       0.000000000000
      0.1057000000D+01  0.1000000000D+01
 D   1 1.00       0.000000000000
      0.2470000000D+00  0.1000000000D+01
 ****
      3 0
 S   3 1.00       0.000000000000
      0.3387000000D+02  0.2549486323D-01
      0.5095000000D+01  0.1903627659D+00
      0.1159000000D+01  0.8521620222D+00
 S   1 1.00       0.000000000000
      0.3258000000D+00  0.1000000000D+01
 S   1 1.00       0.000000000000
      0.1027000000D+00  0.1000000000D+01
 S   1 1.00       0.000000000000
      0.2526000000D-01  0.1000000000D+01
 P   1 1.00       0.000000000000
      0.1407000000D+01  0.1000000000D+01
 P   1 1.00       0.000000000000
      0.3880000000D+00  0.1000000000D+01
 P   1 1.00       0.000000000000
      0.1020000000D+00  0.1000000000D+01
 D   1 1.00       0.000000000000
      0.1057000000D+01  0.1000000000D+01
 D   1 1.00       0.000000000000
      0.2470000000D+00  0.1000000000D+01
 ****
      4 0
 S   3 1.00       0.000000000000
      0.3387000000D+02  0.2549486323D-01
      0.5095000000D+01  0.1903627659D+00
      0.1159000000D+01  0.8521620222D+00
 S   1 1.00       0.000000000000
      0.3258000000D+00  0.1000000000D+01
 S   1 1.00       0.000000000000
      0.1027000000D+00  0.1000000000D+01
 S   1 1.00       0.000000000000
      0.2526000000D-01  0.1000000000D+01
 P   1 1.00       0.000000000000
      0.1407000000D+01  0.1000000000D+01
 P   1 1.00       0.000000000000
      0.3880000000D+00  0.1000000000D+01
 P   1 1.00       0.000000000000
      0.1020000000D+00  0.1000000000D+01
 D   1 1.00       0.000000000000
      0.1057000000D+01  0.1000000000D+01
 D   1 1.00       0.000000000000
      0.2470000000D+00  0.1000000000D+01
 ****
      5 0
 S   7 1.00       0.000000000000
      0.8236000000D+04  0.5419783203D-03
      0.1235000000D+04  0.4192873817D-02
      0.2808000000D+03  0.2152216205D-01
      0.7927000000D+02  0.8353432195D-01
      0.2559000000D+02  0.2395828457D+00
      0.8997000000D+01  0.4428528419D+00
      0.3319000000D+01  0.3517995618D+00
 S   6 1.00       0.000000000000
      0.2808000000D+03 -0.5949224937D-04
      0.7927000000D+02 -0.1148158310D-02
      0.2559000000D+02 -0.1001913745D-01
      0.8997000000D+01 -0.6121949230D-01
      0.3319000000D+01 -0.1732698541D+00
      0.3643000000D+00  0.1072915192D+01
 S   1 1.00       0.000000000000
      0.9059000000D+00  0.1000000000D+01
 S   1 1.00       0.000000000000
      0.1285000000D+00  0.1000000000D+01
 S   1 1.00       0.000000000000
      0.4402000000D-01  0.1000000000D+01
 P   3 1.00       0.000000000000
      0.1871000000D+02  0.3942638716D-01
      0.4133000000D+01  0.2440889849D+00
      0.1200000000D+01  0.8154920089D+00
 P   1 1.00       0.000000000000
      0.3827000000D+00  0.1000000000D+01
 P   1 1.00       0.000000000000
      0.1209000000D+00  0.1000000000D+01
 P   1 1.00       0.000000000000
      0.3569000000D-01  0.1000000000D+01
 D   1 1.00       0.000000000000
      0.1097000000D+01  0.1000000000D+01
 D   1 1.00       0.000000000000
      0.3180000000D+00  0.1000000000D+01
 D   1 1.00       0.000000000000
      0.1000000000D+00  0.1000000000D+01
 F   1 1.00       0.000000000000
      0.7610000000D+00  0.1000000000D+01
 F   1 1.00       0.000000000000
      0.2680000000D+00  0.1000000000D+01
 ****
      6 0
 S   7 1.00       0.000000000000
      0.1533000000D+05  0.5198089434D-03
      0.2299000000D+04  0.4020256215D-02
      0.5224000000D+03  0.2071282673D-01
      0.1473000000D+03  0.8101055358D-01
      0.4755000000D+02  0.2359629851D+00
      0.1676000000D+02  0.4426534455D+00
      0.6207000000D+01  0.3570644227D+00
 S   6 1.00       0.000000000000
      0.5224000000D+03 -0.4421150084D-04
      0.1473000000D+03 -0.1225910413D-02
      0.4755000000D+02 -0.1055177248D-01
      0.1676000000D+02 -0.6744526326D-01
      0.6207000000D+01 -0.1711986073D+00
      0.6882000000D+00  0.1073298561D+01
 S   1 1.00       0.000000000000
      0.1752000000D+01  0.1000000000D+01
 S   1 1.00       0.000000000000
      0.2384000000D+00  0.1000000000D+01
 S   1 1.00       0.000000000000
      0.7376000000D-01  0.1000000000D+01
 P   3 1.00       0.000000000000
      0.3446000000D+02  0.4116348957D-01
      0.7749000000D+01  0.2577628359D+00
      0.2280000000D+01  0.8024192744D+00
 P   1 1.00       0.000000000000
      0.7156000000D+00  0.1000000000D+01
 P   1 1.00       0.000000000000
      0.2140000000D+00  0.1000000000D+01
 P   1 1.00       0.000000000000
      0.5974000000D-01  0.1000000000D+01
 D   1 1.00       0.000000000000
      0.2314000000D+01  0.1000000000D+01
 D   1 1.00       0.000000000000
      0.6450000000D+00  0.1000000000D+01
 D   1 1.00       0.000000000000
      0.2140000000D+00  0.1000000000D+01
 F   1 1.00       0.000000000000
      0.1428000000D+01  0.1000000000D+01
 F   1 1.00       0.000000000000
      0.5000000000D+00  0.1000000000D+01
 ****
      7 0
 S   6 1.00       0.000000000000
      0.2748454600D+06 -0.1620740003D-02
      0.4123318800D+05 -0.1239758002D-01
      0.9366733300D+04 -0.6220073012D-01
      0.2638408100D+04 -0.2162937604D+00
      0.8587744000D+03 -0.4623949009D+00
      0.2963025200D+03 -0.3848416708D+00
 S   3 1.00       0.000000000000
      0.5618372200D+03  0.1142284296D+00
      0.6904014600D+02 -0.6322909279D+00
      0.2998063500D+02 -0.4420178785D+00
 S   3 1.00       0.000000000000
      0.5486968400D+02 -0.2707986079D+00
      0.9995458500D+01  0.8426472035D+00
      0.4588867800D+01  0.3091657076D+00
 S   3 1.00       0.000000000000
      0.9120825600D+01 -0.3410223488D+00
      0.2119678700D+01  0.8100649772D+00
      0.9708925500D+00  0.3967536886D+00
 S   2 1.00       0.000000000000
      0.1587996500D+01  0.4220458839D+00
      0.2953355900D+00 -0.1205356205D+01
 S   1 1.00       0.000000000000
      0.1164015700D+00  0.1000000000D+01
 P   5 1.00       0.000000000000
      0.4089455400D+04 -0.7236549903D-02
      0.9670335900D+03 -0.5583903925D-01
      0.3094421300D+03 -0.2340242369D+00
      0.1124588600D+03 -0.5047018033D+00
      0.4311859000D+02 -0.3659633351D+00
 P   3 1.00       0.000000000000
      0.1646462000D+03 -0.2523303985D-01
      0.2073658300D+02  0.4944191470D+00
      0.8155830400D+01  0.5741461865D+00
 P   3 1.00       0.000000000000
      0.3710487200D+01  0.4299955309D+00
      0.1624999000D+01  0.5262371211D+00
      0.7146215600D+00  0.1234062502D+00
 P   2 1.00       0.000000000000
      0.4628192500D+00  0.4206610585D+00
      0.1864311600D+00  0.6369323111D+00
 P   1 1.00       0.000000000000
      0.7148348000D-01  0.1000000000D+01
 D   5 1.00       0.000000000000
      0.4175032400D+03 -0.1272515010D-01
      0.1236148300D+03 -0.9152118071D-01
      0.4577903900D+02 -0.3070988524D+00
      0.1839166300D+02 -0.4996397539D+00
      0.7421793200D+01 -0.3083066424D+00
 D   3 1.00       0.000000000000
      0.6273858600D+01 -0.2593005400D+00
      0.2359414600D+01 -0.5650764901D+00
      0.8377966000D+00 -0.3523693800D+00
 D   1 1.00       0.000000000000
      0.2440000000D+00  0.1000000000D+01
 ****

 ======================================================================================================
                                       Pseudopotential Parameters
 ======================================================================================================
  Center     Atomic      Valence      Angular      Power
  Number     Number     Electrons     Momentum     of R      Exponent        Coefficient   SO-Coeffient
 ======================================================================================================
    1          6
                                   No pseudopotential on this center.
    2          1
                                   No pseudopotential on this center.
    3          1
                                   No pseudopotential on this center.
    4          1
                                   No pseudopotential on this center.
    5          6
                                   No pseudopotential on this center.
    6          8
                                   No pseudopotential on this center.
    7         53
                                   No pseudopotential on this center.
 ======================================================================================================
 There are   243 symmetry adapted basis functions of A   symmetry.
 Integral buffers will be    262144 words long.
 Raffenetti 2 integral format.
 Two-electron integral symmetry is turned on.
   243 basis functions,   411 primitive gaussians,   279 cartesian basis functions
    38 alpha electrons       38 beta electrons
       nuclear repulsion energy       295.0002478341 Hartrees.
 NAtoms=    7 NActive=    7 NUniq=    7 SFac= 7.50D-01 NAtFMM=   80 NAOKFM=F Big=F
 One-electron integrals computed using PRISM.
   1 Symmetry operations used in ECPInt.
 ECPInt:  NShTT=    3486 NPrTT=   12271 LenC2=    3460 LenP2D=   10316.
 LDataN:  DoStor=T MaxTD1= 6 Len=  172
 NBasis=   243 RedAO= T  NBF=   243
 NBsUse=   243 1.00D-06 NBFU=   243
 Defaulting to unpruned grid for atomic number  53.
 Harris functional with IExCor=  402 diagonalized for initial guess.
 ExpMin= 2.53D-02 ExpMax= 2.75D+05 ExpMxC= 4.12D+04 IAcc=3 IRadAn=         0 AccDes= 0.00D+00
 HarFok:  IExCor=  402 AccDes= 0.00D+00 IRadAn=         0 IDoV= 1
 ScaDFX=  1.000000  1.000000  1.000000  1.000000
 Defaulting to unpruned grid for atomic number  53.
 FoFCou: FMM=F IPFlag=           0 FMFlag=      100000 FMFlg1=           0
         NFxFlg=           0 DoJE=T BraDBF=F KetDBF=T FulRan=T
         Omega=  0.000000  0.000000  1.000000  0.000000  0.000000 ICntrl=     500 IOpCl=  0
         NMat0=    1 NMatS0=    1 NMatT0=    0 NMatD0=    1 NMtDS0=    0 NMtDT0=    0
         I1Cent=           4 NGrid=           0.
 Petite list used in FoFCou.
 Initial guess orbital symmetries:
       Occupied  (A) (A) (A) (A) (A) (A) (A) (A) (A) (A) (A) (A)
                 (A) (A) (A) (A) (A) (A) (A) (A) (A) (A) (A) (A)
                 (A) (A) (A) (A) (A) (A) (A) (A) (A) (A) (A) (A)
                 (A) (A)
       Virtual   (A) (A) (A) (A) (A) (A) (A) (A) (A) (A) (A) (A)
                 (A) (A) (A) (A) (A) (A) (A) (A) (A) (A) (A) (A)
                 (A) (A) (A) (A) (A) (A) (A) (A) (A) (A) (A) (A)
                 (A) (A) (A) (A) (A) (A) (A) (A) (A) (A) (A) (A)
                 (A) (A) (A) (A) (A) (A) (A) (A) (A) (A) (A) (A)
                 (A) (A) (A) (A) (A) (A) (A) (A) (A) (A) (A) (A)
                 (A) (A) (A) (A) (A) (A) (A) (A) (A) (A) (A) (A)
                 (A) (A) (A) (A) (A) (A) (A) (A) (A) (A) (A) (A)
                 (A) (A) (A) (A) (A) (A) (A) (A) (A) (A) (A) (A)
                 (A) (A) (A) (A) (A) (A) (A) (A) (A) (A) (A) (A)
                 (A) (A) (A) (A) (A) (A) (A) (A) (A) (A) (A) (A)
                 (A) (A) (A) (A) (A) (A) (A) (A) (A) (A) (A) (A)
                 (A) (A) (A) (A) (A) (A) (A) (A) (A) (A) (A) (A)
                 (A) (A) (A) (A) (A) (A) (A) (A) (A) (A) (A) (A)
                 (A) (A) (A) (A) (A) (A) (A) (A) (A) (A) (A) (A)
                 (A) (A) (A) (A) (A) (A) (A) (A) (A) (A) (A) (A)
                 (A) (A) (A) (A) (A) (A) (A) (A) (A) (A) (A) (A)
                 (A)
 The electronic state of the initial guess is 1-A.
 Requested convergence on RMS density matrix=1.00D-08 within 128 cycles.
 Requested convergence on MAX density matrix=1.00D-06.
 Requested convergence on             energy=1.00D-06.
 No special actions if energy rises.
 Defaulting to unpruned grid for atomic number  53.
 SCF Done:  E(RB3LYP) =  -7073.16303485     A.U. after   13 cycles
             Convg  =    0.3693D-08             -V/T =  2.0017

 **********************************************************************

            Population analysis using the SCF density.

 **********************************************************************

 Orbital symmetries:
       Occupied  (A) (A) (A) (A) (A) (A) (A) (A) (A) (A) (A) (A)
                 (A) (A) (A) (A) (A) (A) (A) (A) (A) (A) (A) (A)
                 (A) (A) (A) (A) (A) (A) (A) (A) (A) (A) (A) (A)
                 (A) (A)
       Virtual   (A) (A) (A) (A) (A) (A) (A) (A) (A) (A) (A) (A)
                 (A) (A) (A) (A) (A) (A) (A) (A) (A) (A) (A) (A)
                 (A) (A) (A) (A) (A) (A) (A) (A) (A) (A) (A) (A)
                 (A) (A) (A) (A) (A) (A) (A) (A) (A) (A) (A) (A)
                 (A) (A) (A) (A) (A) (A) (A) (A) (A) (A) (A) (A)
                 (A) (A) (A) (A) (A) (A) (A) (A) (A) (A) (A) (A)
                 (A) (A) (A) (A) (A) (A) (A) (A) (A) (A) (A) (A)
                 (A) (A) (A) (A) (A) (A) (A) (A) (A) (A) (A) (A)
                 (A) (A) (A) (A) (A) (A) (A) (A) (A) (A) (A) (A)
                 (A) (A) (A) (A) (A) (A) (A) (A) (A) (A) (A) (A)
                 (A) (A) (A) (A) (A) (A) (A) (A) (A) (A) (A) (A)
                 (A) (A) (A) (A) (A) (A) (A) (A) (A) (A) (A) (A)
                 (A) (A) (A) (A) (A) (A) (A) (A) (A) (A) (A) (A)
                 (A) (A) (A) (A) (A) (A) (A) (A) (A) (A) (A) (A)
                 (A) (A) (A) (A) (A) (A) (A) (A) (A) (A) (A) (A)
                 (A) (A) (A) (A) (A) (A) (A) (A) (A) (A) (A) (A)
                 (A) (A) (A) (A) (A) (A) (A) (A) (A) (A) (A) (A)
                 (A)
 The electronic state is 1-A.
 Alpha  occ. eigenvalues -- **********-176.38631-165.76921-165.76741-165.76720
 Alpha  occ. eigenvalues --  -35.82666 -31.33768 -31.33309 -31.33239 -22.97901
 Alpha  occ. eigenvalues --  -22.97813 -22.97760 -22.97451 -22.97449 -19.16176
 Alpha  occ. eigenvalues --  -10.32906 -10.20689  -6.36281  -4.77842  -4.76767
 Alpha  occ. eigenvalues --   -4.76577  -2.04580  -2.04225  -2.04077  -2.03125
 Alpha  occ. eigenvalues --   -2.03119  -1.05588  -0.78104  -0.69030  -0.55284
 Alpha  occ. eigenvalues --   -0.47437  -0.47320  -0.46246  -0.40992  -0.39097
 Alpha  occ. eigenvalues --   -0.29396  -0.28970  -0.27674
 Alpha virt. eigenvalues --   -0.07312  -0.04867  -0.01525   0.01617   0.01814
 Alpha virt. eigenvalues --    0.02422   0.05749   0.06450   0.06769   0.07310
 Alpha virt. eigenvalues --    0.07720   0.08253   0.10107   0.11197   0.11867
 Alpha virt. eigenvalues --    0.13839   0.14621   0.15429   0.16232   0.17351
 Alpha virt. eigenvalues --    0.18102   0.19411   0.20410   0.22661   0.23232
 Alpha virt. eigenvalues --    0.25063   0.25707   0.25982   0.27146   0.27875
 Alpha virt. eigenvalues --    0.28508   0.29040   0.31316   0.31656   0.32262
 Alpha virt. eigenvalues --    0.33194   0.34515   0.35373   0.37574   0.39540
 Alpha virt. eigenvalues --    0.40707   0.42543   0.43410   0.44324   0.45775
 Alpha virt. eigenvalues --    0.47797   0.49311   0.50889   0.54151   0.56246
 Alpha virt. eigenvalues --    0.57129   0.59952   0.61632   0.62503   0.65341
 Alpha virt. eigenvalues --    0.66224   0.67031   0.69125   0.69674   0.70312
 Alpha virt. eigenvalues --    0.71340   0.74584   0.75829   0.76901   0.79111
 Alpha virt. eigenvalues --    0.80746   0.82757   0.84481   0.84821   0.86158
 Alpha virt. eigenvalues --    0.87280   0.88453   0.88711   0.93444   0.95451
 Alpha virt. eigenvalues --    0.96071   0.97409   0.99574   1.01104   1.04618
 Alpha virt. eigenvalues --    1.04788   1.07282   1.08761   1.10569   1.12225
 Alpha virt. eigenvalues --    1.14296   1.20025   1.21043   1.25483   1.27182
 Alpha virt. eigenvalues --    1.28393   1.30633   1.32727   1.36330   1.37461
 Alpha virt. eigenvalues --    1.40073   1.42882   1.44026   1.45255   1.49856
 Alpha virt. eigenvalues --    1.51226   1.54757   1.57650   1.58757   1.59651
 Alpha virt. eigenvalues --    1.63173   1.66519   1.70292   1.74834   1.79491
 Alpha virt. eigenvalues --    1.86343   1.89136   1.91790   1.98214   1.99937
 Alpha virt. eigenvalues --    2.03471   2.03882   2.13361   2.16396   2.17641
 Alpha virt. eigenvalues --    2.21989   2.24224   2.29316   2.35254   2.39047
 Alpha virt. eigenvalues --    2.43033   2.45279   2.49663   2.59410   2.62571
 Alpha virt. eigenvalues --    2.72785   2.79597   2.84753   2.98314   3.03196
 Alpha virt. eigenvalues --    3.09079   3.13786   3.14168   3.18334   3.21311
 Alpha virt. eigenvalues --    3.23351   3.26558   3.28543   3.30204   3.34674
 Alpha virt. eigenvalues --    3.39012   3.39459   3.44792   3.46629   3.52049
 Alpha virt. eigenvalues --    3.58071   3.59334   3.64620   3.67294   3.68331
 Alpha virt. eigenvalues --    3.74669   3.79066   3.79870   3.87033   3.90707
 Alpha virt. eigenvalues --    3.95585   4.01227   4.06384   4.11729   4.19582
 Alpha virt. eigenvalues --    4.27261   4.32525   4.39211   4.39673   4.44589
 Alpha virt. eigenvalues --    4.45471   4.53968   4.63386   4.69521   4.71939
 Alpha virt. eigenvalues --    4.80649   4.85001   4.99458   5.02077   5.07513
 Alpha virt. eigenvalues --    5.25148   5.28848   5.33893   5.35350   5.64206
 Alpha virt. eigenvalues --    5.68436   5.79470   5.80990   6.13636   6.16654
 Alpha virt. eigenvalues --    6.25010   6.26945   6.39565   6.42933   6.56547
 Alpha virt. eigenvalues --    6.68384   6.69387   6.72026   6.90823   7.02341
 Alpha virt. eigenvalues --    7.10759   7.21136  12.68099  13.71395  16.86589
          Condensed to atoms (all electrons):
              1          2          3          4          5          6
     1  C    5.502083   0.355598   0.358220   0.345499  -0.022234   0.001745
     2  H    0.355598   0.587649  -0.058896   0.060384  -0.203770   0.034403
     3  H    0.358220  -0.058896   0.437762  -0.015468   0.059302  -0.005031
     4  H    0.345499   0.060384  -0.015468   0.421331  -0.065433   0.025428
     5  C   -0.022234  -0.203770   0.059302  -0.065433   5.422448   0.160519
     6  O    0.001745   0.034403  -0.005031   0.025428   0.160519   8.411193
     7  I   -0.074791  -0.043779   0.017172  -0.012447   0.417092  -0.119975
              7
     1  C   -0.074791
     2  H   -0.043779
     3  H    0.017172
     4  H   -0.012447
     5  C    0.417092
     6  O   -0.119975
     7  I   52.790461
 Mulliken atomic charges:
              1
     1  C   -0.466121
     2  H    0.268411
     3  H    0.206940
     4  H    0.240707
     5  C    0.232076
     6  O   -0.508280
     7  I    0.026267
 Sum of Mulliken atomic charges =   0.00000
 Mulliken charges with hydrogens summed into heavy atoms:
              1
     1  C    0.249936
     5  C    0.232076
     6  O   -0.508280
     7  I    0.026267
 Sum of Mulliken charges with hydrogens summed into heavy atoms =   0.00000
 Electronic spatial extent (au):  <R**2>=            623.7661
 Charge=              0.0000 electrons
 Dipole moment (field-independent basis, Debye):
    X=             -0.4191    Y=             -2.6089    Z=              0.0235  Tot=              2.6424
 Quadrupole moment (field-independent basis, Debye-Ang):
   XX=            -43.5482   YY=            -49.3270   ZZ=            -45.8222
   XY=              5.7358   XZ=             -0.0789   YZ=             -0.0663
 Traceless Quadrupole moment (field-independent basis, Debye-Ang):
   XX=              2.6842   YY=             -3.0945   ZZ=              0.4103
   XY=              5.7358   XZ=             -0.0789   YZ=             -0.0663
 Octapole moment (field-independent basis, Debye-Ang**2):
  XXX=             31.4506  YYY=             -3.8307  ZZZ=              0.7052  XYY=             13.3284
  XXY=            -11.6012  XXZ=             -0.3135  XZZ=              7.7995  YZZ=              0.2582
  YYZ=             -0.1797  XYZ=              0.4304
 Hexadecapole moment (field-independent basis, Debye-Ang**3):
 XXXX=           -519.5345 YYYY=           -187.3552 ZZZZ=            -64.0082 XXXY=             17.6286
 XXXZ=              3.0278 YYYX=              3.3418 YYYZ=              0.8918 ZZZX=             -1.8354
 ZZZY=             -1.0807 XXYY=           -129.9218 XXZZ=            -97.7599 YYZZ=            -39.8499
 XXYZ=             -1.3322 YYXZ=             -0.5418 ZZXY=             -0.6368
 N-N= 2.950002478341D+02 E-N=-1.736463214124D+04  KE= 7.061007378773D+03
   1 Symmetry operations used in ECPInt.
 ECPInt:  NShTT=    3486 NPrTT=   12271 LenC2=    3460 LenP2D=   10316.
 LDataN:  DoStor=T MaxTD1= 7 Len=  274
 Calling FoFJK, ICntrl=      2127 FMM=F ISym2X=0 I1Cent= 0 IOpClX= 0 NMat=1 NMatS=1 NMatT=0.
 Defaulting to unpruned grid for atomic number  53.
 ***** Axes restored to original set *****
 -------------------------------------------------------------------
 Center     Atomic                   Forces (Hartrees/Bohr)
 Number     Number              X              Y              Z
 -------------------------------------------------------------------
      1        6           0.012345881    0.021329725    0.017604511
      2        1           0.009027599   -0.008775660    0.002747112
      3        1          -0.003588634    0.005485143   -0.010635929
      4        1          -0.010424729   -0.006972160    0.006102946
      5        6          -0.062501060    0.056989753   -0.066092112
      6        8           0.046082602   -0.066437380    0.035550114
      7       53           0.009058341   -0.001619421    0.014723357
 -------------------------------------------------------------------
 Cartesian Forces:  Max     0.066437380 RMS     0.031667281

 GradGradGradGradGradGradGradGradGradGradGradGradGradGradGradGradGradGrad
 Berny optimization.
 Internal  Forces:  Max     0.088197961 RMS     0.020931385
 Search for a local minimum.
 Step number   1 out of a maximum of   31
 All quantities printed in internal units (Hartrees-Bohrs-Radians)
 Mixed Optimization -- RFO/linear search
 Second derivative matrix not updated -- first step.
     Eigenvalues ---    0.00237   0.00237   0.07243   0.07243   0.14003
     Eigenvalues ---    0.16000   0.16000   0.16000   0.25000   0.25000
     Eigenvalues ---    0.28519   0.37230   0.37230   0.37230   0.80209
     Eigenvalues --- 1000.000001000.000001000.000001000.000001000.00000
     Eigenvalues --- 1000.00000
 RFO step:  Lambda=-1.52885269D-02 EMin= 2.36824082D-03
 Linear search not attempted -- first point.
 Iteration  1 RMS(Cart)=  0.03767566 RMS(Int)=  0.00114765
 Iteration  2 RMS(Cart)=  0.00134671 RMS(Int)=  0.00025510
 Iteration  3 RMS(Cart)=  0.00000078 RMS(Int)=  0.00025510
 Variable       Old X    -DE/DX   Delta X   Delta X   Delta X     New X
                                 (Linear)    (Quad)   (Total)
    R1        2.02201   0.01245   0.00000   0.03212   0.03212   2.05413
    R2        2.02201   0.01172   0.00000   0.03024   0.03024   2.05225
    R3        2.02201   0.01381   0.00000   0.03562   0.03562   2.05763
    R4        2.91018  -0.01743   0.00000  -0.05800  -0.05800   2.85218
    R5        2.37803  -0.08820   0.00000  -0.10790  -0.10790   2.27013
    R6        3.96842   0.01706   0.00000   0.10987   0.10987   4.07829
    A1        1.91063   0.00238   0.00000   0.02453   0.02462   1.93526
    A2        1.91063  -0.00133   0.00000  -0.00919  -0.00903   1.90161
    A3        1.91063   0.00508   0.00000   0.03366   0.03378   1.94442
    A4        1.91063   0.00204   0.00000   0.00228   0.00163   1.91226
    A5        1.91063  -0.00504   0.00000  -0.02796  -0.02821   1.88242
    A6        1.91063  -0.00313   0.00000  -0.02332  -0.02353   1.88710
    A7        2.09440   0.01116   0.00000   0.04208   0.04174   2.13613
    A8        2.09440  -0.01161   0.00000  -0.04376  -0.04409   2.05030
    A9        2.09440   0.00045   0.00000   0.00168   0.00134   2.09574
    D1        2.61799   0.00128   0.00000   0.02183   0.02186   2.63985
    D2       -0.52360   0.00043   0.00000  -0.02650  -0.02647  -0.55007
    D3        0.52360  -0.00166   0.00000  -0.01170  -0.01139   0.51221
    D4       -2.61799  -0.00251   0.00000  -0.06004  -0.05972  -2.67771
    D5       -1.57080   0.00085   0.00000   0.01690   0.01655  -1.55424
    D6        1.57080   0.00000   0.00000  -0.03143  -0.03177   1.53903
         Item               Value     Threshold  Converged?
 Maximum Force            0.088198     0.000450     NO 
 RMS     Force            0.020931     0.000300     NO 
 Maximum Displacement     0.092740     0.001800     NO 
 RMS     Displacement     0.038412     0.001200     NO 
 Predicted change in Energy=-7.972604D-03
 GradGradGradGradGradGradGradGradGradGradGradGradGradGradGradGradGradGrad

                          Input orientation:                          
 ---------------------------------------------------------------------
 Center     Atomic      Atomic             Coordinates (Angstroms)
 Number     Number       Type             X           Y           Z
 ---------------------------------------------------------------------
      1          6           0       -1.544214   -1.723825    0.157667
      2          1           0       -0.612882   -2.253291    0.341660
      3          1           0       -1.679195   -1.535224   -0.903281
      4          1           0       -2.372325   -2.325224    0.529346
      5          6           0       -1.572245   -0.394179    0.871295
      6          8           0       -2.197355    0.544830    0.458232
      7         53           0       -0.508357   -0.246212    2.743144
 ---------------------------------------------------------------------
                    Distance matrix (angstroms):
                    1          2          3          4          5
     1  C    0.000000
     2  H    1.086999   0.000000
     3  H    1.086002   1.789559   0.000000
     4  H    1.088850   1.770887   1.776781   0.000000
     5  C    1.509308   2.158052   2.112473   2.118016   0.000000
     6  O    2.379858   3.217705   2.539454   2.876261   1.201300
     7  I    3.152940   3.131519   4.040894   3.563364   2.158140
                    6          7
     6  O    0.000000
     7  I    2.949455   0.000000
 Stoichiometry    C2H3IO
 Framework group  C1[X(C2H3IO)]
 Deg. of freedom    15
 Full point group                 C1      NOp   1
 Largest Abelian subgroup         C1      NOp   1
 Largest concise Abelian subgroup C1      NOp   1
                         Standard orientation:                         
 ---------------------------------------------------------------------
 Center     Atomic      Atomic             Coordinates (Angstroms)
 Number     Number       Type             X           Y           Z
 ---------------------------------------------------------------------
      1          6           0       -2.182297   -1.032828   -0.000567
      2          1           0       -1.686741   -1.855035   -0.510436
      3          1           0       -3.131326   -0.799395   -0.474119
      4          1           0       -2.351974   -1.311688    1.038202
      5          6           0       -1.336161    0.216862   -0.018987
      6          8           0       -1.814702    1.318462    0.005474
      7         53           0        0.807517   -0.031807    0.000375
 ---------------------------------------------------------------------
 Rotational constants (GHZ):     10.4953294      2.1876011      1.8310026
 Basis read from rwf:  (5D, 7F)
 Pseudo-potential data read from rwf file.
 There are   243 symmetry adapted basis functions of A   symmetry.
 Integral buffers will be    262144 words long.
 Raffenetti 2 integral format.
 Two-electron integral symmetry is turned on.
   243 basis functions,   411 primitive gaussians,   279 cartesian basis functions
    38 alpha electrons       38 beta electrons
       nuclear repulsion energy       294.2053733314 Hartrees.
 NAtoms=    7 NActive=    7 NUniq=    7 SFac= 7.50D-01 NAtFMM=   80 NAOKFM=F Big=F
 One-electron integrals computed using PRISM.
   1 Symmetry operations used in ECPInt.
 ECPInt:  NShTT=    3486 NPrTT=   12271 LenC2=    3460 LenP2D=   10304.
 LDataN:  DoStor=T MaxTD1= 6 Len=  172
 NBasis=   243 RedAO= T  NBF=   243
 NBsUse=   243 1.00D-06 NBFU=   243
 Defaulting to unpruned grid for atomic number  53.
 Initial guess read from the read-write file.
 B after Tr=     0.000000    0.000000    0.000000
         Rot=    1.000000    0.000000    0.000000    0.000000 Ang=   0.00 deg.
 Initial guess orbital symmetries:
       Occupied  (A) (A) (A) (A) (A) (A) (A) (A) (A) (A) (A) (A)
                 (A) (A) (A) (A) (A) (A) (A) (A) (A) (A) (A) (A)
                 (A) (A) (A) (A) (A) (A) (A) (A) (A) (A) (A) (A)
                 (A) (A)
       Virtual   (A) (A) (A) (A) (A) (A) (A) (A) (A) (A) (A) (A)
                 (A) (A) (A) (A) (A) (A) (A) (A) (A) (A) (A) (A)
                 (A) (A) (A) (A) (A) (A) (A) (A) (A) (A) (A) (A)
                 (A) (A) (A) (A) (A) (A) (A) (A) (A) (A) (A) (A)
                 (A) (A) (A) (A) (A) (A) (A) (A) (A) (A) (A) (A)
                 (A) (A) (A) (A) (A) (A) (A) (A) (A) (A) (A) (A)
                 (A) (A) (A) (A) (A) (A) (A) (A) (A) (A) (A) (A)
                 (A) (A) (A) (A) (A) (A) (A) (A) (A) (A) (A) (A)
                 (A) (A) (A) (A) (A) (A) (A) (A) (A) (A) (A) (A)
                 (A) (A) (A) (A) (A) (A) (A) (A) (A) (A) (A) (A)
                 (A) (A) (A) (A) (A) (A) (A) (A) (A) (A) (A) (A)
                 (A) (A) (A) (A) (A) (A) (A) (A) (A) (A) (A) (A)
                 (A) (A) (A) (A) (A) (A) (A) (A) (A) (A) (A) (A)
                 (A) (A) (A) (A) (A) (A) (A) (A) (A) (A) (A) (A)
                 (A) (A) (A) (A) (A) (A) (A) (A) (A) (A) (A) (A)
                 (A) (A) (A) (A) (A) (A) (A) (A) (A) (A) (A) (A)
                 (A) (A) (A) (A) (A) (A) (A) (A) (A) (A) (A) (A)
                 (A)
 Harris functional with IExCor=  402 diagonalized for initial guess.
 ExpMin= 2.53D-02 ExpMax= 2.75D+05 ExpMxC= 4.12D+04 IAcc=3 IRadAn=         0 AccDes= 0.00D+00
 HarFok:  IExCor=  402 AccDes= 0.00D+00 IRadAn=         0 IDoV= 1
 ScaDFX=  1.000000  1.000000  1.000000  1.000000
 Defaulting to unpruned grid for atomic number  53.
 FoFCou: FMM=F IPFlag=           0 FMFlag=      100000 FMFlg1=           0
         NFxFlg=           0 DoJE=T BraDBF=F KetDBF=T FulRan=T
         Omega=  0.000000  0.000000  1.000000  0.000000  0.000000 ICntrl=     500 IOpCl=  0
         NMat0=    1 NMatS0=    1 NMatT0=    0 NMatD0=    1 NMtDS0=    0 NMtDT0=    0
         I1Cent=           4 NGrid=           0.
 Petite list used in FoFCou.
 Requested convergence on RMS density matrix=1.00D-08 within 128 cycles.
 Requested convergence on MAX density matrix=1.00D-06.
 Requested convergence on             energy=1.00D-06.
 No special actions if energy rises.
 Defaulting to unpruned grid for atomic number  53.
 SCF Done:  E(RB3LYP) =  -7073.17329429     A.U. after   12 cycles
             Convg  =    0.6152D-08             -V/T =  2.0017
   1 Symmetry operations used in ECPInt.
 ECPInt:  NShTT=    3486 NPrTT=   12271 LenC2=    3460 LenP2D=   10304.
 LDataN:  DoStor=T MaxTD1= 7 Len=  274
 Calling FoFJK, ICntrl=      2127 FMM=F ISym2X=0 I1Cent= 0 IOpClX= 0 NMat=1 NMatS=1 NMatT=0.
 Defaulting to unpruned grid for atomic number  53.
 ***** Axes restored to original set *****
 -------------------------------------------------------------------
 Center     Atomic                   Forces (Hartrees/Bohr)
 Number     Number              X              Y              Z
 -------------------------------------------------------------------
      1        6           0.008837892    0.002077049    0.005216023
      2        1          -0.001014583   -0.001105589   -0.000053237
      3        1          -0.001386775   -0.000517773   -0.001180912
      4        1          -0.000863836   -0.000933338    0.000846654
      5        6          -0.026597996    0.017909221   -0.024563182
      6        8           0.015179933   -0.016076149    0.011198342
      7       53           0.005845366   -0.001353421    0.008536312
 -------------------------------------------------------------------
 Cartesian Forces:  Max     0.026597996 RMS     0.010850701

 GradGradGradGradGradGradGradGradGradGradGradGradGradGradGradGradGradGrad
 Berny optimization.
 Using GEDIIS/GDIIS optimizer.
 Internal  Forces:  Max     0.024307391 RMS     0.006543190
 Search for a local minimum.
 Step number   2 out of a maximum of   31
 All quantities printed in internal units (Hartrees-Bohrs-Radians)
 Mixed Optimization -- RFO/linear search
 Update second derivatives using D2CorX and points    1    2
 DE= -1.03D-02 DEPred=-7.97D-03 R= 1.29D+00
 SS=  1.41D+00  RLast= 2.08D-01 DXNew= 5.0454D-01 6.2441D-01
 Trust test= 1.29D+00 RLast= 2.08D-01 DXMaxT set to 5.05D-01
 Use linear search instead of GDIIS.
     Eigenvalues ---    0.00236   0.00253   0.07022   0.07504   0.11871
     Eigenvalues ---    0.15950   0.16000   0.16228   0.22455   0.25005
     Eigenvalues ---    0.29171   0.37186   0.37230   0.38558   0.69615
     Eigenvalues --- 1000.000001000.000001000.000001000.000001000.00000
     Eigenvalues --- 1000.00000
 RFO step:  Lambda=-3.29878995D-03 EMin= 2.36372068D-03
 Quartic linear search produced a step of  0.38787.
 Maximum step size (   0.505) exceeded in Quadratic search.
    -- Step size scaled by   0.830
 Iteration  1 RMS(Cart)=  0.07952164 RMS(Int)=  0.01227049
 Iteration  2 RMS(Cart)=  0.01161722 RMS(Int)=  0.00818410
 Iteration  3 RMS(Cart)=  0.00005197 RMS(Int)=  0.00818388
 Iteration  4 RMS(Cart)=  0.00000075 RMS(Int)=  0.00818388
 Variable       Old X    -DE/DX   Delta X   Delta X   Delta X     New X
                                 (Linear)    (Quad)   (Total)
    R1        2.05413  -0.00033   0.01246  -0.00701   0.00545   2.05958
    R2        2.05225   0.00123   0.01173  -0.00185   0.00988   2.06213
    R3        2.05763   0.00146   0.01382  -0.00212   0.01170   2.06933
    R4        2.85218  -0.00175  -0.02250   0.00464  -0.01786   2.83432
    R5        2.27013  -0.02431  -0.04185  -0.01770  -0.05955   2.21057
    R6        4.07829   0.01018   0.04261   0.05306   0.09567   4.17397
    A1        1.93526  -0.00019   0.00955  -0.00199   0.00739   1.94265
    A2        1.90161  -0.00103  -0.00350  -0.00871  -0.01209   1.88952
    A3        1.94442   0.00181   0.01310   0.00537   0.01845   1.96286
    A4        1.91226  -0.00065   0.00063  -0.00680  -0.00645   1.90581
    A5        1.88242   0.00096  -0.01094   0.01569   0.00453   1.88696
    A6        1.88710  -0.00094  -0.00913  -0.00364  -0.01283   1.87427
    A7        2.13613   0.00990   0.01619   0.04201   0.03731   2.17344
    A8        2.05030  -0.00937  -0.01710  -0.02809  -0.06635   1.98395
    A9        2.09574  -0.00047   0.00052   0.00309  -0.01864   2.07709
    D1        2.63985  -0.00013   0.00848  -0.20421  -0.19351   2.44634
    D2       -0.55007   0.00109  -0.01027   0.20226   0.19001  -0.36005
    D3        0.51221  -0.00166  -0.00442  -0.21549  -0.21776   0.29445
    D4       -2.67771  -0.00044  -0.02316   0.19099   0.16577  -2.51195
    D5       -1.55424  -0.00091   0.00642  -0.21403  -0.20567  -1.75991
    D6        1.53903   0.00031  -0.01232   0.19245   0.17785   1.71688
         Item               Value     Threshold  Converged?
 Maximum Force            0.024307     0.000450     NO 
 RMS     Force            0.006543     0.000300     NO 
 Maximum Displacement     0.254437     0.001800     NO 
 RMS     Displacement     0.083838     0.001200     NO 
 Predicted change in Energy=-2.695658D-03
 GradGradGradGradGradGradGradGradGradGradGradGradGradGradGradGradGradGrad

                          Input orientation:                          
 ---------------------------------------------------------------------
 Center     Atomic      Atomic             Coordinates (Angstroms)
 Number     Number       Type             X           Y           Z
 ---------------------------------------------------------------------
      1          6           0       -1.554711   -1.716470    0.170174
      2          1           0       -0.617160   -2.219937    0.405475
      3          1           0       -1.639123   -1.515038   -0.898977
      4          1           0       -2.380126   -2.365707    0.480492
      5          6           0       -1.706887   -0.416726    0.903034
      6          8           0       -2.156217    0.558055    0.437948
      7         53           0       -0.432348   -0.257303    2.699917
 ---------------------------------------------------------------------
                    Distance matrix (angstroms):
                    1          2          3          4          5
     1  C    0.000000
     2  H    1.089885   0.000000
     3  H    1.091230   1.800802   0.000000
     4  H    1.095041   1.770572   1.782037   0.000000
     5  C    1.499859   2.164865   2.111427   2.104833   0.000000
     6  O    2.367905   3.176002   2.520411   2.932632   1.169786
     7  I    3.128653   3.024988   3.998780   3.628368   2.208768
                    6          7
     6  O    0.000000
     7  I    2.958553   0.000000
 Stoichiometry    C2H3IO
 Framework group  C1[X(C2H3IO)]
 Deg. of freedom    15
 Full point group                 C1      NOp   1
 Largest Abelian subgroup         C1      NOp   1
 Largest concise Abelian subgroup C1      NOp   1
                         Standard orientation:                         
 ---------------------------------------------------------------------
 Center     Atomic      Atomic             Coordinates (Angstroms)
 Number     Number       Type             X           Y           Z
 ---------------------------------------------------------------------
      1          6           0       -2.149306   -1.045553   -0.026076
      2          1           0       -1.567978   -1.827596   -0.514252
      3          1           0       -3.065922   -0.830079   -0.577592
      4          1           0       -2.407439   -1.388156    0.981449
      5          6           0       -1.380531    0.234114    0.118882
      6          8           0       -1.833599    1.301183   -0.037616
      7         53           0        0.809229   -0.028207   -0.002745
 ---------------------------------------------------------------------
 Rotational constants (GHZ):     10.4937780      2.1793830      1.8277599
 Basis read from rwf:  (5D, 7F)
 Pseudo-potential data read from rwf file.
 There are   243 symmetry adapted basis functions of A   symmetry.
 Integral buffers will be    262144 words long.
 Raffenetti 2 integral format.
 Two-electron integral symmetry is turned on.
   243 basis functions,   411 primitive gaussians,   279 cartesian basis functions
    38 alpha electrons       38 beta electrons
       nuclear repulsion energy       293.5151987621 Hartrees.
 NAtoms=    7 NActive=    7 NUniq=    7 SFac= 7.50D-01 NAtFMM=   80 NAOKFM=F Big=F
 One-electron integrals computed using PRISM.
   1 Symmetry operations used in ECPInt.
 ECPInt:  NShTT=    3486 NPrTT=   12271 LenC2=    3461 LenP2D=   10300.
 LDataN:  DoStor=T MaxTD1= 6 Len=  172
 NBasis=   243 RedAO= T  NBF=   243
 NBsUse=   243 1.00D-06 NBFU=   243
 Defaulting to unpruned grid for atomic number  53.
 Initial guess read from the read-write file.
 B after Tr=     0.000000    0.000000    0.000000
         Rot=    1.000000    0.000000    0.000000    0.000000 Ang=   0.00 deg.
 Initial guess orbital symmetries:
       Occupied  (A) (A) (A) (A) (A) (A) (A) (A) (A) (A) (A) (A)
                 (A) (A) (A) (A) (A) (A) (A) (A) (A) (A) (A) (A)
                 (A) (A) (A) (A) (A) (A) (A) (A) (A) (A) (A) (A)
                 (A) (A)
       Virtual   (A) (A) (A) (A) (A) (A) (A) (A) (A) (A) (A) (A)
                 (A) (A) (A) (A) (A) (A) (A) (A) (A) (A) (A) (A)
                 (A) (A) (A) (A) (A) (A) (A) (A) (A) (A) (A) (A)
                 (A) (A) (A) (A) (A) (A) (A) (A) (A) (A) (A) (A)
                 (A) (A) (A) (A) (A) (A) (A) (A) (A) (A) (A) (A)
                 (A) (A) (A) (A) (A) (A) (A) (A) (A) (A) (A) (A)
                 (A) (A) (A) (A) (A) (A) (A) (A) (A) (A) (A) (A)
                 (A) (A) (A) (A) (A) (A) (A) (A) (A) (A) (A) (A)
                 (A) (A) (A) (A) (A) (A) (A) (A) (A) (A) (A) (A)
                 (A) (A) (A) (A) (A) (A) (A) (A) (A) (A) (A) (A)
                 (A) (A) (A) (A) (A) (A) (A) (A) (A) (A) (A) (A)
                 (A) (A) (A) (A) (A) (A) (A) (A) (A) (A) (A) (A)
                 (A) (A) (A) (A) (A) (A) (A) (A) (A) (A) (A) (A)
                 (A) (A) (A) (A) (A) (A) (A) (A) (A) (A) (A) (A)
                 (A) (A) (A) (A) (A) (A) (A) (A) (A) (A) (A) (A)
                 (A) (A) (A) (A) (A) (A) (A) (A) (A) (A) (A) (A)
                 (A) (A) (A) (A) (A) (A) (A) (A) (A) (A) (A) (A)
                 (A)
 Harris functional with IExCor=  402 diagonalized for initial guess.
 ExpMin= 2.53D-02 ExpMax= 2.75D+05 ExpMxC= 4.12D+04 IAcc=3 IRadAn=         0 AccDes= 0.00D+00
 HarFok:  IExCor=  402 AccDes= 0.00D+00 IRadAn=         0 IDoV= 1
 ScaDFX=  1.000000  1.000000  1.000000  1.000000
 Defaulting to unpruned grid for atomic number  53.
 FoFCou: FMM=F IPFlag=           0 FMFlag=      100000 FMFlg1=           0
         NFxFlg=           0 DoJE=T BraDBF=F KetDBF=T FulRan=T
         Omega=  0.000000  0.000000  1.000000  0.000000  0.000000 ICntrl=     500 IOpCl=  0
         NMat0=    1 NMatS0=    1 NMatT0=    0 NMatD0=    1 NMtDS0=    0 NMtDT0=    0
         I1Cent=           4 NGrid=           0.
 Petite list used in FoFCou.
 Requested convergence on RMS density matrix=1.00D-08 within 128 cycles.
 Requested convergence on MAX density matrix=1.00D-06.
 Requested convergence on             energy=1.00D-06.
 No special actions if energy rises.
 Defaulting to unpruned grid for atomic number  53.
 SCF Done:  E(RB3LYP) =  -7073.16991506     A.U. after   14 cycles
             Convg  =    0.1155D-08             -V/T =  2.0017
   1 Symmetry operations used in ECPInt.
 ECPInt:  NShTT=    3486 NPrTT=   12271 LenC2=    3461 LenP2D=   10300.
 LDataN:  DoStor=T MaxTD1= 7 Len=  274
 Calling FoFJK, ICntrl=      2127 FMM=F ISym2X=0 I1Cent= 0 IOpClX= 0 NMat=1 NMatS=1 NMatT=0.
 Defaulting to unpruned grid for atomic number  53.
 ***** Axes restored to original set *****
 -------------------------------------------------------------------
 Center     Atomic                   Forces (Hartrees/Bohr)
 Number     Number              X              Y              Z
 -------------------------------------------------------------------
      1        6          -0.008587167   -0.010006314    0.004096732
      2        1          -0.002976947    0.002809637    0.000459642
      3        1          -0.000879955   -0.000565932    0.002134759
      4        1           0.001963965   -0.001783513   -0.001998525
      5        6           0.032598668   -0.005319202   -0.014968818
      6        8          -0.020942343    0.016611227   -0.000083871
      7       53          -0.001176221   -0.001745903    0.010360081
 -------------------------------------------------------------------
 Cartesian Forces:  Max     0.032598668 RMS     0.010613598

 GradGradGradGradGradGradGradGradGradGradGradGradGradGradGradGradGradGrad
 Berny optimization.
 Using GEDIIS/GDIIS optimizer.
 Internal  Forces:  Max     0.021930216 RMS     0.007639066
 Search for a local minimum.
 Step number   3 out of a maximum of   31
 All quantities printed in internal units (Hartrees-Bohrs-Radians)
 Mixed Optimization -- RFO/linear search
 Update second derivatives using D2CorX and points    1    3    2
 DE=  3.38D-03 DEPred=-2.70D-03 R=-1.25D+00
 Trust test=-1.25D+00 RLast= 4.93D-01 DXMaxT set to 2.52D-01
 Use linear search instead of GDIIS.
 Quartic linear search produced a step of -0.71685.
 Iteration  1 RMS(Cart)=  0.06329964 RMS(Int)=  0.00574614
 Iteration  2 RMS(Cart)=  0.00635503 RMS(Int)=  0.00163041
 Iteration  3 RMS(Cart)=  0.00001469 RMS(Int)=  0.00163034
 Iteration  4 RMS(Cart)=  0.00000001 RMS(Int)=  0.00163034
 Variable       Old X    -DE/DX   Delta X   Delta X   Delta X     New X
                                 (Linear)    (Quad)   (Total)
    R1        2.05958  -0.00375  -0.00391   0.00000  -0.00391   2.05567
    R2        2.06213  -0.00213  -0.00708   0.00000  -0.00708   2.05504
    R3        2.06933  -0.00099  -0.00839   0.00000  -0.00839   2.06094
    R4        2.83432   0.00493   0.01280   0.00000   0.01280   2.84712
    R5        2.21057   0.02193   0.04269   0.00000   0.04269   2.25327
    R6        4.17397   0.00761  -0.06858   0.00000  -0.06858   4.10538
    A1        1.94265   0.00117  -0.00530   0.00000  -0.00526   1.93739
    A2        1.88952  -0.00109   0.00866   0.00000   0.00865   1.89817
    A3        1.96286  -0.00335  -0.01322   0.00000  -0.01321   1.94966
    A4        1.90581  -0.00173   0.00462   0.00000   0.00463   1.91044
    A5        1.88696  -0.00004  -0.00325   0.00000  -0.00323   1.88373
    A6        1.87427   0.00519   0.00920   0.00000   0.00919   1.88346
    A7        2.17344   0.00824  -0.02674   0.00000  -0.02244   2.15101
    A8        1.98395   0.00032   0.04756   0.00000   0.05187   2.03583
    A9        2.07709  -0.00274   0.01336   0.00000   0.01768   2.09478
    D1        2.44634   0.00877   0.13872   0.00000   0.13862   2.58496
    D2       -0.36005  -0.00989  -0.13621   0.00000  -0.13616  -0.49621
    D3        0.29445   0.00953   0.15610   0.00000   0.15604   0.45049
    D4       -2.51195  -0.00913  -0.11883   0.00000  -0.11874  -2.63069
    D5       -1.75991   0.00881   0.14744   0.00000   0.14737  -1.61254
    D6        1.71688  -0.00985  -0.12749   0.00000  -0.12741   1.58947
         Item               Value     Threshold  Converged?
 Maximum Force            0.021930     0.000450     NO 
 RMS     Force            0.007639     0.000300     NO 
 Maximum Displacement     0.183375     0.001800     NO 
 RMS     Displacement     0.060935     0.001200     NO 
 Predicted change in Energy=-6.671606D-04
 GradGradGradGradGradGradGradGradGradGradGradGradGradGradGradGradGradGrad

                          Input orientation:                          
 ---------------------------------------------------------------------
 Center     Atomic      Atomic             Coordinates (Angstroms)
 Number     Number       Type             X           Y           Z
 ---------------------------------------------------------------------
      1          6           0       -1.547217   -1.722645    0.160460
      2          1           0       -0.613271   -2.244444    0.357474
      3          1           0       -1.669489   -1.530354   -0.902880
      4          1           0       -2.374489   -2.338039    0.515885
      5          6           0       -1.609849   -0.400976    0.881021
      6          8           0       -2.185237    0.551014    0.451597
      7         53           0       -0.487021   -0.247681    2.734506
 ---------------------------------------------------------------------
                    Distance matrix (angstroms):
                    1          2          3          4          5
     1  C    0.000000
     2  H    1.087816   0.000000
     3  H    1.087482   1.792767   0.000000
     4  H    1.090603   1.770803   1.778278   0.000000
     5  C    1.506632   2.160010   2.112192   2.114287   0.000000
     6  O    2.379361   3.208508   2.536277   2.895958   1.192377
     7  I    3.150436   3.106973   4.034112   3.585304   2.172475
                    6          7
     6  O    0.000000
     7  I    2.955254   0.000000
 Stoichiometry    C2H3IO
 Framework group  C1[X(C2H3IO)]
 Deg. of freedom    15
 Full point group                 C1      NOp   1
 Largest Abelian subgroup         C1      NOp   1
 Largest concise Abelian subgroup C1      NOp   1
                         Standard orientation:                         
 ---------------------------------------------------------------------
 Center     Atomic      Atomic             Coordinates (Angstroms)
 Number     Number       Type             X           Y           Z
 ---------------------------------------------------------------------
      1          6           0       -2.176504   -1.037179   -0.007993
      2          1           0       -1.658159   -1.848165   -0.514909
      3          1           0       -3.117924   -0.807530   -0.501558
      4          1           0       -2.370054   -1.335009    1.023148
      5          6           0       -1.348766    0.221378    0.020731
      6          8           0       -1.821760    1.315588   -0.006553
      7         53           0        0.808903   -0.030928   -0.000579
 ---------------------------------------------------------------------
 Rotational constants (GHZ):     10.4836564      2.1809521      1.8260183
 Basis read from rwf:  (5D, 7F)
 Pseudo-potential data read from rwf file.
 There are   243 symmetry adapted basis functions of A   symmetry.
 Integral buffers will be    262144 words long.
 Raffenetti 2 integral format.
 Two-electron integral symmetry is turned on.
   243 basis functions,   411 primitive gaussians,   279 cartesian basis functions
    38 alpha electrons       38 beta electrons
       nuclear repulsion energy       293.7868716915 Hartrees.
 NAtoms=    7 NActive=    7 NUniq=    7 SFac= 7.50D-01 NAtFMM=   80 NAOKFM=F Big=F
 One-electron integrals computed using PRISM.
   1 Symmetry operations used in ECPInt.
 ECPInt:  NShTT=    3486 NPrTT=   12271 LenC2=    3460 LenP2D=   10302.
 LDataN:  DoStor=T MaxTD1= 6 Len=  172
 NBasis=   243 RedAO= T  NBF=   243
 NBsUse=   243 1.00D-06 NBFU=   243
 Defaulting to unpruned grid for atomic number  53.
 Initial guess read from the read-write file.
 B after Tr=     0.000000    0.000000    0.000000
         Rot=    1.000000    0.000000    0.000000    0.000000 Ang=   0.00 deg.
 Initial guess orbital symmetries:
       Occupied  (A) (A) (A) (A) (A) (A) (A) (A) (A) (A) (A) (A)
                 (A) (A) (A) (A) (A) (A) (A) (A) (A) (A) (A) (A)
                 (A) (A) (A) (A) (A) (A) (A) (A) (A) (A) (A) (A)
                 (A) (A)
       Virtual   (A) (A) (A) (A) (A) (A) (A) (A) (A) (A) (A) (A)
                 (A) (A) (A) (A) (A) (A) (A) (A) (A) (A) (A) (A)
                 (A) (A) (A) (A) (A) (A) (A) (A) (A) (A) (A) (A)
                 (A) (A) (A) (A) (A) (A) (A) (A) (A) (A) (A) (A)
                 (A) (A) (A) (A) (A) (A) (A) (A) (A) (A) (A) (A)
                 (A) (A) (A) (A) (A) (A) (A) (A) (A) (A) (A) (A)
                 (A) (A) (A) (A) (A) (A) (A) (A) (A) (A) (A) (A)
                 (A) (A) (A) (A) (A) (A) (A) (A) (A) (A) (A) (A)
                 (A) (A) (A) (A) (A) (A) (A) (A) (A) (A) (A) (A)
                 (A) (A) (A) (A) (A) (A) (A) (A) (A) (A) (A) (A)
                 (A) (A) (A) (A) (A) (A) (A) (A) (A) (A) (A) (A)
                 (A) (A) (A) (A) (A) (A) (A) (A) (A) (A) (A) (A)
                 (A) (A) (A) (A) (A) (A) (A) (A) (A) (A) (A) (A)
                 (A) (A) (A) (A) (A) (A) (A) (A) (A) (A) (A) (A)
                 (A) (A) (A) (A) (A) (A) (A) (A) (A) (A) (A) (A)
                 (A) (A) (A) (A) (A) (A) (A) (A) (A) (A) (A) (A)
                 (A) (A) (A) (A) (A) (A) (A) (A) (A) (A) (A) (A)
                 (A)
 Harris functional with IExCor=  402 diagonalized for initial guess.
 ExpMin= 2.53D-02 ExpMax= 2.75D+05 ExpMxC= 4.12D+04 IAcc=3 IRadAn=         0 AccDes= 0.00D+00
 HarFok:  IExCor=  402 AccDes= 0.00D+00 IRadAn=         0 IDoV= 1
 ScaDFX=  1.000000  1.000000  1.000000  1.000000
 Defaulting to unpruned grid for atomic number  53.
 FoFCou: FMM=F IPFlag=           0 FMFlag=      100000 FMFlg1=           0
         NFxFlg=           0 DoJE=T BraDBF=F KetDBF=T FulRan=T
         Omega=  0.000000  0.000000  1.000000  0.000000  0.000000 ICntrl=     500 IOpCl=  0
         NMat0=    1 NMatS0=    1 NMatT0=    0 NMatD0=    1 NMtDS0=    0 NMtDT0=    0
         I1Cent=           4 NGrid=           0.
 Petite list used in FoFCou.
 Requested convergence on RMS density matrix=1.00D-08 within 128 cycles.
 Requested convergence on MAX density matrix=1.00D-06.
 Requested convergence on             energy=1.00D-06.
 No special actions if energy rises.
 Defaulting to unpruned grid for atomic number  53.
 SCF Done:  E(RB3LYP) =  -7073.17390483     A.U. after   13 cycles
             Convg  =    0.3914D-08             -V/T =  2.0017
   1 Symmetry operations used in ECPInt.
 ECPInt:  NShTT=    3486 NPrTT=   12271 LenC2=    3460 LenP2D=   10302.
 LDataN:  DoStor=T MaxTD1= 7 Len=  274
 Calling FoFJK, ICntrl=      2127 FMM=F ISym2X=0 I1Cent= 0 IOpClX= 0 NMat=1 NMatS=1 NMatT=0.
 Defaulting to unpruned grid for atomic number  53.
 ***** Axes restored to original set *****
 -------------------------------------------------------------------
 Center     Atomic                   Forces (Hartrees/Bohr)
 Number     Number              X              Y              Z
 -------------------------------------------------------------------
      1        6           0.003823788   -0.000747744    0.005382987
      2        1          -0.001499736    0.000026170    0.000138288
      3        1          -0.001202527   -0.000518964   -0.000225656
      4        1          -0.000094389   -0.001192199    0.000028539
      5        6          -0.009258191    0.013130919   -0.022776059
      6        8           0.004802433   -0.009037029    0.009216194
      7       53           0.003428622   -0.001661153    0.008235707
 -------------------------------------------------------------------
 Cartesian Forces:  Max     0.022776059 RMS     0.007232594

 GradGradGradGradGradGradGradGradGradGradGradGradGradGradGradGradGradGrad
 Berny optimization.
 Using GEDIIS/GDIIS optimizer.
 Internal  Forces:  Max     0.012843691 RMS     0.004375013
 Search for a local minimum.
 Step number   4 out of a maximum of   31
 All quantities printed in internal units (Hartrees-Bohrs-Radians)
 Mixed Optimization -- RFO/linear search
 Update second derivatives using D2CorX and points    1    3    2    4
 Use linear search instead of GDIIS.
     Eigenvalues ---    0.00236   0.03956   0.06842   0.07552   0.08349
     Eigenvalues ---    0.15948   0.16065   0.16470   0.20006   0.24963
     Eigenvalues ---    0.28654   0.37164   0.37237   0.37809   0.71633
     Eigenvalues --- 1000.000001000.000001000.000001000.000001000.00000
     Eigenvalues --- 1000.00000
 RFO step:  Lambda=-4.58869902D-03 EMin= 2.36329363D-03
 Quartic linear search produced a step of  0.00389.
 Maximum step size (   0.252) exceeded in Quadratic search.
    -- Step size scaled by   0.844
 Iteration  1 RMS(Cart)=  0.06288958 RMS(Int)=  0.00369336
 Iteration  2 RMS(Cart)=  0.00420808 RMS(Int)=  0.00073290
 Iteration  3 RMS(Cart)=  0.00000631 RMS(Int)=  0.00073287
 Iteration  4 RMS(Cart)=  0.00000000 RMS(Int)=  0.00073287
 Variable       Old X    -DE/DX   Delta X   Delta X   Delta X     New X
                                 (Linear)    (Quad)   (Total)
    R1        2.05567  -0.00127   0.00001  -0.01040  -0.01039   2.04528
    R2        2.05504   0.00026   0.00001   0.00002   0.00004   2.05508
    R3        2.06094   0.00075   0.00001   0.00094   0.00095   2.06189
    R4        2.84712  -0.00036  -0.00002   0.00067   0.00065   2.84777
    R5        2.25327  -0.01284  -0.00007  -0.04720  -0.04726   2.20600
    R6        4.10538   0.00867   0.00011   0.12807   0.12817   4.23356
    A1        1.93739   0.00022   0.00001   0.00295   0.00254   1.93993
    A2        1.89817  -0.00102  -0.00001  -0.01953  -0.01953   1.87865
    A3        1.94966   0.00030   0.00002   0.01292   0.01272   1.96238
    A4        1.91044  -0.00093  -0.00001  -0.01547  -0.01544   1.89500
    A5        1.88373   0.00066   0.00001   0.02457   0.02435   1.90808
    A6        1.88346   0.00077  -0.00001  -0.00606  -0.00605   1.87741
    A7        2.15101   0.00835   0.00006   0.08243   0.08059   2.23159
    A8        2.03583  -0.00756  -0.00006  -0.07391  -0.07587   1.95996
    A9        2.09478  -0.00056   0.00000  -0.00248  -0.00438   2.09039
    D1        2.58496   0.00236  -0.00021   0.03224   0.03217   2.61713
    D2       -0.49621  -0.00195   0.00021  -0.08306  -0.08265  -0.57886
    D3        0.45049   0.00145  -0.00024   0.00376   0.00332   0.45380
    D4       -2.63069  -0.00286   0.00018  -0.11154  -0.11150  -2.74219
    D5       -1.61254   0.00177  -0.00023   0.01204   0.01179  -1.60076
    D6        1.58947  -0.00254   0.00020  -0.10326  -0.10303   1.48644
         Item               Value     Threshold  Converged?
 Maximum Force            0.012844     0.000450     NO 
 RMS     Force            0.004375     0.000300     NO 
 Maximum Displacement     0.124800     0.001800     NO 
 RMS     Displacement     0.064387     0.001200     NO 
 Predicted change in Energy=-2.415525D-03
 GradGradGradGradGradGradGradGradGradGradGradGradGradGradGradGradGradGrad

                          Input orientation:                          
 ---------------------------------------------------------------------
 Center     Atomic      Atomic             Coordinates (Angstroms)
 Number     Number       Type             X           Y           Z
 ---------------------------------------------------------------------
      1          6           0       -1.536302   -1.710209    0.153129
      2          1           0       -0.600660   -2.217842    0.348821
      3          1           0       -1.704408   -1.595279   -0.915136
      4          1           0       -2.338116   -2.323556    0.567151
      5          6           0       -1.607650   -0.359403    0.817365
      6          8           0       -2.187964    0.586888    0.456100
      7         53           0       -0.511471   -0.313723    2.770632
 ---------------------------------------------------------------------
                    Distance matrix (angstroms):
                    1          2          3          4          5
     1  C    0.000000
     2  H    1.082318   0.000000
     3  H    1.087501   1.789813   0.000000
     4  H    1.091108   1.754308   1.768940   0.000000
     5  C    1.506976   2.165031   2.130331   2.110470   0.000000
     6  O    2.406889   3.224524   2.622207   2.916431   1.167366
     7  I    3.138754   3.082012   4.080487   3.497341   2.240301
                    6          7
     6  O    0.000000
     7  I    2.996463   0.000000
 Stoichiometry    C2H3IO
 Framework group  C1[X(C2H3IO)]
 Deg. of freedom    15
 Full point group                 C1      NOp   1
 Largest Abelian subgroup         C1      NOp   1
 Largest concise Abelian subgroup C1      NOp   1
                         Standard orientation:                         
 ---------------------------------------------------------------------
 Center     Atomic      Atomic             Coordinates (Angstroms)
 Number     Number       Type             X           Y           Z
 ---------------------------------------------------------------------
      1          6           0       -2.143736   -1.073115   -0.004357
      2          1           0       -1.609892   -1.851498   -0.534018
      3          1           0       -3.141522   -0.933316   -0.413672
      4          1           0       -2.235867   -1.385248    1.037084
      5          6           0       -1.408802    0.242389   -0.021615
      6          8           0       -1.863165    1.317342    0.006226
      7         53           0        0.815242   -0.026119    0.000314
 ---------------------------------------------------------------------
 Rotational constants (GHZ):     10.1928549      2.1494636      1.7946677
 Basis read from rwf:  (5D, 7F)
 Pseudo-potential data read from rwf file.
 There are   243 symmetry adapted basis functions of A   symmetry.
 Integral buffers will be    262144 words long.
 Raffenetti 2 integral format.
 Two-electron integral symmetry is turned on.
   243 basis functions,   411 primitive gaussians,   279 cartesian basis functions
    38 alpha electrons       38 beta electrons
       nuclear repulsion energy       291.0519855150 Hartrees.
 NAtoms=    7 NActive=    7 NUniq=    7 SFac= 7.50D-01 NAtFMM=   80 NAOKFM=F Big=F
 One-electron integrals computed using PRISM.
   1 Symmetry operations used in ECPInt.
 ECPInt:  NShTT=    3486 NPrTT=   12271 LenC2=    3460 LenP2D=   10286.
 LDataN:  DoStor=T MaxTD1= 6 Len=  172
 NBasis=   243 RedAO= T  NBF=   243
 NBsUse=   243 1.00D-06 NBFU=   243
 Defaulting to unpruned grid for atomic number  53.
 Initial guess read from the read-write file.
 B after Tr=     0.000000    0.000000    0.000000
         Rot=    1.000000    0.000000    0.000000    0.000000 Ang=   0.00 deg.
 Initial guess orbital symmetries:
       Occupied  (A) (A) (A) (A) (A) (A) (A) (A) (A) (A) (A) (A)
                 (A) (A) (A) (A) (A) (A) (A) (A) (A) (A) (A) (A)
                 (A) (A) (A) (A) (A) (A) (A) (A) (A) (A) (A) (A)
                 (A) (A)
       Virtual   (A) (A) (A) (A) (A) (A) (A) (A) (A) (A) (A) (A)
                 (A) (A) (A) (A) (A) (A) (A) (A) (A) (A) (A) (A)
                 (A) (A) (A) (A) (A) (A) (A) (A) (A) (A) (A) (A)
                 (A) (A) (A) (A) (A) (A) (A) (A) (A) (A) (A) (A)
                 (A) (A) (A) (A) (A) (A) (A) (A) (A) (A) (A) (A)
                 (A) (A) (A) (A) (A) (A) (A) (A) (A) (A) (A) (A)
                 (A) (A) (A) (A) (A) (A) (A) (A) (A) (A) (A) (A)
                 (A) (A) (A) (A) (A) (A) (A) (A) (A) (A) (A) (A)
                 (A) (A) (A) (A) (A) (A) (A) (A) (A) (A) (A) (A)
                 (A) (A) (A) (A) (A) (A) (A) (A) (A) (A) (A) (A)
                 (A) (A) (A) (A) (A) (A) (A) (A) (A) (A) (A) (A)
                 (A) (A) (A) (A) (A) (A) (A) (A) (A) (A) (A) (A)
                 (A) (A) (A) (A) (A) (A) (A) (A) (A) (A) (A) (A)
                 (A) (A) (A) (A) (A) (A) (A) (A) (A) (A) (A) (A)
                 (A) (A) (A) (A) (A) (A) (A) (A) (A) (A) (A) (A)
                 (A) (A) (A) (A) (A) (A) (A) (A) (A) (A) (A) (A)
                 (A) (A) (A) (A) (A) (A) (A) (A) (A) (A) (A) (A)
                 (A)
 Harris functional with IExCor=  402 diagonalized for initial guess.
 ExpMin= 2.53D-02 ExpMax= 2.75D+05 ExpMxC= 4.12D+04 IAcc=3 IRadAn=         0 AccDes= 0.00D+00
 HarFok:  IExCor=  402 AccDes= 0.00D+00 IRadAn=         0 IDoV= 1
 ScaDFX=  1.000000  1.000000  1.000000  1.000000
 Defaulting to unpruned grid for atomic number  53.
 FoFCou: FMM=F IPFlag=           0 FMFlag=      100000 FMFlg1=           0
         NFxFlg=           0 DoJE=T BraDBF=F KetDBF=T FulRan=T
         Omega=  0.000000  0.000000  1.000000  0.000000  0.000000 ICntrl=     500 IOpCl=  0
         NMat0=    1 NMatS0=    1 NMatT0=    0 NMatD0=    1 NMtDS0=    0 NMtDT0=    0
         I1Cent=           4 NGrid=           0.
 Petite list used in FoFCou.
 Requested convergence on RMS density matrix=1.00D-08 within 128 cycles.
 Requested convergence on MAX density matrix=1.00D-06.
 Requested convergence on             energy=1.00D-06.
 No special actions if energy rises.
 Defaulting to unpruned grid for atomic number  53.
 SCF Done:  E(RB3LYP) =  -7073.17528121     A.U. after   13 cycles
             Convg  =    0.3715D-08             -V/T =  2.0017
   1 Symmetry operations used in ECPInt.
 ECPInt:  NShTT=    3486 NPrTT=   12271 LenC2=    3460 LenP2D=   10286.
 LDataN:  DoStor=T MaxTD1= 7 Len=  274
 Calling FoFJK, ICntrl=      2127 FMM=F ISym2X=0 I1Cent= 0 IOpClX= 0 NMat=1 NMatS=1 NMatT=0.
 Defaulting to unpruned grid for atomic number  53.
 ***** Axes restored to original set *****
 -------------------------------------------------------------------
 Center     Atomic                   Forces (Hartrees/Bohr)
 Number     Number              X              Y              Z
 -------------------------------------------------------------------
      1        6          -0.001577898    0.001584926   -0.000634910
      2        1           0.002228951    0.001046477    0.000763496
      3        1          -0.000587719    0.000949956   -0.001079416
      4        1          -0.000679891    0.000387105    0.001094635
      5        6           0.007495545   -0.018402590    0.005428349
      6        8          -0.007790552    0.014301515   -0.007085037
      7       53           0.000911563    0.000132611    0.001512884
 -------------------------------------------------------------------
 Cartesian Forces:  Max     0.018402590 RMS     0.006012451

 GradGradGradGradGradGradGradGradGradGradGradGradGradGradGradGradGradGrad
 Berny optimization.
 Using GEDIIS/GDIIS optimizer.
 Internal  Forces:  Max     0.017664621 RMS     0.004096439
 Search for a local minimum.
 Step number   5 out of a maximum of   31
 All quantities printed in internal units (Hartrees-Bohrs-Radians)
 Mixed Optimization -- RFO/linear search
 Update second derivatives using D2CorX and points    1    3    2    4    5
 DE= -1.38D-03 DEPred=-2.42D-03 R= 5.70D-01
 SS=  1.41D+00  RLast= 2.52D-01 DXNew= 4.2426D-01 7.5611D-01
 Trust test= 5.70D-01 RLast= 2.52D-01 DXMaxT set to 4.24D-01
 Use linear search instead of GDIIS.
     Eigenvalues ---    0.00233   0.04863   0.06775   0.07471   0.08728
     Eigenvalues ---    0.15758   0.16230   0.16450   0.21068   0.25275
     Eigenvalues ---    0.28144   0.36591   0.37189   0.37255   0.87384
     Eigenvalues --- 1000.000001000.000001000.000001000.000001000.00000
     Eigenvalues --- 1000.00000
 RFO step:  Lambda=-5.32982929D-04 EMin= 2.32730092D-03
 Quartic linear search produced a step of -0.21817.
 Iteration  1 RMS(Cart)=  0.06052624 RMS(Int)=  0.00172790
 Iteration  2 RMS(Cart)=  0.00177195 RMS(Int)=  0.00013429
 Iteration  3 RMS(Cart)=  0.00000135 RMS(Int)=  0.00013428
 Iteration  4 RMS(Cart)=  0.00000000 RMS(Int)=  0.00013428
 Variable       Old X    -DE/DX   Delta X   Delta X   Delta X     New X
                                 (Linear)    (Quad)   (Total)
    R1        2.04528   0.00158   0.00227   0.00228   0.00455   2.04983
    R2        2.05508   0.00124  -0.00001   0.00314   0.00313   2.05821
    R3        2.06189   0.00070  -0.00021   0.00244   0.00223   2.06413
    R4        2.84777  -0.00364  -0.00014  -0.01087  -0.01101   2.83676
    R5        2.20600   0.01766   0.01031   0.00851   0.01882   2.22482
    R6        4.23356   0.00176  -0.02796   0.03243   0.00447   4.23802
    A1        1.93993   0.00136  -0.00055   0.00688   0.00636   1.94629
    A2        1.87865   0.00166   0.00426   0.00462   0.00886   1.88751
    A3        1.96238  -0.00241  -0.00278  -0.01014  -0.01291   1.94947
    A4        1.89500   0.00098   0.00337   0.00339   0.00675   1.90174
    A5        1.90808  -0.00052  -0.00531  -0.00018  -0.00548   1.90260
    A6        1.87741  -0.00100   0.00132  -0.00445  -0.00315   1.87427
    A7        2.23159  -0.00160  -0.01758   0.00798  -0.00925   2.22234
    A8        1.95996   0.00105   0.01655  -0.00921   0.00770   1.96765
    A9        2.09039   0.00060   0.00096   0.00096   0.00227   2.09266
    D1        2.61713  -0.00104  -0.00702  -0.11585  -0.12289   2.49424
    D2       -0.57886   0.00001   0.01803  -0.12173  -0.10372  -0.68258
    D3        0.45380  -0.00072  -0.00072  -0.11748  -0.11818   0.33562
[...]
     3   1     0.00   0.00   0.54     0.35  -0.28   0.00    -0.12   0.36   0.00
     4   1     0.42  -0.28  -0.32     0.53   0.04  -0.01    -0.43  -0.17   0.01
     5   6     0.00   0.00   0.01     0.17   0.09   0.00     0.24  -0.26   0.00
     6   8     0.00   0.00  -0.04     0.12   0.07   0.00     0.48  -0.15   0.00
     7  53     0.00   0.00   0.00    -0.08  -0.01   0.00    -0.06   0.05   0.00
                     4                      5                      6
                     A                      A                      A
 Frequencies --   474.2544               549.1933               935.2398
 Red. masses --     3.1863                 3.9978                 3.2637
 Frc consts  --     0.4222                 0.7104                 1.6819
 IR Inten    --     0.5062               120.5082                85.4945
  Atom  AN      X      Y      Z        X      Y      Z        X      Y      Z
     1   6     0.00   0.00   0.03     0.07   0.24   0.00     0.04   0.30   0.00
     2   1    -0.33  -0.42   0.20    -0.24   0.10  -0.01     0.45   0.42   0.06
     3   1     0.00   0.00   0.40     0.16   0.77   0.00    -0.04  -0.19   0.00
     4   1     0.33   0.42   0.20    -0.24   0.10   0.01     0.45   0.42  -0.06
     5   6     0.00   0.00  -0.40     0.31   0.00   0.00    -0.22  -0.18   0.00
     6   8     0.00   0.00   0.15    -0.20  -0.20   0.00     0.08  -0.14   0.00
     7  53     0.00   0.00   0.01    -0.01  -0.01   0.00     0.00   0.00   0.00
                     7                      8                      9
                     A                      A                      A
 Frequencies --  1032.2686              1091.4284              1382.1578
 Red. masses --     1.5432                 1.7822                 1.2284
 Frc consts  --     0.9689                 1.2508                 1.3827
 IR Inten    --     0.7592               148.7327                22.7568
  Atom  AN      X      Y      Z        X      Y      Z        X      Y      Z
     1   6     0.00   0.00   0.16     0.18  -0.02   0.00     0.06   0.13   0.00
     2   1     0.26   0.57  -0.15    -0.34  -0.10  -0.11    -0.28  -0.48   0.27
     3   1     0.00   0.00  -0.37     0.29   0.75   0.00    -0.04  -0.47   0.00
     4   1    -0.26  -0.57  -0.15    -0.34  -0.10   0.11    -0.28  -0.48  -0.27
     5   6     0.00   0.00  -0.15    -0.18  -0.06   0.00    -0.02  -0.01   0.00
     6   8     0.00   0.00   0.03     0.03   0.03   0.00     0.00   0.01   0.00
     7  53     0.00   0.00   0.00     0.00   0.00   0.00     0.00   0.00   0.00
                    10                     11                     12
                     A                      A                      A
 Frequencies --  1459.9973              1460.0434              1886.7888
 Red. masses --     1.0496                 1.0449                11.9999
 Frc consts  --     1.3182                 1.3123                25.1695
 IR Inten    --     8.8732                16.0668               471.6820
  Atom  AN      X      Y      Z        X      Y      Z        X      Y      Z
     1   6    -0.06   0.00   0.00     0.00   0.00  -0.05    -0.01  -0.05   0.00
     2   1     0.35  -0.33   0.34     0.51   0.07   0.09    -0.04  -0.18   0.10
     3   1     0.04   0.48  -0.06     0.00   0.04   0.72     0.00   0.12   0.00
     4   1     0.43  -0.31  -0.35    -0.44  -0.12   0.03    -0.04  -0.18  -0.10
     5   6    -0.01  -0.01   0.00     0.00   0.00  -0.02    -0.23   0.74   0.00
     6   8     0.00   0.02   0.00     0.00   0.00   0.00     0.21  -0.50   0.00
     7  53     0.00   0.00   0.00     0.00   0.00   0.00     0.00   0.00   0.00
                    13                     14                     15
                     A                      A                      A
 Frequencies --  3047.9953              3121.8945              3137.3859
 Red. masses --     1.0320                 1.1002                 1.1062
 Frc consts  --     5.6487                 6.3175                 6.4155
 IR Inten    --     1.8141                 0.0167                 8.9923
  Atom  AN      X      Y      Z        X      Y      Z        X      Y      Z
     1   6    -0.02  -0.04   0.00     0.00   0.00   0.09    -0.08   0.05   0.00
     2   1    -0.16   0.29   0.46     0.20  -0.38  -0.56     0.10  -0.22  -0.35
     3   1     0.60  -0.11   0.00     0.00   0.00   0.01     0.78  -0.13   0.00
     4   1    -0.15   0.29  -0.46    -0.20   0.38  -0.56     0.10  -0.22   0.35
     5   6     0.00   0.00   0.00     0.00   0.00   0.00     0.00   0.00   0.00
     6   8     0.00   0.00   0.00     0.00   0.00   0.00     0.00   0.00   0.00
     7  53     0.00   0.00   0.00     0.00   0.00   0.00     0.00   0.00   0.00

 -------------------
 - Thermochemistry -
 -------------------
 Temperature   298.150 Kelvin.  Pressure   1.00000 Atm.
 Atom     1 has atomic number  6 and mass  12.00000
 Atom     2 has atomic number  1 and mass   1.00783
 Atom     3 has atomic number  1 and mass   1.00783
 Atom     4 has atomic number  1 and mass   1.00783
 Atom     5 has atomic number  6 and mass  12.00000
 Atom     6 has atomic number  8 and mass  15.99491
 Atom     7 has atomic number 53 and mass 126.90040
 Molecular mass:   169.91879 amu.
 Principal axes and moments of inertia in atomic units:
                           1         2         3
     Eigenvalues --   177.37364 841.103481007.38711
           X            0.99860   0.05284   0.00000
           Y           -0.05284   0.99860   0.00000
           Z            0.00000   0.00000   1.00000
 This molecule is an asymmetric top.
 Rotational symmetry number  1.
 Rotational temperatures (Kelvin)      0.48831     0.10298     0.08598
 Rotational constants (GHZ):          10.17480     2.14568     1.79151
 Zero-point vibrational energy     121137.2 (Joules/Mol)
                                   28.95250 (Kcal/Mol)
 Warning -- explicit consideration of   5 degrees of freedom as
           vibrations may cause significant error
 Vibrational temperatures:    186.93   375.45   407.24   682.35   790.17
          (Kelvin)           1345.60  1485.20  1570.32  1988.61  2100.61
                             2100.67  2714.66  4385.38  4491.70  4513.99
 
 Zero-point correction=                           0.046139 (Hartree/Particle)
 Thermal correction to Energy=                    0.051123
 Thermal correction to Enthalpy=                  0.052068
 Thermal correction to Gibbs Free Energy=         0.016188
 Sum of electronic and zero-point Energies=          -7073.130087
 Sum of electronic and thermal Energies=             -7073.125102
 Sum of electronic and thermal Enthalpies=           -7073.124158
 Sum of electronic and thermal Free Energies=        -7073.160038
 
                     E (Thermal)             CV                S
                      KCal/Mol        Cal/Mol-Kelvin    Cal/Mol-Kelvin
 Total                   32.080             15.170             75.516
 Electronic               0.000              0.000              0.000
 Translational            0.889              2.981             41.298
 Rotational               0.889              2.981             26.511
 Vibrational             30.303              9.209              7.707
 Vibration     1          0.612              1.923              2.947
 Vibration     2          0.669              1.744              1.655
 Vibration     3          0.682              1.705              1.515
 Vibration     4          0.831              1.307              0.726
 Vibration     5          0.904              1.141              0.546
                       Q            Log10(Q)             Ln(Q)
 Total Bot       0.358266D-07         -7.445794        -17.144575
 Total V=0       0.597735D+14         13.776508         31.721583
 Vib (Bot)       0.296534D-20        -20.527925        -47.267295
 Vib (Bot)    1  0.156912D+01          0.195656          0.450514
 Vib (Bot)    2  0.743979D+00         -0.128439         -0.295742
 Vib (Bot)    3  0.678169D+00         -0.168662         -0.388358
 Vib (Bot)    4  0.354385D+00         -0.450525         -1.037372
 Vib (Bot)    5  0.285972D+00         -0.543676         -1.251861
 Vib (V=0)       0.494740D+01          0.694377          1.598863
 Vib (V=0)    1  0.214686D+01          0.331803          0.764004
 Vib (V=0)    2  0.139638D+01          0.145005          0.333886
 Vib (V=0)    3  0.134256D+01          0.127935          0.294581
 Vib (V=0)    4  0.111285D+01          0.046438          0.106927
 Vib (V=0)    5  0.107600D+01          0.031814          0.073254
 Electronic      0.100000D+01          0.000000          0.000000
 Translational   0.870597D+08          7.939817         18.282105
 Rotational      0.138776D+06          5.142314         11.840615
 ***** Axes restored to original set *****
 -------------------------------------------------------------------
 Center     Atomic                   Forces (Hartrees/Bohr)
 Number     Number              X              Y              Z
 -------------------------------------------------------------------
      1        6           0.000040375   -0.000017764    0.000057232
      2        1          -0.000003099    0.000002922   -0.000022388
      3        1          -0.000009702    0.000000830   -0.000024128
      4        1          -0.000014523    0.000018039    0.000004198
      5        6           0.000011565    0.000062454    0.000033921
      6        8          -0.000012040   -0.000037020   -0.000023184
      7       53          -0.000012577   -0.000029462   -0.000025651
 -------------------------------------------------------------------
 Cartesian Forces:  Max     0.000062454 RMS     0.000027511

 GradGradGradGradGradGradGradGradGradGradGradGradGradGradGradGradGradGrad
 Berny optimization.
 Internal  Forces:  Max     0.000071031 RMS     0.000024436
 Search for a local minimum.
 Step number   1 out of a maximum of    2
 All quantities printed in internal units (Hartrees-Bohrs-Radians)
 Second derivative matrix not updated -- analytic derivatives used.
     Eigenvalues ---    0.00100   0.04504   0.05428   0.05448   0.06776
     Eigenvalues ---    0.12233   0.13738   0.13896   0.17357   0.21288
     Eigenvalues ---    0.29035   0.33951   0.34224   0.34718   0.94491
     Eigenvalues --- 1000.000001000.000001000.000001000.000001000.00000
     Eigenvalues --- 1000.00000
 Angle between quadratic step and forces=  72.71 degrees.
 Linear search not attempted -- first point.
 Iteration  1 RMS(Cart)=  0.00074437 RMS(Int)=  0.00000027
 Iteration  2 RMS(Cart)=  0.00000028 RMS(Int)=  0.00000001
 Variable       Old X    -DE/DX   Delta X   Delta X   Delta X     New X
                                 (Linear)    (Quad)   (Total)
    R1        2.05798   0.00000   0.00000  -0.00001  -0.00001   2.05798
    R2        2.05696   0.00003   0.00000   0.00009   0.00009   2.05705
    R3        2.05799   0.00000   0.00000  -0.00003  -0.00003   2.05797
    R4        2.83113  -0.00001   0.00000   0.00004   0.00004   2.83117
    R5        2.22444  -0.00002   0.00000  -0.00001  -0.00001   2.22443
    R6        4.24245  -0.00003   0.00000  -0.00035  -0.00035   4.24210
    A1        1.93308  -0.00001   0.00000  -0.00019  -0.00019   1.93289
    A2        1.87451   0.00002   0.00000   0.00026   0.00026   1.87477
    A3        1.90716   0.00002   0.00000   0.00013   0.00013   1.90730
    A4        1.93293   0.00000   0.00000  -0.00002  -0.00002   1.93291
    A5        1.90823   0.00000   0.00000  -0.00005  -0.00005   1.90818
    A6        1.90745  -0.00003   0.00000  -0.00012  -0.00012   1.90733
    A7        2.23421  -0.00002   0.00000  -0.00014  -0.00014   2.23407
    A8        1.95857  -0.00005   0.00000  -0.00028  -0.00028   1.95829
    A9        2.09041   0.00007   0.00000   0.00042   0.00042   2.09083
    D1        2.11914   0.00000   0.00000  -0.00118  -0.00118   2.11796
    D2       -1.02215  -0.00002   0.00000  -0.00149  -0.00149  -1.02363
    D3        0.00083   0.00000   0.00000  -0.00100  -0.00100  -0.00017
    D4       -3.14045  -0.00001   0.00000  -0.00130  -0.00130   3.14143
    D5       -2.11747   0.00002   0.00000  -0.00086  -0.00086  -2.11833
    D6        1.02443   0.00000   0.00000  -0.00117  -0.00117   1.02326
         Item               Value     Threshold  Converged?
 Maximum Force            0.000071     0.000450     YES
 RMS     Force            0.000024     0.000300     YES
 Maximum Displacement     0.001524     0.001800     YES
 RMS     Displacement     0.000744     0.001200     YES
 Predicted change in Energy=-4.985816D-08
 Optimization completed.
    -- Stationary point found.
                           ----------------------------
                           !   Optimized Parameters   !
                           ! (Angstroms and Degrees)  !
 --------------------------                            --------------------------
 ! Name  Definition              Value          Derivative Info.                !
 --------------------------------------------------------------------------------
 ! R1    R(1,2)                  1.089          -DE/DX =    0.0                 !
 ! R2    R(1,3)                  1.0885         -DE/DX =    0.0                 !
 ! R3    R(1,4)                  1.089          -DE/DX =    0.0                 !
 ! R4    R(1,5)                  1.4982         -DE/DX =    0.0                 !
 ! R5    R(5,6)                  1.1771         -DE/DX =    0.0                 !
 ! R6    R(5,7)                  2.245          -DE/DX =    0.0                 !
 ! A1    A(2,1,3)              110.7573         -DE/DX =    0.0                 !
 ! A2    A(2,1,4)              107.4014         -DE/DX =    0.0                 !
 ! A3    A(2,1,5)              109.2724         -DE/DX =    0.0                 !
 ! A4    A(3,1,4)              110.7486         -DE/DX =    0.0                 !
 ! A5    A(3,1,5)              109.3335         -DE/DX =    0.0                 !
 ! A6    A(4,1,5)              109.2888         -DE/DX =    0.0                 !
 ! A7    A(1,5,6)              128.0108         -DE/DX =    0.0                 !
 ! A8    A(1,5,7)              112.2175         -DE/DX =   -0.0001              !
 ! A9    A(6,5,7)              119.7717         -DE/DX =    0.0001              !
 ! D1    D(2,1,5,6)            121.4178         -DE/DX =    0.0                 !
 ! D2    D(2,1,5,7)            -58.5646         -DE/DX =    0.0                 !
 ! D3    D(3,1,5,6)              0.0476         -DE/DX =    0.0                 !
 ! D4    D(3,1,5,7)            180.0653         -DE/DX =    0.0                 !
 ! D5    D(4,1,5,6)           -121.3221         -DE/DX =    0.0                 !
 ! D6    D(4,1,5,7)             58.6955         -DE/DX =    0.0                 !
 --------------------------------------------------------------------------------
 GradGradGradGradGradGradGradGradGradGradGradGradGradGradGradGradGradGrad

 1|1|UNPC-LAWALM-PC|Freq|RB3LYP|Gen|C2H3I1O1|LAWALM|24-Mar-2015|0||#N G
 eom=AllCheck Guess=TCheck SCRF=Check GenChk RB3LYP/ChkBas Freq||gen ca
 lculation-iac C H O=aug-ccpvtz/I=dgdzvp||0,1|C,-1.5583438861,-1.711440
 3714,0.1534863422|H,-0.5361593095,-2.0865370877,0.1323729269|H,-1.9634
 68655,-1.6386954757,-0.8541899751|H,-2.1461911949,-2.40174943,0.756748
 7365|C,-1.5749488537,-0.357058277,0.793711845|O,-1.9531092535,0.657967
 235,0.3329162894|I,-0.7543513098,-0.3956119241,2.8830169267||Version=I
 A32W-G09RevA.02|State=1-A|HF=-7073.1762254|RMSD=1.524e-009|RMSF=2.751e
 -005|ZeroPoint=0.0461387|Thermal=0.0511234|Dipole=-0.0350524,-0.971053
 4,-0.5792391|DipoleDeriv=0.0199906,0.0003018,-0.0805254,0.0501878,-0.2
 392137,-0.0175742,-0.0554583,-0.1450879,-0.1638976,-0.0000342,0.010683
 1,-0.0210208,-0.0162339,0.0885887,-0.0120628,-0.0442833,-0.0278731,0.0
 619219,0.0818459,-0.0011598,-0.0636097,-0.0101041,0.0341524,-0.062114,
 -0.0681229,-0.0392423,-0.0890143,0.0725,-0.0357428,0.0214983,-0.008479
 5,0.0784371,-0.0013168,0.0449631,0.0128349,-0.0001139,0.4756992,-0.167
 0897,0.9265658,-0.4510205,0.9793129,-0.7068079,0.7838799,0.022318,2.10
 78725,-0.418451,0.2010704,-0.5019245,0.4443541,-0.8207424,0.8206087,-0
 .3796599,0.1959458,-1.060601,-0.2315505,-0.008063,-0.2809837,-0.008703
 9,-0.120535,-0.0207329,-0.2813186,-0.0188954,-0.8561676|Polar=53.09106
 66,-1.1465983,57.6172713,14.1007496,2.1754548,84.7172274|PG=C01 [X(C2H
 3I1O1)]|NImag=0||0.54050595,-0.00931245,0.47010022,0.02017188,-0.05463
 743,0.55512486,-0.28273727,0.08820114,0.00363347,0.30569685,0.08914054
 ,-0.07030583,-0.00505013,-0.09582990,0.08152850,0.00228886,-0.00496542
 ,-0.04591139,-0.00465294,0.00459501,0.04465030,-0.08662954,0.00725612,
 -0.09228041,-0.00769433,0.00070720,-0.02682851,0.08639849,0.00839932,-
 0.05041371,0.02112253,0.00214672,-0.00115015,0.01045695,-0.00831228,0.
 05145069,-0.09170426,0.01817302,-0.27665518,0.00106327,0.00021352,0.00
 362838,0.10214208,-0.01825364,0.29925678,-0.11947219,-0.09598662,0.079
 60007,-0.01658855,-0.02013996,0.01634326,0.00765842,0.00967813,-0.0062
 4278,0.12931630,-0.09692255,-0.14904606,0.09437860,0.00628286,0.008464
 25,-0.00645984,0.00050629,-0.00030244,0.00002971,0.10212154,0.16576829
 ,0.08093580,0.09424153,-0.13040536,0.00033812,0.00065491,-0.00114038,0
 .01629607,0.01714487,-0.01258031,-0.08920496,-0.10212099,0.13674306,-0
 .07582782,-0.00447758,0.00230773,0.00111488,0.03211435,0.01540432,-0.0
 0071448,-0.01095651,-0.00605414,0.00026052,-0.01504984,-0.01065869,0.2
 3107358,-0.00821441,-0.15118057,-0.05829889,0.00141313,-0.01553500,-0.
 00260147,0.00004976,-0.00093545,-0.00006330,0.00275770,-0.02445501,-0.
 00828052,-0.20818817,0.88638879,0.00043921,-0.04861066,-0.10102817,-0.
 00145231,0.00192991,-0.00010168,-0.00049478,-0.02846488,-0.01613771,-0
 .00031982,0.02038218,0.00970139,0.09354441,-0.16609501,0.31072179,0.02
 090914,0.01245280,-0.00682256,-0.00039512,-0.00446976,-0.00143669,-0.0
 0038950,-0.00013856,0.00135201,-0.00123357,0.00226419,0.00270819,-0.13
 564886,0.22644691,-0.09273339,0.11798314,0.02098260,-0.05046825,0.0154
 2710,-0.00166583,-0.00339480,-0.00078623,-0.00014859,0.00298917,0.0015
 9203,0.00134620,-0.00144604,-0.00120074,0.20968466,-0.67345886,0.22757
 673,-0.24606477,0.72513862,-0.00252898,-0.00652254,0.01619490,0.001597
 99,-0.00198489,0.00042165,0.00134335,0.00163269,0.00334423,0.00062918,
 -0.00485097,-0.00068867,-0.10117462,0.27066074,-0.17894132,0.12118885,
 -0.27862373,0.19378939,0.00325173,0.00186657,-0.00661018,0.00060353,-0
 .00152249,-0.00111831,0.00137094,-0.00081683,-0.00055618,0.00005907,0.
 00079750,-0.00041454,-0.02025782,-0.01426492,0.00101668,-0.00122525,0.
 01586573,-0.02105578,0.01619778,-0.00407305,0.00131420,-0.01294179,-0.
 00054813,0.00039303,-0.00023901,-0.00005852,-0.00163811,-0.00169134,0.
 00022301,0.00101701,-0.00043906,-0.00312692,-0.02082390,-0.00671826,0.
 00950918,0.00064016,0.01968871,-0.00192558,0.01909760,-0.00960252,0.00
 232150,-0.01731965,-0.00052760,-0.00035834,-0.00154688,-0.00017781,-0.
 00363851,-0.00085619,-0.00080496,-0.00135868,-0.00162972,0.00663098,-0
 .03532155,-0.02421430,-0.02425641,0.03601484,-0.03412018,0.02873831,0.
 00234075,0.07968691||-0.00004038,0.00001776,-0.00005723,0.00000310,-0.
 00000292,0.00002239,0.00000970,-0.00000083,0.00002413,0.00001452,-0.00
 001804,-0.00000420,-0.00001157,-0.00006245,-0.00003392,0.00001204,0.00
 003702,0.00002318,0.00001258,0.00002946,0.00002565|||@


 GOOD SENSE ABOUT TRIVIALITIES IS BETTER THAN NONSENSE
 ABOUT THINGS THAT MATTER

                                       -- MAX BEERBOHM
 Job cpu time:  0 days  0 hours 45 minutes  7.0 seconds.
 File lengths (MBytes):  RWF=     61 Int=      0 D2E=      0 Chk=      5 Scr=      1
 Normal termination of Gaussian 09 at Tue Mar 24 22:06:26 2015.
