 Entering Gaussian System, Link 0=g09
 Initial command:
 /opt/gridware/applications/gaussian/g09/l1.exe "/lustre/SCRATCH5/gau/mlawal/846027.sched01/Gau-26926.inp" -scrdir="/lustre/SCRATCH5/gau/mlawal/846027.sched01/"
 Entering Link 1 = /opt/gridware/applications/gaussian/g09/l1.exe PID=     26927.
  
 Copyright (c) 1988,1990,1992,1993,1995,1998,2003,2009,2013,
            Gaussian, Inc.  All Rights Reserved.
  
 This is part of the Gaussian(R) 09 program.  It is based on
 the Gaussian(R) 03 system (copyright 2003, Gaussian, Inc.),
 the Gaussian(R) 98 system (copyright 1998, Gaussian, Inc.),
 the Gaussian(R) 94 system (copyright 1995, Gaussian, Inc.),
 the Gaussian 92(TM) system (copyright 1992, Gaussian, Inc.),
 the Gaussian 90(TM) system (copyright 1990, Gaussian, Inc.),
 the Gaussian 88(TM) system (copyright 1988, Gaussian, Inc.),
 the Gaussian 86(TM) system (copyright 1986, Carnegie Mellon
 University), and the Gaussian 82(TM) system (copyright 1983,
 Carnegie Mellon University). Gaussian is a federally registered
 trademark of Gaussian, Inc.
  
 This software contains proprietary and confidential information,
 including trade secrets, belonging to Gaussian, Inc.
  
 This software is provided under written license and may be
 used, copied, transmitted, or stored only in accord with that
 written license.
  
 The following legend is applicable only to US Government
 contracts under FAR:
  
                    RESTRICTED RIGHTS LEGEND
  
 Use, reproduction and disclosure by the US Government is
 subject to restrictions as set forth in subparagraphs (a)
 and (c) of the Commercial Computer Software - Restricted
 Rights clause in FAR 52.227-19.
  
 Gaussian, Inc.
 340 Quinnipiac St., Bldg. 40, Wallingford CT 06492
  
  
 ---------------------------------------------------------------
 Warning -- This program may not be used in any manner that
 competes with the business of Gaussian, Inc. or will provide
 assistance to any competitor of Gaussian, Inc.  The licensee
 of this program is prohibited from giving any competitor of
 Gaussian, Inc. access to this program.  By using this program,
 the user acknowledges that Gaussian, Inc. is engaged in the
 business of creating and licensing software in the field of
 computational chemistry and represents and warrants to the
 licensee that it is not a competitor of Gaussian, Inc. and that
 it will not use this program in any manner prohibited above.
 ---------------------------------------------------------------
  

 Cite this work as:
 Gaussian 09, Revision D.01,
 M. J. Frisch, G. W. Trucks, H. B. Schlegel, G. E. Scuseria, 
 M. A. Robb, J. R. Cheeseman, G. Scalmani, V. Barone, B. Mennucci, 
 G. A. Petersson, H. Nakatsuji, M. Caricato, X. Li, H. P. Hratchian, 
 A. F. Izmaylov, J. Bloino, G. Zheng, J. L. Sonnenberg, M. Hada, 
 M. Ehara, K. Toyota, R. Fukuda, J. Hasegawa, M. Ishida, T. Nakajima, 
 Y. Honda, O. Kitao, H. Nakai, T. Vreven, J. A. Montgomery, Jr., 
 J. E. Peralta, F. Ogliaro, M. Bearpark, J. J. Heyd, E. Brothers, 
 K. N. Kudin, V. N. Staroverov, T. Keith, R. Kobayashi, J. Normand, 
 K. Raghavachari, A. Rendell, J. C. Burant, S. S. Iyengar, J. Tomasi, 
 M. Cossi, N. Rega, J. M. Millam, M. Klene, J. E. Knox, J. B. Cross, 
 V. Bakken, C. Adamo, J. Jaramillo, R. Gomperts, R. E. Stratmann, 
 O. Yazyev, A. J. Austin, R. Cammi, C. Pomelli, J. W. Ochterski, 
 R. L. Martin, K. Morokuma, V. G. Zakrzewski, G. A. Voth, 
 P. Salvador, J. J. Dannenberg, S. Dapprich, A. D. Daniels, 
 O. Farkas, J. B. Foresman, J. V. Ortiz, J. Cioslowski, 
 and D. J. Fox, Gaussian, Inc., Wallingford CT, 2013.
 
 ******************************************
 Gaussian 09:  EM64L-G09RevD.01 24-Apr-2013
                24-Mar-2015 
 ******************************************
 %nprocshared=8
 Will use up to    8 processors via shared memory.
 %nprocl=1
 Will use up to    1 processors via Linda.
 ----------------------------------------------------------
 # opt freq b3lyp/gen geom=connectivity gfinput pseudo=read
 ----------------------------------------------------------
 1/14=-1,18=20,19=15,26=3,38=1,57=2/1,3;
 2/9=110,12=2,17=6,18=5,40=1/2;
 3/5=7,11=2,16=1,17=8,24=10,25=1,30=1,71=1,74=-5/1,2,3;
 4//1;
 5/5=2,38=5/2;
 6/7=2,8=2,9=2,10=2,28=1/1;
 7//1,2,3,16;
 1/14=-1,18=20,19=15,26=3/3(2);
 2/9=110/2;
 99//99;
 2/9=110/2;
 3/5=7,6=1,11=2,16=1,17=8,25=1,30=1,71=1,74=-5,82=7/1,2,3;
 4/5=5,16=3,69=1/1;
 5/5=2,38=5/2;
 7//1,2,3,16;
 1/14=-1,18=20,19=15,26=3/3(-5);
 2/9=110/2;
 6/7=2,8=2,9=2,10=2,19=2,28=1/1;
 99/9=1/99;
 -----------------------------------------------
 gen calculation-iac C H O=aug-ccpvtz/I=def2tzvp
 -----------------------------------------------
 Symbolic Z-matrix:
 Charge =  0 Multiplicity = 1
 C                    -1.55617  -1.7399    0.15525 
 H                    -0.63396  -2.25101   0.33747 
 H                    -1.65831  -1.55123  -0.89302 
 H                    -2.37202  -2.34607   0.4897 
 C                    -1.56225  -0.40343   0.92037 
 O                    -2.20363   0.57907   0.46551 
 I                    -0.50022  -0.22056   2.72277 
 

 GradGradGradGradGradGradGradGradGradGradGradGradGradGradGradGradGradGrad
 Berny optimization.
 Initialization pass.
                           ----------------------------
                           !    Initial Parameters    !
                           ! (Angstroms and Degrees)  !
 --------------------------                            --------------------------
 ! Name  Definition              Value          Derivative Info.                !
 --------------------------------------------------------------------------------
 ! R1    R(1,2)                  1.07           estimate D2E/DX2                !
 ! R2    R(1,3)                  1.07           estimate D2E/DX2                !
 ! R3    R(1,4)                  1.07           estimate D2E/DX2                !
 ! R4    R(1,5)                  1.54           estimate D2E/DX2                !
 ! R5    R(5,6)                  1.2584         estimate D2E/DX2                !
 ! R6    R(5,7)                  2.1            estimate D2E/DX2                !
 ! A1    A(2,1,3)              109.4712         estimate D2E/DX2                !
 ! A2    A(2,1,4)              109.4712         estimate D2E/DX2                !
 ! A3    A(2,1,5)              109.4712         estimate D2E/DX2                !
 ! A4    A(3,1,4)              109.4712         estimate D2E/DX2                !
 ! A5    A(3,1,5)              109.4712         estimate D2E/DX2                !
 ! A6    A(4,1,5)              109.4712         estimate D2E/DX2                !
 ! A7    A(1,5,6)              120.0            estimate D2E/DX2                !
 ! A8    A(1,5,7)              120.0            estimate D2E/DX2                !
 ! A9    A(6,5,7)              120.0            estimate D2E/DX2                !
 ! D1    D(2,1,5,6)            150.0            estimate D2E/DX2                !
 ! D2    D(2,1,5,7)            -30.0            estimate D2E/DX2                !
 ! D3    D(3,1,5,6)             30.0            estimate D2E/DX2                !
 ! D4    D(3,1,5,7)           -150.0            estimate D2E/DX2                !
 ! D5    D(4,1,5,6)            -90.0            estimate D2E/DX2                !
 ! D6    D(4,1,5,7)             90.0            estimate D2E/DX2                !
 --------------------------------------------------------------------------------
 Trust Radius=3.00D-01 FncErr=1.00D-07 GrdErr=1.00D-06
 Number of steps in this run=     31 maximum allowed number of steps=    100.
 GradGradGradGradGradGradGradGradGradGradGradGradGradGradGradGradGradGrad

                          Input orientation:                          
 ---------------------------------------------------------------------
 Center     Atomic      Atomic             Coordinates (Angstroms)
 Number     Number       Type             X           Y           Z
 ---------------------------------------------------------------------
      1          6           0       -1.556173   -1.739904    0.155253
      2          1           0       -0.633963   -2.251008    0.337467
      3          1           0       -1.658308   -1.551227   -0.893017
      4          1           0       -2.372024   -2.346067    0.489700
      5          6           0       -1.562253   -0.403433    0.920371
      6          8           0       -2.203629    0.579071    0.465515
      7         53           0       -0.500224   -0.220558    2.722773
 ---------------------------------------------------------------------
                    Distance matrix (angstroms):
                    1          2          3          4          5
     1  C    0.000000
     2  H    1.070000   0.000000
     3  H    1.070000   1.747303   0.000000
     4  H    1.070000   1.747303   1.747303   0.000000
     5  C    1.540000   2.148263   2.148263   2.148263   0.000000
     6  O    2.427572   3.238764   2.584792   2.930080   1.258400
     7  I    3.164743   3.135330   4.023154   3.606665   2.100000
                    6          7
     6  O    0.000000
     7  I    2.938743   0.000000
 Stoichiometry    C2H3IO
 Framework group  C1[X(C2H3IO)]
 Deg. of freedom    15
 Full point group                 C1      NOp   1
 Largest Abelian subgroup         C1      NOp   1
 Largest concise Abelian subgroup C1      NOp   1
                         Standard orientation:                         
 ---------------------------------------------------------------------
 Center     Atomic      Atomic             Coordinates (Angstroms)
 Number     Number       Type             X           Y           Z
 ---------------------------------------------------------------------
      1          6           0       -2.202197   -1.034057    0.000000
      2          1           0       -1.712668   -1.840803   -0.504403
      3          1           0       -3.116465   -0.800408   -0.504403
      4          1           0       -2.414566   -1.320606    1.008806
      5          6           0       -1.285236    0.203192    0.000000
      6          8           0       -1.786151    1.357598    0.000000
      7         53           0        0.801085   -0.036109    0.000000
 ---------------------------------------------------------------------
 Rotational constants (GHZ):     10.1628292      2.2184086      1.8413393
 General basis read from cards:  (5D, 7F)
 ======================================================================================================
                                       Pseudopotential Parameters
 ======================================================================================================
  Center     Atomic      Valence      Angular      Power
  Number     Number     Electrons     Momentum     of R      Exponent        Coefficient   SO-Coeffient
 ======================================================================================================
    1          6
                                   No pseudopotential on this center.
    2          1
                                   No pseudopotential on this center.
    3          1
                                   No pseudopotential on this center.
    4          1
                                   No pseudopotential on this center.
    5          6
                                   No pseudopotential on this center.
    6          8
                                   No pseudopotential on this center.
    7         53           25
                                      G and up 
                                                     2        1.0000000        0.00000000    0.00000000
                                      S - G
                                                     2       40.0158350       49.99429300    0.00000000
                                                     2       17.4297470      281.02531700    0.00000000
                                                     2        9.0054840       61.57332600    0.00000000
                                      P - G
                                                     2       15.3554660       67.44284100 -134.88568300
                                                     2       14.9718330      134.88113700  134.88113700
                                                     2        8.9601640       14.67505100  -29.35010100
                                                     2        8.2590960       29.37566600   29.37566600
                                      D - G
                                                     2       15.0689080       35.43952900  -35.43952900
                                                     2       14.5553220       53.17605700   35.45070400
                                                     2        6.7186470        9.06719500   -9.06719500
                                                     2        6.4563930       13.20693700    8.80462400
                                                     2        1.1917790        0.08933500   -0.08933500
                                                     2        1.2911570        0.05238000    0.03492000
                                      F - G
                                                     2       19.4586090      -21.84204000   14.56136000
                                                     2       19.3492600      -28.46819100  -14.23409500
                                                     2        4.8237670       -0.24371300    0.16247500
                                                     2        4.8843150       -0.32080400   -0.16040200
 ======================================================================================================
 AO basis set in the form of general basis input (Overlap normalization):
      1 0
 S   7 1.00       0.000000000000
      0.8236000000D+04  0.5419783203D-03
      0.1235000000D+04  0.4192873817D-02
      0.2808000000D+03  0.2152216205D-01
      0.7927000000D+02  0.8353432195D-01
      0.2559000000D+02  0.2395828457D+00
      0.8997000000D+01  0.4428528419D+00
      0.3319000000D+01  0.3517995618D+00
 S   6 1.00       0.000000000000
      0.2808000000D+03 -0.5949224937D-04
      0.7927000000D+02 -0.1148158310D-02
      0.2559000000D+02 -0.1001913745D-01
      0.8997000000D+01 -0.6121949230D-01
      0.3319000000D+01 -0.1732698541D+00
      0.3643000000D+00  0.1072915192D+01
 S   1 1.00       0.000000000000
      0.9059000000D+00  0.1000000000D+01
 S   1 1.00       0.000000000000
      0.1285000000D+00  0.1000000000D+01
 S   1 1.00       0.000000000000
      0.4402000000D-01  0.1000000000D+01
 P   3 1.00       0.000000000000
      0.1871000000D+02  0.3942638716D-01
      0.4133000000D+01  0.2440889849D+00
      0.1200000000D+01  0.8154920089D+00
 P   1 1.00       0.000000000000
      0.3827000000D+00  0.1000000000D+01
 P   1 1.00       0.000000000000
      0.1209000000D+00  0.1000000000D+01
 P   1 1.00       0.000000000000
      0.3569000000D-01  0.1000000000D+01
 D   1 1.00       0.000000000000
      0.1097000000D+01  0.1000000000D+01
 D   1 1.00       0.000000000000
      0.3180000000D+00  0.1000000000D+01
 D   1 1.00       0.000000000000
      0.1000000000D+00  0.1000000000D+01
 F   1 1.00       0.000000000000
      0.7610000000D+00  0.1000000000D+01
 F   1 1.00       0.000000000000
      0.2680000000D+00  0.1000000000D+01
 ****
      2 0
 S   3 1.00       0.000000000000
      0.3387000000D+02  0.2549486323D-01
      0.5095000000D+01  0.1903627659D+00
      0.1159000000D+01  0.8521620222D+00
 S   1 1.00       0.000000000000
      0.3258000000D+00  0.1000000000D+01
 S   1 1.00       0.000000000000
      0.1027000000D+00  0.1000000000D+01
 S   1 1.00       0.000000000000
      0.2526000000D-01  0.1000000000D+01
 P   1 1.00       0.000000000000
      0.1407000000D+01  0.1000000000D+01
 P   1 1.00       0.000000000000
      0.3880000000D+00  0.1000000000D+01
 P   1 1.00       0.000000000000
      0.1020000000D+00  0.1000000000D+01
 D   1 1.00       0.000000000000
      0.1057000000D+01  0.1000000000D+01
 D   1 1.00       0.000000000000
      0.2470000000D+00  0.1000000000D+01
 ****
      3 0
 S   3 1.00       0.000000000000
      0.3387000000D+02  0.2549486323D-01
      0.5095000000D+01  0.1903627659D+00
      0.1159000000D+01  0.8521620222D+00
 S   1 1.00       0.000000000000
      0.3258000000D+00  0.1000000000D+01
 S   1 1.00       0.000000000000
      0.1027000000D+00  0.1000000000D+01
 S   1 1.00       0.000000000000
      0.2526000000D-01  0.1000000000D+01
 P   1 1.00       0.000000000000
      0.1407000000D+01  0.1000000000D+01
 P   1 1.00       0.000000000000
      0.3880000000D+00  0.1000000000D+01
 P   1 1.00       0.000000000000
      0.1020000000D+00  0.1000000000D+01
 D   1 1.00       0.000000000000
      0.1057000000D+01  0.1000000000D+01
 D   1 1.00       0.000000000000
      0.2470000000D+00  0.1000000000D+01
 ****
      4 0
 S   3 1.00       0.000000000000
      0.3387000000D+02  0.2549486323D-01
      0.5095000000D+01  0.1903627659D+00
      0.1159000000D+01  0.8521620222D+00
 S   1 1.00       0.000000000000
      0.3258000000D+00  0.1000000000D+01
 S   1 1.00       0.000000000000
      0.1027000000D+00  0.1000000000D+01
 S   1 1.00       0.000000000000
      0.2526000000D-01  0.1000000000D+01
 P   1 1.00       0.000000000000
      0.1407000000D+01  0.1000000000D+01
 P   1 1.00       0.000000000000
      0.3880000000D+00  0.1000000000D+01
 P   1 1.00       0.000000000000
      0.1020000000D+00  0.1000000000D+01
 D   1 1.00       0.000000000000
      0.1057000000D+01  0.1000000000D+01
 D   1 1.00       0.000000000000
      0.2470000000D+00  0.1000000000D+01
 ****
      5 0
 S   7 1.00       0.000000000000
      0.8236000000D+04  0.5419783203D-03
      0.1235000000D+04  0.4192873817D-02
      0.2808000000D+03  0.2152216205D-01
      0.7927000000D+02  0.8353432195D-01
      0.2559000000D+02  0.2395828457D+00
      0.8997000000D+01  0.4428528419D+00
      0.3319000000D+01  0.3517995618D+00
 S   6 1.00       0.000000000000
      0.2808000000D+03 -0.5949224937D-04
      0.7927000000D+02 -0.1148158310D-02
      0.2559000000D+02 -0.1001913745D-01
      0.8997000000D+01 -0.6121949230D-01
      0.3319000000D+01 -0.1732698541D+00
      0.3643000000D+00  0.1072915192D+01
 S   1 1.00       0.000000000000
      0.9059000000D+00  0.1000000000D+01
 S   1 1.00       0.000000000000
      0.1285000000D+00  0.1000000000D+01
 S   1 1.00       0.000000000000
      0.4402000000D-01  0.1000000000D+01
 P   3 1.00       0.000000000000
      0.1871000000D+02  0.3942638716D-01
      0.4133000000D+01  0.2440889849D+00
      0.1200000000D+01  0.8154920089D+00
 P   1 1.00       0.000000000000
      0.3827000000D+00  0.1000000000D+01
 P   1 1.00       0.000000000000
      0.1209000000D+00  0.1000000000D+01
 P   1 1.00       0.000000000000
      0.3569000000D-01  0.1000000000D+01
 D   1 1.00       0.000000000000
      0.1097000000D+01  0.1000000000D+01
 D   1 1.00       0.000000000000
      0.3180000000D+00  0.1000000000D+01
 D   1 1.00       0.000000000000
      0.1000000000D+00  0.1000000000D+01
 F   1 1.00       0.000000000000
      0.7610000000D+00  0.1000000000D+01
 F   1 1.00       0.000000000000
      0.2680000000D+00  0.1000000000D+01
 ****
      6 0
 S   7 1.00       0.000000000000
      0.1533000000D+05  0.5198089434D-03
      0.2299000000D+04  0.4020256215D-02
      0.5224000000D+03  0.2071282673D-01
      0.1473000000D+03  0.8101055358D-01
      0.4755000000D+02  0.2359629851D+00
      0.1676000000D+02  0.4426534455D+00
      0.6207000000D+01  0.3570644227D+00
 S   6 1.00       0.000000000000
      0.5224000000D+03 -0.4421150084D-04
      0.1473000000D+03 -0.1225910413D-02
      0.4755000000D+02 -0.1055177248D-01
      0.1676000000D+02 -0.6744526326D-01
      0.6207000000D+01 -0.1711986073D+00
      0.6882000000D+00  0.1073298561D+01
 S   1 1.00       0.000000000000
      0.1752000000D+01  0.1000000000D+01
 S   1 1.00       0.000000000000
      0.2384000000D+00  0.1000000000D+01
 S   1 1.00       0.000000000000
      0.7376000000D-01  0.1000000000D+01
 P   3 1.00       0.000000000000
      0.3446000000D+02  0.4116348957D-01
      0.7749000000D+01  0.2577628359D+00
      0.2280000000D+01  0.8024192744D+00
 P   1 1.00       0.000000000000
      0.7156000000D+00  0.1000000000D+01
 P   1 1.00       0.000000000000
      0.2140000000D+00  0.1000000000D+01
 P   1 1.00       0.000000000000
      0.5974000000D-01  0.1000000000D+01
 D   1 1.00       0.000000000000
      0.2314000000D+01  0.1000000000D+01
 D   1 1.00       0.000000000000
      0.6450000000D+00  0.1000000000D+01
 D   1 1.00       0.000000000000
      0.2140000000D+00  0.1000000000D+01
 F   1 1.00       0.000000000000
      0.1428000000D+01  0.1000000000D+01
 F   1 1.00       0.000000000000
      0.5000000000D+00  0.1000000000D+01
 ****
      7 0
 S   5 1.00       0.000000000000
      0.5899579153D+04  0.2610056321D-03
      0.8985423877D+03  0.1669739989D-02
      0.2003723791D+03  0.4622329849D-02
      0.3141805384D+02 -0.4253426840D-01
      0.1564598784D+02  0.1036831842D+01
 S   2 1.00       0.000000000000
      0.1181574186D+02  0.6510798928D+00
      0.6461445829D+01  0.3642365936D+00
 S   1 1.00       0.000000000000
      0.2383806758D+01  0.1000000000D+01
 S   1 1.00       0.000000000000
      0.1171208966D+01  0.1000000000D+01
 S   1 1.00       0.000000000000
      0.3211587576D+00  0.1000000000D+01
 S   1 1.00       0.000000000000
      0.1238791936D+00  0.1000000000D+01
 P   4 1.00       0.000000000000
      0.1298431690D+02 -0.3868165906D-01
      0.3619950301D+01  0.3065970959D+00
      0.2023227309D+01  0.5169312450D+00
      0.1036749056D+01  0.2505722415D+00
 P   3 1.00       0.000000000000
      0.1973003055D+03  0.3192774173D-02
      0.2006141135D+02  0.2856760153D+00
      0.9763146048D+01 -0.1232820499D+01
 P   1 1.00       0.000000000000
      0.4593781600D+00  0.1000000000D+01
 P   1 1.00       0.000000000000
      0.1911653293D+00  0.1000000000D+01
 P   1 1.00       0.000000000000
      0.7487881302D-01  0.1000000000D+01
 D   6 1.00       0.000000000000
      0.1191267175D+03  0.8836386893D-03
      0.3340424013D+02  0.7315261132D-02
      0.1780591820D+02 -0.1102799620D-01
      0.4899051035D+01  0.2425357632D+00
      0.2451675311D+01  0.4726529041D+00
      0.1182069343D+01  0.3934356931D+00
 D   1 1.00       0.000000000000
      0.5292311007D+00  0.1000000000D+01
 D   1 1.00       0.000000000000
      0.1700000000D+00  0.1000000000D+01
 F   1 1.00       0.000000000000
      0.4414180800D+00  0.1000000000D+01
 F   1 1.00       0.000000000000
      0.2180000000D+01  0.1000000000D+01
 ****

 There are   299 symmetry adapted cartesian basis functions of A   symmetry.
 There are   257 symmetry adapted basis functions of A   symmetry.
   257 basis functions,   406 primitive gaussians,   299 cartesian basis functions
    24 alpha electrons       24 beta electrons
       nuclear repulsion energy       171.7223126253 Hartrees.
 NAtoms=    7 NActive=    7 NUniq=    7 SFac= 1.00D+00 NAtFMM=   60 NAOKFM=F Big=F
 Integral buffers will be    131072 words long.
 Raffenetti 2 integral format.
 Two-electron integral symmetry is turned on.
 One-electron integrals computed using PRISM.
 PrsmSu:  requested number of processors reduced to:   2 ShMem   1 Linda.
   1 Symmetry operations used in ECPInt.
 ECPInt:  NShTT=    3655 NPrTT=   10746 LenC2=    3646 LenP2D=    9288.
 LDataN:  DoStor=T MaxTD1= 7 Len=  274
 NBasis=   257 RedAO= T EigKep=  3.69D-05  NBF=   257
 NBsUse=   257 1.00D-06 EigRej= -1.00D+00 NBFU=   257
 Defaulting to unpruned grid for atomic number  53.
 ExpMin= 2.53D-02 ExpMax= 1.53D+04 ExpMxC= 5.22D+02 IAcc=3 IRadAn=         5 AccDes= 0.00D+00
 Harris functional with IExCor=  402 and IRadAn=       5 diagonalized for initial guess.
 HarFok:  IExCor=  402 AccDes= 0.00D+00 IRadAn=         5 IDoV= 1 UseB2=F ITyADJ=14
 ICtDFT=  3500011 ScaDFX=  1.000000  1.000000  1.000000  1.000000
 Defaulting to unpruned grid for atomic number  53.
 Defaulting to unpruned grid for atomic number  53.
 Defaulting to unpruned grid for atomic number  53.
 Defaulting to unpruned grid for atomic number  53.
 Defaulting to unpruned grid for atomic number  53.
 Defaulting to unpruned grid for atomic number  53.
 Defaulting to unpruned grid for atomic number  53.
 Defaulting to unpruned grid for atomic number  53.
 FoFCou: FMM=F IPFlag=           0 FMFlag=      100000 FMFlg1=           0
         NFxFlg=           0 DoJE=T BraDBF=F KetDBF=T FulRan=T
         wScrn=  0.000000 ICntrl=     500 IOpCl=  0 I1Cent=   200000004 NGrid=           0
         NMat0=    1 NMatS0=      1 NMatT0=    0 NMatD0=    1 NMtDS0=    0 NMtDT0=    0
 Petite list used in FoFCou.
 Requested convergence on RMS density matrix=1.00D-08 within 128 cycles.
 Requested convergence on MAX density matrix=1.00D-06.
 Requested convergence on             energy=1.00D-06.
 No special actions if energy rises.
 Defaulting to unpruned grid for atomic number  53.
 Defaulting to unpruned grid for atomic number  53.
 Defaulting to unpruned grid for atomic number  53.
 Defaulting to unpruned grid for atomic number  53.
 Defaulting to unpruned grid for atomic number  53.
 Defaulting to unpruned grid for atomic number  53.
 Defaulting to unpruned grid for atomic number  53.
 Defaulting to unpruned grid for atomic number  53.
 SCF Done:  E(RB3LYP) =  -451.099990228     A.U. after   13 cycles
            NFock= 13  Conv=0.19D-08     -V/T= 2.6979

 **********************************************************************

            Population analysis using the SCF density.

 **********************************************************************

 Orbital symmetries:
       Occupied  (A) (A) (A) (A) (A) (A) (A) (A) (A) (A) (A) (A)
                 (A) (A) (A) (A) (A) (A) (A) (A) (A) (A) (A) (A)
       Virtual   (A) (A) (A) (A) (A) (A) (A) (A) (A) (A) (A) (A)
                 (A) (A) (A) (A) (A) (A) (A) (A) (A) (A) (A) (A)
                 (A) (A) (A) (A) (A) (A) (A) (A) (A) (A) (A) (A)
                 (A) (A) (A) (A) (A) (A) (A) (A) (A) (A) (A) (A)
                 (A) (A) (A) (A) (A) (A) (A) (A) (A) (A) (A) (A)
                 (A) (A) (A) (A) (A) (A) (A) (A) (A) (A) (A) (A)
                 (A) (A) (A) (A) (A) (A) (A) (A) (A) (A) (A) (A)
                 (A) (A) (A) (A) (A) (A) (A) (A) (A) (A) (A) (A)
                 (A) (A) (A) (A) (A) (A) (A) (A) (A) (A) (A) (A)
                 (A) (A) (A) (A) (A) (A) (A) (A) (A) (A) (A) (A)
                 (A) (A) (A) (A) (A) (A) (A) (A) (A) (A) (A) (A)
                 (A) (A) (A) (A) (A) (A) (A) (A) (A) (A) (A) (A)
                 (A) (A) (A) (A) (A) (A) (A) (A) (A) (A) (A) (A)
                 (A) (A) (A) (A) (A) (A) (A) (A) (A) (A) (A) (A)
                 (A) (A) (A) (A) (A) (A) (A) (A) (A) (A) (A) (A)
                 (A) (A) (A) (A) (A) (A) (A) (A) (A) (A) (A) (A)
                 (A) (A) (A) (A) (A) (A) (A) (A) (A) (A) (A) (A)
                 (A) (A) (A) (A) (A) (A) (A) (A) (A) (A) (A) (A)
                 (A) (A) (A) (A) (A) (A) (A) (A) (A) (A) (A) (A)
                 (A) (A) (A) (A) (A)
 The electronic state is 1-A.
 Alpha  occ. eigenvalues --  -19.16112 -10.32707 -10.20619  -6.86062  -4.88422
 Alpha  occ. eigenvalues --   -4.87454  -4.87289  -1.93276  -1.92959  -1.92830
 Alpha  occ. eigenvalues --   -1.91988  -1.91983  -1.05473  -0.78275  -0.72420
 Alpha  occ. eigenvalues --   -0.56041  -0.47641  -0.47211  -0.46140  -0.40943
 Alpha  occ. eigenvalues --   -0.38971  -0.29206  -0.28761  -0.27518
 Alpha virt. eigenvalues --   -0.07154  -0.04942  -0.01565   0.01528   0.01758
 Alpha virt. eigenvalues --    0.02378   0.05722   0.06439   0.06748   0.07285
 Alpha virt. eigenvalues --    0.07698   0.08252   0.10050   0.11158   0.11926
 Alpha virt. eigenvalues --    0.13862   0.14625   0.15430   0.16159   0.17005
 Alpha virt. eigenvalues --    0.17620   0.19150   0.20082   0.22299   0.22532
 Alpha virt. eigenvalues --    0.24337   0.25467   0.25776   0.26322   0.27323
 Alpha virt. eigenvalues --    0.27940   0.28754   0.31036   0.31190   0.31937
 Alpha virt. eigenvalues --    0.32558   0.33553   0.34836   0.36782   0.38076
 Alpha virt. eigenvalues --    0.39733   0.39965   0.40685   0.42026   0.43323
 Alpha virt. eigenvalues --    0.43674   0.46914   0.49003   0.50865   0.53619
 Alpha virt. eigenvalues --    0.55805   0.57300   0.58706   0.60648   0.62744
 Alpha virt. eigenvalues --    0.64780   0.65218   0.68087   0.68810   0.69571
 Alpha virt. eigenvalues --    0.71141   0.72488   0.74927   0.75668   0.76007
 Alpha virt. eigenvalues --    0.77690   0.78825   0.79353   0.80876   0.82382
 Alpha virt. eigenvalues --    0.83729   0.85326   0.85685   0.86700   0.88296
 Alpha virt. eigenvalues --    0.90002   0.90463   0.91379   0.95285   0.96245
 Alpha virt. eigenvalues --    0.96698   0.99308   1.00107   1.00287   1.02758
 Alpha virt. eigenvalues --    1.05648   1.07531   1.07793   1.09518   1.11362
 Alpha virt. eigenvalues --    1.14665   1.17277   1.18920   1.21770   1.22600
 Alpha virt. eigenvalues --    1.25408   1.26306   1.27809   1.30177   1.31670
 Alpha virt. eigenvalues --    1.34542   1.35477   1.36670   1.39578   1.40358
 Alpha virt. eigenvalues --    1.41217   1.41473   1.44953   1.45861   1.46237
 Alpha virt. eigenvalues --    1.48162   1.51222   1.52623   1.55113   1.56370
 Alpha virt. eigenvalues --    1.58232   1.63724   1.64653   1.67221   1.70627
 Alpha virt. eigenvalues --    1.74267   1.77787   1.82458   1.87856   1.88773
 Alpha virt. eigenvalues --    1.90662   1.94219   1.98424   2.00316   2.07341
 Alpha virt. eigenvalues --    2.07943   2.13679   2.17334   2.20753   2.22157
 Alpha virt. eigenvalues --    2.23633   2.28641   2.34694   2.40312   2.42976
 Alpha virt. eigenvalues --    2.51923   2.53804   2.57575   2.64477   2.70820
 Alpha virt. eigenvalues --    2.75418   2.80803   2.84267   2.99280   3.01699
 Alpha virt. eigenvalues --    3.04618   3.07043   3.08652   3.11243   3.13385
 Alpha virt. eigenvalues --    3.16510   3.17480   3.19542   3.24076   3.25426
 Alpha virt. eigenvalues --    3.27268   3.29127   3.30749   3.33948   3.37177
 Alpha virt. eigenvalues --    3.39610   3.42461   3.44084   3.48134   3.50102
 Alpha virt. eigenvalues --    3.52330   3.59445   3.59715   3.62969   3.69577
 Alpha virt. eigenvalues --    3.71113   3.73919   3.76236   3.80285   3.82633
 Alpha virt. eigenvalues --    3.89180   3.93998   3.96473   4.02438   4.08163
 Alpha virt. eigenvalues --    4.13185   4.21549   4.28286   4.33975   4.40018
 Alpha virt. eigenvalues --    4.41595   4.45229   4.46186   4.52409   4.56178
 Alpha virt. eigenvalues --    4.64460   4.73460   4.76239   4.82961   4.87130
 Alpha virt. eigenvalues --    5.00016   5.02783   5.08164   5.26789   5.29412
 Alpha virt. eigenvalues --    5.34364   5.37203   5.64940   5.69638   5.79799
 Alpha virt. eigenvalues --    5.81387   6.14903   6.18381   6.25811   6.27994
 Alpha virt. eigenvalues --    6.41329   6.45418   6.56950   6.70724   6.71508
 Alpha virt. eigenvalues --    6.74802   6.94751   7.03150   7.11901   7.24153
 Alpha virt. eigenvalues --   12.86671  13.94151  17.01018  34.53744  34.62576
 Alpha virt. eigenvalues --   34.97954  42.94190 117.83873
          Condensed to atoms (all electrons):
               1          2          3          4          5          6
     1  C    5.329253   0.395085   0.372245   0.380668   0.089047  -0.038726
     2  H    0.395085   0.396967  -0.023535   0.019042  -0.032255   0.001938
     3  H    0.372245  -0.023535   0.408967  -0.006893   0.014018   0.007048
     4  H    0.380668   0.019042  -0.006893   0.382661  -0.013483   0.008822
     5  C    0.089047  -0.032255   0.014018  -0.013483   5.115833   0.318654
     6  O   -0.038726   0.001938   0.007048   0.008822   0.318654   8.296159
     7  I   -0.069400  -0.010640   0.007614  -0.005627   0.347776  -0.080811
               7
     1  C   -0.069400
     2  H   -0.010640
     3  H    0.007614
     4  H   -0.005627
     5  C    0.347776
     6  O   -0.080811
     7  I   24.708985
 Mulliken charges:
               1
     1  C   -0.458172
     2  H    0.253397
     3  H    0.220537
     4  H    0.234810
     5  C    0.160410
     6  O   -0.513085
     7  I    0.102104
 Sum of Mulliken charges =   0.00000
 Mulliken charges with hydrogens summed into heavy atoms:
               1
     1  C    0.250571
     5  C    0.160410
     6  O   -0.513085
     7  I    0.102104
 Electronic spatial extent (au):  <R**2>=            555.9439
 Charge=              0.0000 electrons
 Dipole moment (field-independent basis, Debye):
    X=             -0.3236    Y=             -2.6093    Z=              0.0242  Tot=              2.6294
 Quadrupole moment (field-independent basis, Debye-Ang):
   XX=            -41.9044   YY=            -47.7624   ZZ=            -44.2900
   XY=              5.7292   XZ=             -0.0784   YZ=             -0.0669
 Traceless Quadrupole moment (field-independent basis, Debye-Ang):
   XX=              2.7478   YY=             -3.1101   ZZ=              0.3623
   XY=              5.7292   XZ=             -0.0784   YZ=             -0.0669
 Octapole moment (field-independent basis, Debye-Ang**2):
  XXX=             35.4046  YYY=             -3.9974  ZZZ=              0.7092  XYY=             14.6976
  XXY=            -11.5759  XXZ=             -0.3088  XZZ=              9.1255  YZZ=              0.2002
  YYZ=             -0.1736  XYZ=              0.4331
 Hexadecapole moment (field-independent basis, Debye-Ang**3):
 XXXX=           -511.8681 YYYY=           -185.8958 ZZZZ=            -62.7005 XXXY=             17.3574
 XXXZ=              3.0201 YYYX=              3.1313 YYYZ=              0.8715 ZZZX=             -1.8266
 ZZZY=             -1.0890 XXYY=           -128.3602 XXZZ=            -96.2135 YYZZ=            -39.4085
 XXYZ=             -1.3387 YYXZ=             -0.5453 ZZXY=             -0.6810
 N-N= 1.717223126253D+02 E-N=-1.332679587074D+03  KE= 2.656822446695D+02
 PrsmSu:  requested number of processors reduced to:   1 ShMem   1 Linda.
 PrsmSu:  requested number of processors reduced to:   5 ShMem   1 Linda.
   1 Symmetry operations used in ECPInt.
 ECPInt:  NShTT=    3655 NPrTT=   10746 LenC2=    3646 LenP2D=    9288.
 LDataN:  DoStor=T MaxTD1= 8 Len=  415
 Calling FoFJK, ICntrl=      2127 FMM=F ISym2X=0 I1Cent= 0 IOpClX= 0 NMat=1 NMatS=1 NMatT=0.
 CoulSu:  requested number of processors reduced to:   5 ShMem   1 Linda.
 Defaulting to unpruned grid for atomic number  53.
 Defaulting to unpruned grid for atomic number  53.
 Defaulting to unpruned grid for atomic number  53.
 Defaulting to unpruned grid for atomic number  53.
 Defaulting to unpruned grid for atomic number  53.
 Defaulting to unpruned grid for atomic number  53.
 Defaulting to unpruned grid for atomic number  53.
 Defaulting to unpruned grid for atomic number  53.
 ***** Axes restored to original set *****
 -------------------------------------------------------------------
 Center     Atomic                   Forces (Hartrees/Bohr)
 Number     Number              X              Y              Z
 -------------------------------------------------------------------
      1        6           0.012418039    0.020504664    0.017677519
      2        1           0.009101861   -0.008793031    0.002715352
      3        1          -0.003468200    0.005580040   -0.010698518
      4        1          -0.010452733   -0.007021637    0.006113763
      5        6          -0.061646816    0.058103997   -0.064072296
      6        8           0.046414012   -0.066476643    0.036056357
      7       53           0.007633838   -0.001897390    0.012207824
 -------------------------------------------------------------------
 Cartesian Forces:  Max     0.066476643 RMS     0.031452366

 GradGradGradGradGradGradGradGradGradGradGradGradGradGradGradGradGradGrad
 Berny optimization.
 FormGI is forming the generalized inverse of G from B-inverse, IUseBI=4.
 Internal  Forces:  Max     0.088578972 RMS     0.020915803
 Search for a local minimum.
 Step number   1 out of a maximum of   31
 All quantities printed in internal units (Hartrees-Bohrs-Radians)
 Mixed Optimization -- RFO/linear search
 Second derivative matrix not updated -- first step.
 ITU=  0
     Eigenvalues ---    0.00237   0.00237   0.07243   0.07243   0.14003
     Eigenvalues ---    0.16000   0.16000   0.16000   0.25000   0.25000
     Eigenvalues ---    0.28519   0.37230   0.37230   0.37230   0.80209
 RFO step:  Lambda=-1.48296928D-02 EMin= 2.36824082D-03
 Linear search not attempted -- first point.
 Iteration  1 RMS(Cart)=  0.03668963 RMS(Int)=  0.00113478
 Iteration  2 RMS(Cart)=  0.00133064 RMS(Int)=  0.00025058
 Iteration  3 RMS(Cart)=  0.00000076 RMS(Int)=  0.00025058
 Variable       Old X    -DE/DX   Delta X   Delta X   Delta X     New X
                                 (Linear)    (Quad)   (Total)
    R1        2.02201   0.01252   0.00000   0.03234   0.03234   2.05434
    R2        2.02201   0.01178   0.00000   0.03044   0.03044   2.05245
    R3        2.02201   0.01386   0.00000   0.03580   0.03580   2.05781
    R4        2.91018  -0.01673   0.00000  -0.05576  -0.05576   2.85442
    R5        2.37803  -0.08858   0.00000  -0.10843  -0.10843   2.26960
    R6        3.96842   0.01416   0.00000   0.09143   0.09143   4.05986
    A1        1.91063   0.00235   0.00000   0.02407   0.02418   1.93481
    A2        1.91063  -0.00133   0.00000  -0.00904  -0.00888   1.90175
    A3        1.91063   0.00508   0.00000   0.03366   0.03379   1.94442
    A4        1.91063   0.00211   0.00000   0.00291   0.00226   1.91289
    A5        1.91063  -0.00517   0.00000  -0.02883  -0.02907   1.88156
    A6        1.91063  -0.00305   0.00000  -0.02276  -0.02297   1.88766
    A7        2.09440   0.01195   0.00000   0.04510   0.04479   2.13919
    A8        2.09440  -0.01206   0.00000  -0.04556  -0.04587   2.04853
    A9        2.09440   0.00012   0.00000   0.00045   0.00014   2.09453
    D1        2.61799   0.00123   0.00000   0.02142   0.02143   2.63943
    D2       -0.52360   0.00043   0.00000  -0.02529  -0.02526  -0.54886
    D3        0.52360  -0.00160   0.00000  -0.01101  -0.01070   0.51290
    D4       -2.61799  -0.00240   0.00000  -0.05772  -0.05739  -2.67539
    D5       -1.57080   0.00084   0.00000   0.01702   0.01667  -1.55412
    D6        1.57080   0.00004   0.00000  -0.02969  -0.03002   1.54077
         Item               Value     Threshold  Converged?
 Maximum Force            0.088579     0.000450     NO 
 RMS     Force            0.020916     0.000300     NO 
 Maximum Displacement     0.090490     0.001800     NO 
 RMS     Displacement     0.037412     0.001200     NO 
 Predicted change in Energy=-7.704605D-03
 GradGradGradGradGradGradGradGradGradGradGradGradGradGradGradGradGradGrad

                          Input orientation:                          
 ---------------------------------------------------------------------
 Center     Atomic      Atomic             Coordinates (Angstroms)
 Number     Number       Type             X           Y           Z
 ---------------------------------------------------------------------
      1          6           0       -1.543932   -1.724274    0.158738
      2          1           0       -0.612406   -2.253436    0.343290
      3          1           0       -1.677470   -1.535025   -0.902387
      4          1           0       -2.372235   -2.326126    0.529538
      5          6           0       -1.572710   -0.393362    0.872486
      6          8           0       -2.196345    0.547221    0.461591
      7         53           0       -0.511475   -0.248123    2.734807
 ---------------------------------------------------------------------
                    Distance matrix (angstroms):
                    1          2          3          4          5
     1  C    0.000000
     2  H    1.087112   0.000000
     3  H    1.086109   1.789465   0.000000
     4  H    1.088946   1.771149   1.777343   0.000000
     5  C    1.510493   2.159191   2.112947   2.119535   0.000000
     6  O    2.382656   3.219710   2.542718   2.879526   1.201021
     7  I    3.143425   3.122630   4.030489   3.555802   2.148384
                    6          7
     6  O    0.000000
     7  I    2.939195   0.000000
 Stoichiometry    C2H3IO
 Framework group  C1[X(C2H3IO)]
 Deg. of freedom    15
 Full point group                 C1      NOp   1
 Largest Abelian subgroup         C1      NOp   1
 Largest concise Abelian subgroup C1      NOp   1
                         Standard orientation:                         
 ---------------------------------------------------------------------
 Center     Atomic      Atomic             Coordinates (Angstroms)
 Number     Number       Type             X           Y           Z
 ---------------------------------------------------------------------
      1          6           0       -2.175579   -1.033215   -0.000573
      2          1           0       -1.679106   -1.855198   -0.510153
      3          1           0       -3.123751   -0.799725   -0.476057
      4          1           0       -2.346693   -1.312415    1.037970
      5          6           0       -1.329502    0.217956   -0.018304
      6          8           0       -1.805253    1.320478    0.005310
      7         53           0        0.804190   -0.032169    0.000359
 ---------------------------------------------------------------------
 Rotational constants (GHZ):     10.4726518      2.2053694      1.8427431
 Basis read from rwf:  (5D, 7F)
 Pseudo-potential data read from rwf file.
 There are   299 symmetry adapted cartesian basis functions of A   symmetry.
 There are   257 symmetry adapted basis functions of A   symmetry.
   257 basis functions,   406 primitive gaussians,   299 cartesian basis functions
    24 alpha electrons       24 beta electrons
       nuclear repulsion energy       172.4412638851 Hartrees.
 NAtoms=    7 NActive=    7 NUniq=    7 SFac= 1.00D+00 NAtFMM=   60 NAOKFM=F Big=F
 Integral buffers will be    131072 words long.
 Raffenetti 2 integral format.
 Two-electron integral symmetry is turned on.
 One-electron integrals computed using PRISM.
 PrsmSu:  requested number of processors reduced to:   2 ShMem   1 Linda.
   1 Symmetry operations used in ECPInt.
 ECPInt:  NShTT=    3655 NPrTT=   10746 LenC2=    3646 LenP2D=    9292.
 LDataN:  DoStor=T MaxTD1= 7 Len=  274
 NBasis=   257 RedAO= T EigKep=  3.48D-05  NBF=   257
 NBsUse=   257 1.00D-06 EigRej= -1.00D+00 NBFU=   257
 Defaulting to unpruned grid for atomic number  53.
 Initial guess from the checkpoint file:  "/lustre/SCRATCH5/gau/mlawal/846027.sched01/Gau-26927.chk"
 B after Tr=     0.000000    0.000000    0.000000
         Rot=    0.999992    0.000486   -0.000489   -0.004003 Ang=   0.47 deg.
 ExpMin= 2.53D-02 ExpMax= 1.53D+04 ExpMxC= 5.22D+02 IAcc=3 IRadAn=         5 AccDes= 0.00D+00
 Harris functional with IExCor=  402 and IRadAn=       5 diagonalized for initial guess.
 HarFok:  IExCor=  402 AccDes= 0.00D+00 IRadAn=         5 IDoV= 1 UseB2=F ITyADJ=14
 ICtDFT=  3500011 ScaDFX=  1.000000  1.000000  1.000000  1.000000
 Defaulting to unpruned grid for atomic number  53.
 Defaulting to unpruned grid for atomic number  53.
 Defaulting to unpruned grid for atomic number  53.
 Defaulting to unpruned grid for atomic number  53.
 Defaulting to unpruned grid for atomic number  53.
 Defaulting to unpruned grid for atomic number  53.
 Defaulting to unpruned grid for atomic number  53.
 Defaulting to unpruned grid for atomic number  53.
 FoFCou: FMM=F IPFlag=           0 FMFlag=      100000 FMFlg1=           0
         NFxFlg=           0 DoJE=T BraDBF=F KetDBF=T FulRan=T
         wScrn=  0.000000 ICntrl=     500 IOpCl=  0 I1Cent=   200000004 NGrid=           0
         NMat0=    1 NMatS0=      1 NMatT0=    0 NMatD0=    1 NMtDS0=    0 NMtDT0=    0
 Petite list used in FoFCou.
 Requested convergence on RMS density matrix=1.00D-08 within 128 cycles.
 Requested convergence on MAX density matrix=1.00D-06.
 Requested convergence on             energy=1.00D-06.
 No special actions if energy rises.
 Defaulting to unpruned grid for atomic number  53.
 Defaulting to unpruned grid for atomic number  53.
 Defaulting to unpruned grid for atomic number  53.
 Defaulting to unpruned grid for atomic number  53.
 Defaulting to unpruned grid for atomic number  53.
 Defaulting to unpruned grid for atomic number  53.
 Defaulting to unpruned grid for atomic number  53.
 Defaulting to unpruned grid for atomic number  53.
 SCF Done:  E(RB3LYP) =  -451.109899178     A.U. after   11 cycles
            NFock= 11  Conv=0.47D-08     -V/T= 2.6971
 PrsmSu:  requested number of processors reduced to:   1 ShMem   1 Linda.
 PrsmSu:  requested number of processors reduced to:   5 ShMem   1 Linda.
   1 Symmetry operations used in ECPInt.
 ECPInt:  NShTT=    3655 NPrTT=   10746 LenC2=    3646 LenP2D=    9292.
 LDataN:  DoStor=T MaxTD1= 8 Len=  415
 Calling FoFJK, ICntrl=      2127 FMM=F ISym2X=0 I1Cent= 0 IOpClX= 0 NMat=1 NMatS=1 NMatT=0.
 CoulSu:  requested number of processors reduced to:   5 ShMem   1 Linda.
 Defaulting to unpruned grid for atomic number  53.
 Defaulting to unpruned grid for atomic number  53.
 Defaulting to unpruned grid for atomic number  53.
 Defaulting to unpruned grid for atomic number  53.
 Defaulting to unpruned grid for atomic number  53.
 Defaulting to unpruned grid for atomic number  53.
 Defaulting to unpruned grid for atomic number  53.
 Defaulting to unpruned grid for atomic number  53.
 ***** Axes restored to original set *****
 -------------------------------------------------------------------
 Center     Atomic                   Forces (Hartrees/Bohr)
 Number     Number              X              Y              Z
 -------------------------------------------------------------------
      1        6           0.008549173    0.001963514    0.005130509
      2        1          -0.001020839   -0.001017418   -0.000078519
      3        1          -0.001345063   -0.000555434   -0.001233784
      4        1          -0.000852034   -0.000921897    0.000766243
      5        6          -0.025742768    0.017499662   -0.023831249
      6        8           0.014482529   -0.015560070    0.010588387
      7       53           0.005929003   -0.001408357    0.008658413
 -------------------------------------------------------------------
 Cartesian Forces:  Max     0.025742768 RMS     0.010520019

 GradGradGradGradGradGradGradGradGradGradGradGradGradGradGradGradGradGrad
 Berny optimization.
 Using GEDIIS/GDIIS optimizer.
 FormGI is forming the generalized inverse of G from B-inverse, IUseBI=4.
 Internal  Forces:  Max     0.023318752 RMS     0.006327647
 Search for a local minimum.
 Step number   2 out of a maximum of   31
 All quantities printed in internal units (Hartrees-Bohrs-Radians)
 Mixed Optimization -- RFO/linear search
 Update second derivatives using D2CorX and points    1    2
 DE= -9.91D-03 DEPred=-7.70D-03 R= 1.29D+00
 TightC=F SS=  1.41D+00  RLast= 1.99D-01 DXNew= 5.0454D-01 5.9593D-01
 Trust test= 1.29D+00 RLast= 1.99D-01 DXMaxT set to 5.05D-01
 ITU=  1  0
 Use linear search instead of GDIIS.
     Eigenvalues ---    0.00236   0.00252   0.07028   0.07502   0.11927
     Eigenvalues ---    0.15953   0.16000   0.16259   0.22403   0.25001
     Eigenvalues ---    0.29114   0.37182   0.37230   0.38558   0.70180
 RFO step:  Lambda=-3.21043154D-03 EMin= 2.36389531D-03
 Quartic linear search produced a step of  0.36762.
 Iteration  1 RMS(Cart)=  0.08716425 RMS(Int)=  0.02255101
 Iteration  2 RMS(Cart)=  0.01986325 RMS(Int)=  0.01162742
 Iteration  3 RMS(Cart)=  0.00039913 RMS(Int)=  0.01161756
 Iteration  4 RMS(Cart)=  0.00001003 RMS(Int)=  0.01161756
 Iteration  5 RMS(Cart)=  0.00000022 RMS(Int)=  0.01161756
 Variable       Old X    -DE/DX   Delta X   Delta X   Delta X     New X
                                 (Linear)    (Quad)   (Total)
    R1        2.05434  -0.00038   0.01189  -0.00824   0.00365   2.05800
    R2        2.05245   0.00126   0.01119  -0.00181   0.00938   2.06183
    R3        2.05781   0.00142   0.01316  -0.00235   0.01081   2.06862
    R4        2.85442  -0.00159  -0.02050   0.00527  -0.01523   2.83919
    R5        2.26960  -0.02332  -0.03986  -0.02054  -0.06040   2.20920
    R6        4.05986   0.01033   0.03361   0.07045   0.10406   4.16392
    A1        1.93481  -0.00022   0.00889  -0.00297   0.00571   1.94052
    A2        1.90175  -0.00100  -0.00326  -0.00989  -0.01304   1.88871
    A3        1.94442   0.00171   0.01242   0.00545   0.01782   1.96225
    A4        1.91289  -0.00069   0.00083  -0.00828  -0.00769   1.90521
    A5        1.88156   0.00103  -0.01069   0.01927   0.00836   1.88992
    A6        1.88766  -0.00086  -0.00844  -0.00361  -0.01211   1.87556
    A7        2.13919   0.00941   0.01647   0.04654   0.03391   2.17310
    A8        2.04853  -0.00921  -0.01686  -0.03260  -0.07916   1.96936
    A9        2.09453  -0.00015   0.00005   0.00544  -0.02652   2.06801
    D1        2.63943  -0.00011   0.00788  -0.23829  -0.22662   2.41281
    D2       -0.54886   0.00104  -0.00929   0.24174   0.22891  -0.31995
    D3        0.51290  -0.00158  -0.00393  -0.25073  -0.25098   0.26192
    D4       -2.67539  -0.00043  -0.02110   0.22930   0.20455  -2.47083
    D5       -1.55412  -0.00086   0.00613  -0.24950  -0.23985  -1.79398
    D6        1.54077   0.00029  -0.01104   0.23053   0.21568   1.75645
         Item               Value     Threshold  Converged?
 Maximum Force            0.023319     0.000450     NO 
 RMS     Force            0.006328     0.000300     NO 
 Maximum Displacement     0.299652     0.001800     NO 
 RMS     Displacement     0.101441     0.001200     NO 
 Predicted change in Energy=-2.537260D-03
 GradGradGradGradGradGradGradGradGradGradGradGradGradGradGradGradGradGrad

                          Input orientation:                          
 ---------------------------------------------------------------------
 Center     Atomic      Atomic             Coordinates (Angstroms)
 Number     Number       Type             X           Y           Z
 ---------------------------------------------------------------------
      1          6           0       -1.557750   -1.716208    0.174219
      2          1           0       -0.621144   -2.213785    0.421614
      3          1           0       -1.624789   -1.511234   -0.895330
      4          1           0       -2.382354   -2.374239    0.466309
      5          6           0       -1.731279   -0.420266    0.914309
      6          8           0       -2.149938    0.562625    0.439604
      7         53           0       -0.419320   -0.260020    2.677340
 ---------------------------------------------------------------------
                    Distance matrix (angstroms):
                    1          2          3          4          5
     1  C    0.000000
     2  H    1.089045   0.000000
     3  H    1.091074   1.798673   0.000000
     4  H    1.094666   1.769069   1.781219   0.000000
     5  C    1.502435   2.166070   2.115737   2.107751   0.000000
     6  O    2.369429   3.169540   2.521650   2.946166   1.169057
     7  I    3.111611   2.991025   3.972740   3.634843   2.203450
                    6          7
     6  O    0.000000
     7  I    2.946056   0.000000
 Stoichiometry    C2H3IO
 Framework group  C1[X(C2H3IO)]
 Deg. of freedom    15
 Full point group                 C1      NOp   1
 Largest Abelian subgroup         C1      NOp   1
 Largest concise Abelian subgroup C1      NOp   1
                         Standard orientation:                         
 ---------------------------------------------------------------------
 Center     Atomic      Atomic             Coordinates (Angstroms)
 Number     Number       Type             X           Y           Z
 ---------------------------------------------------------------------
      1          6           0       -2.134815   -1.047817   -0.030232
      2          1           0       -1.535228   -1.821318   -0.507946
      3          1           0       -3.037713   -0.837322   -0.605480
      4          1           0       -2.417989   -1.401086    0.966416
      5          6           0       -1.377444    0.237804    0.145491
      6          8           0       -1.823986    1.301081   -0.046179
      7         53           0        0.804837   -0.028091   -0.003304
 ---------------------------------------------------------------------
 Rotational constants (GHZ):     10.4526370      2.2021135      1.8437376
 Basis read from rwf:  (5D, 7F)
 Pseudo-potential data read from rwf file.
 There are   299 symmetry adapted cartesian basis functions of A   symmetry.
 There are   257 symmetry adapted basis functions of A   symmetry.
   257 basis functions,   406 primitive gaussians,   299 cartesian basis functions
    24 alpha electrons       24 beta electrons
       nuclear repulsion energy       172.5185262901 Hartrees.
 NAtoms=    7 NActive=    7 NUniq=    7 SFac= 1.00D+00 NAtFMM=   60 NAOKFM=F Big=F
 Integral buffers will be    131072 words long.
 Raffenetti 2 integral format.
 Two-electron integral symmetry is turned on.
 One-electron integrals computed using PRISM.
 PrsmSu:  requested number of processors reduced to:   2 ShMem   1 Linda.
   1 Symmetry operations used in ECPInt.
 ECPInt:  NShTT=    3655 NPrTT=   10746 LenC2=    3644 LenP2D=    9296.
 LDataN:  DoStor=T MaxTD1= 7 Len=  274
 NBasis=   257 RedAO= T EigKep=  3.44D-05  NBF=   257
 NBsUse=   257 1.00D-06 EigRej= -1.00D+00 NBFU=   257
 Defaulting to unpruned grid for atomic number  53.
 Initial guess from the checkpoint file:  "/lustre/SCRATCH5/gau/mlawal/846027.sched01/Gau-26927.chk"
 B after Tr=     0.000000    0.000000    0.000000
         Rot=    0.999981   -0.002646    0.001771   -0.005258 Ang=  -0.70 deg.
 ExpMin= 2.53D-02 ExpMax= 1.53D+04 ExpMxC= 5.22D+02 IAcc=3 IRadAn=         5 AccDes= 0.00D+00
 Harris functional with IExCor=  402 and IRadAn=       5 diagonalized for initial guess.
 HarFok:  IExCor=  402 AccDes= 0.00D+00 IRadAn=         5 IDoV= 1 UseB2=F ITyADJ=14
 ICtDFT=  3500011 ScaDFX=  1.000000  1.000000  1.000000  1.000000
 Defaulting to unpruned grid for atomic number  53.
 Defaulting to unpruned grid for atomic number  53.
 Defaulting to unpruned grid for atomic number  53.
 Defaulting to unpruned grid for atomic number  53.
 Defaulting to unpruned grid for atomic number  53.
 Defaulting to unpruned grid for atomic number  53.
 Defaulting to unpruned grid for atomic number  53.
 Defaulting to unpruned grid for atomic number  53.
 FoFCou: FMM=F IPFlag=           0 FMFlag=      100000 FMFlg1=           0
         NFxFlg=           0 DoJE=T BraDBF=F KetDBF=T FulRan=T
         wScrn=  0.000000 ICntrl=     500 IOpCl=  0 I1Cent=   200000004 NGrid=           0
         NMat0=    1 NMatS0=      1 NMatT0=    0 NMatD0=    1 NMtDS0=    0 NMtDT0=    0
 Petite list used in FoFCou.
 Requested convergence on RMS density matrix=1.00D-08 within 128 cycles.
 Requested convergence on MAX density matrix=1.00D-06.
 Requested convergence on             energy=1.00D-06.
 No special actions if energy rises.
 Defaulting to unpruned grid for atomic number  53.
 Defaulting to unpruned grid for atomic number  53.
 Defaulting to unpruned grid for atomic number  53.
 Defaulting to unpruned grid for atomic number  53.
 Defaulting to unpruned grid for atomic number  53.
 Defaulting to unpruned grid for atomic number  53.
 Defaulting to unpruned grid for atomic number  53.
 Defaulting to unpruned grid for atomic number  53.
 SCF Done:  E(RB3LYP) =  -451.104316806     A.U. after   11 cycles
            NFock= 11  Conv=0.99D-08     -V/T= 2.6965
 PrsmSu:  requested number of processors reduced to:   1 ShMem   1 Linda.
 PrsmSu:  requested number of processors reduced to:   5 ShMem   1 Linda.
   1 Symmetry operations used in ECPInt.
 ECPInt:  NShTT=    3655 NPrTT=   10746 LenC2=    3644 LenP2D=    9296.
 LDataN:  DoStor=T MaxTD1= 8 Len=  415
 Calling FoFJK, ICntrl=      2127 FMM=F ISym2X=0 I1Cent= 0 IOpClX= 0 NMat=1 NMatS=1 NMatT=0.
 CoulSu:  requested number of processors reduced to:   5 ShMem   1 Linda.
 Defaulting to unpruned grid for atomic number  53.
 Defaulting to unpruned grid for atomic number  53.
 Defaulting to unpruned grid for atomic number  53.
 Defaulting to unpruned grid for atomic number  53.
 Defaulting to unpruned grid for atomic number  53.
 Defaulting to unpruned grid for atomic number  53.
 Defaulting to unpruned grid for atomic number  53.
 Defaulting to unpruned grid for atomic number  53.
 ***** Axes restored to original set *****
 -------------------------------------------------------------------
 Center     Atomic                   Forces (Hartrees/Bohr)
 Number     Number              X              Y              Z
 -------------------------------------------------------------------
      1        6          -0.011282324   -0.010967232    0.004270091
      2        1          -0.002628836    0.002856969    0.000746608
      3        1          -0.001054640   -0.000094724    0.002062806
      4        1           0.001817532   -0.002243984   -0.002138468
      5        6           0.039026459   -0.005936392   -0.016150649
      6        8          -0.024034935    0.018047679   -0.000409636
      7       53          -0.001843255   -0.001662316    0.011619247
 -------------------------------------------------------------------
 Cartesian Forces:  Max     0.039026459 RMS     0.012273868

 GradGradGradGradGradGradGradGradGradGradGradGradGradGradGradGradGradGrad
 Berny optimization.
 Using GEDIIS/GDIIS optimizer.
 FormGI is forming the generalized inverse of G from B-inverse, IUseBI=4.
 Internal  Forces:  Max     0.023959088 RMS     0.008703180
 Search for a local minimum.
 Step number   3 out of a maximum of   31
 All quantities printed in internal units (Hartrees-Bohrs-Radians)
 Mixed Optimization -- RFO/linear search
 Update second derivatives using D2CorX and points    1    3    2
 DE=  5.58D-03 DEPred=-2.54D-03 R=-2.20D+00
 Trust test=-2.20D+00 RLast= 5.80D-01 DXMaxT set to 2.52D-01
 ITU= -1  1  0
 Use linear search instead of GDIIS.
 Energy rises -- skip Quadratic/GDIIS search.
 Quartic linear search produced a step of -0.77291.
 Iteration  1 RMS(Cart)=  0.08333851 RMS(Int)=  0.00896211
 Iteration  2 RMS(Cart)=  0.01013810 RMS(Int)=  0.00199702
 Iteration  3 RMS(Cart)=  0.00003543 RMS(Int)=  0.00199669
 Iteration  4 RMS(Cart)=  0.00000003 RMS(Int)=  0.00199669
 Variable       Old X    -DE/DX   Delta X   Delta X   Delta X     New X
                                 (Linear)    (Quad)   (Total)
    R1        2.05800  -0.00339  -0.00282   0.00000  -0.00282   2.05517
    R2        2.06183  -0.00198  -0.00725   0.00000  -0.00725   2.05458
    R3        2.06862  -0.00059  -0.00835   0.00000  -0.00835   2.06026
    R4        2.83919   0.00507   0.01177   0.00000   0.01177   2.85096
    R5        2.20920   0.02396   0.04669   0.00000   0.04669   2.25588
    R6        4.16392   0.00806  -0.08043   0.00000  -0.08043   4.08349
    A1        1.94052   0.00162  -0.00442   0.00000  -0.00437   1.93615
    A2        1.88871  -0.00110   0.01008   0.00000   0.01007   1.89878
    A3        1.96225  -0.00381  -0.01377   0.00000  -0.01376   1.94849
    A4        1.90521  -0.00173   0.00594   0.00000   0.00594   1.91115
    A5        1.88992  -0.00077  -0.00646   0.00000  -0.00644   1.88348
    A6        1.87556   0.00596   0.00936   0.00000   0.00935   1.88491
    A7        2.17310   0.00905  -0.02621   0.00000  -0.02094   2.15217
    A8        1.96936   0.00313   0.06119   0.00000   0.06647   2.03583
    A9        2.06801  -0.00346   0.02050   0.00000   0.02578   2.09380
    D1        2.41281   0.01045   0.17516   0.00000   0.17505   2.58786
    D2       -0.31995  -0.01187  -0.17693   0.00000  -0.17686  -0.49681
    D3        0.26192   0.01147   0.19399   0.00000   0.19392   0.45584
    D4       -2.47083  -0.01085  -0.15810   0.00000  -0.15800  -2.62883
    D5       -1.79398   0.01071   0.18538   0.00000   0.18530  -1.60868
    D6        1.75645  -0.01162  -0.16670   0.00000  -0.16661   1.58984
         Item               Value     Threshold  Converged?
 Maximum Force            0.023959     0.000450     NO 
 RMS     Force            0.008703     0.000300     NO 
 Maximum Displacement     0.233078     0.001800     NO 
 RMS     Displacement     0.079499     0.001200     NO 
 Predicted change in Energy=-6.343788D-04
 GradGradGradGradGradGradGradGradGradGradGradGradGradGradGradGradGradGrad

                          Input orientation:                          
 ---------------------------------------------------------------------
 Center     Atomic      Atomic             Coordinates (Angstroms)
 Number     Number       Type             X           Y           Z
 ---------------------------------------------------------------------
      1          6           0       -1.547128   -1.723512    0.161335
      2          1           0       -0.613492   -2.245242    0.358535
      3          1           0       -1.667310   -1.530728   -0.901903
      4          1           0       -2.374731   -2.338539    0.515523
      5          6           0       -1.607939   -0.399915    0.882762
      6          8           0       -2.185235    0.553652    0.455553
      7         53           0       -0.490736   -0.248841    2.726258
 ---------------------------------------------------------------------
                    Distance matrix (angstroms):
                    1          2          3          4          5
     1  C    0.000000
     2  H    1.087551   0.000000
     3  H    1.087237   1.791582   0.000000
     4  H    1.090245   1.770682   1.778229   0.000000
     5  C    1.508663   2.160781   2.113597   2.116861   0.000000
     6  O    2.383112   3.211479   2.540782   2.899013   1.193762
     7  I    3.141568   3.099484   4.023818   3.578215   2.160889
                    6          7
     6  O    0.000000
     7  I    2.944727   0.000000
 Stoichiometry    C2H3IO
 Framework group  C1[X(C2H3IO)]
 Deg. of freedom    15
 Full point group                 C1      NOp   1
 Largest Abelian subgroup         C1      NOp   1
 Largest concise Abelian subgroup C1      NOp   1
                         Standard orientation:                         
 ---------------------------------------------------------------------
 Center     Atomic      Atomic             Coordinates (Angstroms)
 Number     Number       Type             X           Y           Z
 ---------------------------------------------------------------------
      1          6           0       -2.170689   -1.037394   -0.007528
      2          1           0       -1.652461   -1.848620   -0.513611
      3          1           0       -3.110618   -0.807736   -0.503384
      4          1           0       -2.365996   -1.334318    1.023164
      5          6           0       -1.340437    0.221976    0.019534
      6          8           0       -1.811627    1.318512   -0.006128
      7         53           0        0.805450   -0.031413   -0.000551
 ---------------------------------------------------------------------
 Rotational constants (GHZ):     10.4549897      2.1992111      1.8379136
 Basis read from rwf:  (5D, 7F)
 Pseudo-potential data read from rwf file.
 There are   299 symmetry adapted cartesian basis functions of A   symmetry.
 There are   257 symmetry adapted basis functions of A   symmetry.
   257 basis functions,   406 primitive gaussians,   299 cartesian basis functions
    24 alpha electrons       24 beta electrons
       nuclear repulsion energy       172.3173594179 Hartrees.
 NAtoms=    7 NActive=    7 NUniq=    7 SFac= 1.00D+00 NAtFMM=   60 NAOKFM=F Big=F
 Integral buffers will be    131072 words long.
 Raffenetti 2 integral format.
 Two-electron integral symmetry is turned on.
 One-electron integrals computed using PRISM.
 PrsmSu:  requested number of processors reduced to:   2 ShMem   1 Linda.
   1 Symmetry operations used in ECPInt.
 ECPInt:  NShTT=    3655 NPrTT=   10746 LenC2=    3645 LenP2D=    9291.
 LDataN:  DoStor=T MaxTD1= 7 Len=  274
 NBasis=   257 RedAO= T EigKep=  3.46D-05  NBF=   257
 NBsUse=   257 1.00D-06 EigRej= -1.00D+00 NBFU=   257
 Defaulting to unpruned grid for atomic number  53.
 Lowest energy guess from the checkpoint file:  "/lustre/SCRATCH5/gau/mlawal/846027.sched01/Gau-26927.chk"
 B after Tr=     0.000000    0.000000    0.000000
         Rot=    0.999999   -0.000780    0.000337   -0.001031 Ang=  -0.15 deg.
 B after Tr=     0.000000    0.000000    0.000000
         Rot=    0.999988    0.001840   -0.001444    0.004225 Ang=   0.55 deg.
 Requested convergence on RMS density matrix=1.00D-08 within 128 cycles.
 Requested convergence on MAX density matrix=1.00D-06.
 Requested convergence on             energy=1.00D-06.
 No special actions if energy rises.
 Defaulting to unpruned grid for atomic number  53.
 Defaulting to unpruned grid for atomic number  53.
 Defaulting to unpruned grid for atomic number  53.
 Defaulting to unpruned grid for atomic number  53.
 Defaulting to unpruned grid for atomic number  53.
 Defaulting to unpruned grid for atomic number  53.
 Defaulting to unpruned grid for atomic number  53.
 Defaulting to unpruned grid for atomic number  53.
 SCF Done:  E(RB3LYP) =  -451.110408824     A.U. after    9 cycles
            NFock=  9  Conv=0.27D-08     -V/T= 2.6970
 PrsmSu:  requested number of processors reduced to:   1 ShMem   1 Linda.
 PrsmSu:  requested number of processors reduced to:   5 ShMem   1 Linda.
   1 Symmetry operations used in ECPInt.
 ECPInt:  NShTT=    3655 NPrTT=   10746 LenC2=    3645 LenP2D=    9291.
 LDataN:  DoStor=T MaxTD1= 8 Len=  415
 Calling FoFJK, ICntrl=      2127 FMM=F ISym2X=0 I1Cent= 0 IOpClX= 0 NMat=1 NMatS=1 NMatT=0.
 CoulSu:  requested number of processors reduced to:   5 ShMem   1 Linda.
 Defaulting to unpruned grid for atomic number  53.
 Defaulting to unpruned grid for atomic number  53.
 Defaulting to unpruned grid for atomic number  53.
 Defaulting to unpruned grid for atomic number  53.
 Defaulting to unpruned grid for atomic number  53.
 Defaulting to unpruned grid for atomic number  53.
 Defaulting to unpruned grid for atomic number  53.
 Defaulting to unpruned grid for atomic number  53.
 ***** Axes restored to original set *****
 -------------------------------------------------------------------
 Center     Atomic                   Forces (Hartrees/Bohr)
 Number     Number              X              Y              Z
 -------------------------------------------------------------------
      1        6           0.003981827   -0.000267589    0.005507298
      2        1          -0.001296072   -0.000111325    0.000157515
      3        1          -0.001225050   -0.000432401   -0.000470825
      4        1          -0.000290809   -0.001243211    0.000105562
      5        6          -0.010423511    0.013965890   -0.023023919
      6        8           0.005574797   -0.010209780    0.009346064
      7       53           0.003678819   -0.001701584    0.008378304
 -------------------------------------------------------------------
 Cartesian Forces:  Max     0.023023919 RMS     0.007542303

 GradGradGradGradGradGradGradGradGradGradGradGradGradGradGradGradGradGrad
 Berny optimization.
 Using GEDIIS/GDIIS optimizer.
 FormGI is forming the generalized inverse of G from B-inverse, IUseBI=4.
 Internal  Forces:  Max     0.014186561 RMS     0.004542860
 Search for a local minimum.
 Step number   4 out of a maximum of   31
 All quantities printed in internal units (Hartrees-Bohrs-Radians)
 Mixed Optimization -- RFO/linear search
 Update second derivatives using D2CorX and points    1    3    2    4
 ITU=  0 -1  1  0
 Use linear search instead of GDIIS.
     Eigenvalues ---    0.00236   0.04240   0.06856   0.07541   0.08322
     Eigenvalues ---    0.15927   0.16026   0.16471   0.20491   0.24973
     Eigenvalues ---    0.28502   0.37157   0.37239   0.37570   0.72023
 RFO step:  Lambda=-4.15682294D-03 EMin= 2.36488248D-03
 Quartic linear search produced a step of  0.00295.
 Iteration  1 RMS(Cart)=  0.06742850 RMS(Int)=  0.00395926
 Iteration  2 RMS(Cart)=  0.00463284 RMS(Int)=  0.00071108
 Iteration  3 RMS(Cart)=  0.00000780 RMS(Int)=  0.00071104
 Iteration  4 RMS(Cart)=  0.00000000 RMS(Int)=  0.00071104
 Variable       Old X    -DE/DX   Delta X   Delta X   Delta X     New X
                                 (Linear)    (Quad)   (Total)
    R1        2.05517  -0.00102   0.00000  -0.01131  -0.01130   2.04387
    R2        2.05458   0.00051   0.00001   0.00051   0.00051   2.05509
    R3        2.06026   0.00096   0.00001   0.00103   0.00104   2.06131
    R4        2.85096  -0.00068  -0.00001   0.00035   0.00034   2.85130
    R5        2.25588  -0.01419  -0.00004  -0.04975  -0.04979   2.20609
    R6        4.08349   0.00892   0.00007   0.14799   0.14806   4.23155
    A1        1.93615   0.00022   0.00000   0.00263   0.00216   1.93831
    A2        1.89878  -0.00098  -0.00001  -0.02052  -0.02052   1.87827
    A3        1.94849   0.00038   0.00001   0.01270   0.01246   1.96095
    A4        1.91115  -0.00089  -0.00001  -0.01728  -0.01726   1.89389
    A5        1.88348   0.00061   0.00001   0.02769   0.02744   1.91092
    A6        1.88491   0.00067  -0.00001  -0.00578  -0.00576   1.87914
    A7        2.15217   0.00802   0.00004   0.08393   0.08213   2.23430
    A8        2.03583  -0.00758  -0.00004  -0.07928  -0.08115   1.95467
    A9        2.09380  -0.00024   0.00000   0.00094  -0.00090   2.09289
    D1        2.58786   0.00222  -0.00015   0.02494   0.02495   2.61281
    D2       -0.49681  -0.00179   0.00015  -0.08836  -0.08799  -0.58480
    D3        0.45584   0.00129  -0.00017  -0.00496  -0.00535   0.45048
    D4       -2.62883  -0.00271   0.00014  -0.11826  -0.11829  -2.74712
    D5       -1.60868   0.00166  -0.00016   0.00358   0.00340  -1.60528
    D6        1.58984  -0.00235   0.00014  -0.10973  -0.10954   1.48030
         Item               Value     Threshold  Converged?
 Maximum Force            0.014187     0.000450     NO 
 RMS     Force            0.004543     0.000300     NO 
 Maximum Displacement     0.134472     0.001800     NO 
 RMS     Displacement     0.069138     0.001200     NO 
 Predicted change in Energy=-2.268593D-03
 GradGradGradGradGradGradGradGradGradGradGradGradGradGradGradGradGradGrad

                          Input orientation:                          
 ---------------------------------------------------------------------
 Center     Atomic      Atomic             Coordinates (Angstroms)
 Number     Number       Type             X           Y           Z
 ---------------------------------------------------------------------
      1          6           0       -1.536457   -1.709720    0.153526
      2          1           0       -0.599732   -2.214106    0.348289
      3          1           0       -1.706348   -1.599955   -0.915007
      4          1           0       -2.335361   -2.324754    0.569848
      5          6           0       -1.607970   -0.356096    0.816246
      6          8           0       -2.186414    0.591506    0.455265
      7         53           0       -0.514291   -0.320000    2.769896
 ---------------------------------------------------------------------
                    Distance matrix (angstroms):
                    1          2          3          4          5
     1  C    0.000000
     2  H    1.081569   0.000000
     3  H    1.087509   1.788211   0.000000
     4  H    1.090796   1.753208   1.767989   0.000000
     5  C    1.508844   2.165117   2.134034   2.113155   0.000000
     6  O    2.410214   3.224975   2.628804   2.922308   1.167413
     7  I    3.133933   3.075568   4.078945   3.489347   2.239238
                    6          7
     6  O    0.000000
     7  I    2.997391   0.000000
 Stoichiometry    C2H3IO
 Framework group  C1[X(C2H3IO)]
 Deg. of freedom    15
 Full point group                 C1      NOp   1
 Largest Abelian subgroup         C1      NOp   1
 Largest concise Abelian subgroup C1      NOp   1
                         Standard orientation:                         
 ---------------------------------------------------------------------
 Center     Atomic      Atomic             Coordinates (Angstroms)
 Number     Number       Type             X           Y           Z
 ---------------------------------------------------------------------
      1          6           0       -2.138079   -1.076582   -0.004194
      2          1           0       -1.602604   -1.849714   -0.538352
      3          1           0       -3.138811   -0.943662   -0.408601
      4          1           0       -2.224160   -1.393118    1.036109
      5          6           0       -1.408417    0.243979   -0.022145
      6          8           0       -1.864877    1.318075    0.006431
      7         53           0        0.814407   -0.025707    0.000329
 ---------------------------------------------------------------------
 Rotational constants (GHZ):     10.1607338      2.1536321      1.7965551
 Basis read from rwf:  (5D, 7F)
 Pseudo-potential data read from rwf file.
 There are   299 symmetry adapted cartesian basis functions of A   symmetry.
 There are   257 symmetry adapted basis functions of A   symmetry.
   257 basis functions,   406 primitive gaussians,   299 cartesian basis functions
    24 alpha electrons       24 beta electrons
       nuclear repulsion energy       170.8355473846 Hartrees.
 NAtoms=    7 NActive=    7 NUniq=    7 SFac= 1.00D+00 NAtFMM=   60 NAOKFM=F Big=F
 Integral buffers will be    131072 words long.
 Raffenetti 2 integral format.
 Two-electron integral symmetry is turned on.
 One-electron integrals computed using PRISM.
 PrsmSu:  requested number of processors reduced to:   2 ShMem   1 Linda.
   1 Symmetry operations used in ECPInt.
 ECPInt:  NShTT=    3655 NPrTT=   10746 LenC2=    3644 LenP2D=    9278.
 LDataN:  DoStor=T MaxTD1= 7 Len=  274
 NBasis=   257 RedAO= T EigKep=  3.44D-05  NBF=   257
 NBsUse=   257 1.00D-06 EigRej= -1.00D+00 NBFU=   257
 Defaulting to unpruned grid for atomic number  53.
 Initial guess from the checkpoint file:  "/lustre/SCRATCH5/gau/mlawal/846027.sched01/Gau-26927.chk"
 B after Tr=     0.000000    0.000000    0.000000
         Rot=    0.999969    0.000113   -0.001098   -0.007812 Ang=   0.90 deg.
 ExpMin= 2.53D-02 ExpMax= 1.53D+04 ExpMxC= 5.22D+02 IAcc=3 IRadAn=         5 AccDes= 0.00D+00
 Harris functional with IExCor=  402 and IRadAn=       5 diagonalized for initial guess.
 HarFok:  IExCor=  402 AccDes= 0.00D+00 IRadAn=         5 IDoV= 1 UseB2=F ITyADJ=14
 ICtDFT=  3500011 ScaDFX=  1.000000  1.000000  1.000000  1.000000
 Defaulting to unpruned grid for atomic number  53.
 Defaulting to unpruned grid for atomic number  53.
 Defaulting to unpruned grid for atomic number  53.
 Defaulting to unpruned grid for atomic number  53.
 Defaulting to unpruned grid for atomic number  53.
 Defaulting to unpruned grid for atomic number  53.
 Defaulting to unpruned grid for atomic number  53.
 Defaulting to unpruned grid for atomic number  53.
 FoFCou: FMM=F IPFlag=           0 FMFlag=      100000 FMFlg1=           0
         NFxFlg=           0 DoJE=T BraDBF=F KetDBF=T FulRan=T
         wScrn=  0.000000 ICntrl=     500 IOpCl=  0 I1Cent=   200000004 NGrid=           0
         NMat0=    1 NMatS0=      1 NMatT0=    0 NMatD0=    1 NMtDS0=    0 NMtDT0=    0
 Petite list used in FoFCou.
 Requested convergence on RMS density matrix=1.00D-08 within 128 cycles.
 Requested convergence on MAX density matrix=1.00D-06.
 Requested convergence on             energy=1.00D-06.
 No special actions if energy rises.
 Defaulting to unpruned grid for atomic number  53.
 Defaulting to unpruned grid for atomic number  53.
 Defaulting to unpruned grid for atomic number  53.
 Defaulting to unpruned grid for atomic number  53.
 Defaulting to unpruned grid for atomic number  53.
 Defaulting to unpruned grid for atomic number  53.
 Defaulting to unpruned grid for atomic number  53.
 Defaulting to unpruned grid for atomic number  53.
 SCF Done:  E(RB3LYP) =  -451.111783552     A.U. after   11 cycles
            NFock= 11  Conv=0.43D-08     -V/T= 2.6967
 PrsmSu:  requested number of processors reduced to:   1 ShMem   1 Linda.
 PrsmSu:  requested number of processors reduced to:   5 ShMem   1 Linda.
   1 Symmetry operations used in ECPInt.
 ECPInt:  NShTT=    3655 NPrTT=   10746 LenC2=    3644 LenP2D=    9278.
 LDataN:  DoStor=T MaxTD1= 8 Len=  415
 Calling FoFJK, ICntrl=      2127 FMM=F ISym2X=0 I1Cent= 0 IOpClX= 0 NMat=1 NMatS=1 NMatT=0.
 CoulSu:  requested number of processors reduced to:   5 ShMem   1 Linda.
 Defaulting to unpruned grid for atomic number  53.
 Defaulting to unpruned grid for atomic number  53.
 Defaulting to unpruned grid for atomic number  53.
 Defaulting to unpruned grid for atomic number  53.
 Defaulting to unpruned grid for atomic number  53.
 Defaulting to unpruned grid for atomic number  53.
 Defaulting to unpruned grid for atomic number  53.
 Defaulting to unpruned grid for atomic number  53.
 ***** Axes restored to original set *****
 -------------------------------------------------------------------
 Center     Atomic                   Forces (Hartrees/Bohr)
 Number     Number              X              Y              Z
 -------------------------------------------------------------------
      1        6          -0.001875536    0.001855168   -0.000576123
      2        1           0.002742026    0.000826103    0.000862675
      3        1          -0.000544826    0.001277333   -0.001163955
      4        1          -0.000846339    0.000384596    0.001283845
      5        6           0.007756770   -0.018801534    0.006033370
      6        8          -0.007436728    0.014173314   -0.006730075
      7       53           0.000204634    0.000285020    0.000290263
 -------------------------------------------------------------------
 Cartesian Forces:  Max     0.018801534 RMS     0.006070177

 GradGradGradGradGradGradGradGradGradGradGradGradGradGradGradGradGradGrad
 Berny optimization.
 Using GEDIIS/GDIIS optimizer.
 FormGI is forming the generalized inverse of G from B-inverse, IUseBI=4.
 Internal  Forces:  Max     0.017277164 RMS     0.004048005
 Search for a local minimum.
 Step number   5 out of a maximum of   31
 All quantities printed in internal units (Hartrees-Bohrs-Radians)
 Mixed Optimization -- RFO/linear search
 Update second derivatives using D2CorX and points    1    3    2    4    5
 DE= -1.37D-03 DEPred=-2.27D-03 R= 6.06D-01
 TightC=F SS=  1.41D+00  RLast= 2.72D-01 DXNew= 4.2426D-01 8.1568D-01
 Trust test= 6.06D-01 RLast= 2.72D-01 DXMaxT set to 4.24D-01
 ITU=  1  0 -1  1  0
 Use linear search instead of GDIIS.
     Eigenvalues ---    0.00232   0.04837   0.06782   0.07439   0.08568
     Eigenvalues ---    0.15717   0.16234   0.16428   0.21189   0.25435
     Eigenvalues ---    0.28027   0.36448   0.37194   0.37255   0.86541
 RFO step:  Lambda=-4.35211367D-04 EMin= 2.32224606D-03
 Quartic linear search produced a step of -0.24721.
 Iteration  1 RMS(Cart)=  0.05338749 RMS(Int)=  0.00139968
 Iteration  2 RMS(Cart)=  0.00140027 RMS(Int)=  0.00014012
 Iteration  3 RMS(Cart)=  0.00000093 RMS(Int)=  0.00014012
 Variable       Old X    -DE/DX   Delta X   Delta X   Delta X     New X
                                 (Linear)    (Quad)   (Total)
    R1        2.04387   0.00215   0.00279   0.00348   0.00627   2.05014
    R2        2.05509   0.00135  -0.00013   0.00348   0.00336   2.05845
    R3        2.06131   0.00090  -0.00026   0.00298   0.00273   2.06403
    R4        2.85130  -0.00409  -0.00008  -0.01200  -0.01208   2.83922
    R5        2.20609   0.01728   0.01231   0.00720   0.01951   2.22560
    R6        4.23155   0.00035  -0.03660   0.02560  -0.01100   4.22054
    A1        1.93831   0.00151  -0.00053   0.00721   0.00671   1.94502
    A2        1.87827   0.00176   0.00507   0.00520   0.01025   1.88852
    A3        1.96095  -0.00235  -0.00308  -0.00947  -0.01254   1.94840
    A4        1.89389   0.00125   0.00427   0.00441   0.00866   1.90255
[...]
 Frc consts  --      0.0099                 0.1715                 0.3391
 IR Inten    --      0.0574                15.3993                 4.7569
  Atom  AN      X      Y      Z        X      Y      Z        X      Y      Z
     1   6     0.00   0.00   0.01     0.40  -0.02   0.00    -0.19  -0.06   0.00
     2   1    -0.42   0.28  -0.32     0.53   0.04   0.01    -0.43  -0.18  -0.01
     3   1     0.00   0.00   0.54     0.35  -0.28   0.00    -0.12   0.36   0.00
     4   1     0.42  -0.28  -0.32     0.53   0.04  -0.01    -0.43  -0.17   0.01
     5   6     0.00   0.00   0.00     0.18   0.09   0.00     0.24  -0.27   0.00
     6   8     0.00   0.00  -0.04     0.13   0.07   0.00     0.48  -0.15   0.00
     7  53     0.00   0.00   0.00    -0.08  -0.01   0.00    -0.06   0.05   0.00
                      4                      5                      6
                      A                      A                      A
 Frequencies --    469.5197               547.3556               930.9708
 Red. masses --      3.2115                 3.9696                 3.3017
 Frc consts  --      0.4171                 0.7007                 1.6860
 IR Inten    --      0.3811               119.5463                84.6063
  Atom  AN      X      Y      Z        X      Y      Z        X      Y      Z
     1   6     0.00   0.00   0.03     0.07   0.24   0.00     0.04   0.30   0.00
     2   1    -0.33  -0.42   0.20    -0.24   0.10  -0.01     0.45   0.42   0.06
     3   1     0.00   0.00   0.40     0.16   0.77   0.00    -0.04  -0.19   0.00
     4   1     0.33   0.42   0.20    -0.24   0.10   0.01     0.45   0.42  -0.06
     5   6     0.00   0.00  -0.41     0.31   0.00   0.00    -0.22  -0.18   0.00
     6   8     0.00   0.00   0.16    -0.20  -0.20   0.00     0.08  -0.15   0.00
     7  53     0.00   0.00   0.01    -0.01  -0.01   0.00     0.00   0.00   0.00
                      7                      8                      9
                      A                      A                      A
 Frequencies --   1031.3918              1089.5412              1381.6170
 Red. masses --      1.5387                 1.7772                 1.2286
 Frc consts  --      0.9644                 1.2430                 1.3818
 IR Inten    --      0.6835               147.4895                21.9107
  Atom  AN      X      Y      Z        X      Y      Z        X      Y      Z
     1   6     0.00   0.00   0.16     0.18  -0.02   0.00     0.06   0.13   0.00
     2   1     0.26   0.57  -0.15    -0.35  -0.10  -0.11    -0.29  -0.47   0.26
     3   1     0.00   0.00  -0.37     0.29   0.75   0.00    -0.05  -0.48   0.00
     4   1    -0.26  -0.57  -0.15    -0.35  -0.10   0.11    -0.29  -0.47  -0.26
     5   6     0.00   0.00  -0.15    -0.18  -0.06   0.00    -0.01  -0.01   0.00
     6   8     0.00   0.00   0.03     0.03   0.03   0.00     0.00   0.00   0.00
     7  53     0.00   0.00   0.00     0.00   0.00   0.00     0.00   0.00   0.00
                     10                     11                     12
                      A                      A                      A
 Frequencies --   1459.2569              1461.2957              1883.8932
 Red. masses --      1.0450                 1.0482                12.0040
 Frc consts  --      1.3110                 1.3188                25.1008
 IR Inten    --     16.5760                 9.1112               473.4223
  Atom  AN      X      Y      Z        X      Y      Z        X      Y      Z
     1   6     0.00   0.00  -0.05    -0.06   0.00   0.00    -0.01  -0.05   0.00
     2   1     0.48   0.09   0.06     0.38  -0.33   0.35    -0.04  -0.18   0.10
     3   1     0.00   0.00   0.72     0.04   0.47  -0.01     0.00   0.12   0.00
     4   1    -0.47  -0.10   0.05     0.39  -0.33  -0.35    -0.04  -0.18  -0.10
     5   6     0.00   0.00  -0.02    -0.01  -0.01   0.00    -0.23   0.74   0.00
     6   8     0.00   0.00   0.00     0.00   0.02   0.00     0.21  -0.50   0.00
     7  53     0.00   0.00   0.00     0.00   0.00   0.00     0.00   0.00   0.00
                     13                     14                     15
                      A                      A                      A
 Frequencies --   3046.8792              3122.1579              3136.1442
 Red. masses --      1.0319                 1.1002                 1.1061
 Frc consts  --      5.6443                 6.3188                 6.4098
 IR Inten    --      2.0539                 0.0076                 9.2778
  Atom  AN      X      Y      Z        X      Y      Z        X      Y      Z
     1   6    -0.03  -0.04   0.00     0.00   0.00   0.09    -0.08   0.05   0.00
     2   1    -0.15   0.29   0.45     0.20  -0.38  -0.56     0.11  -0.22  -0.36
     3   1     0.60  -0.11   0.00     0.00   0.00   0.01     0.77  -0.13   0.00
     4   1    -0.15   0.29  -0.45    -0.20   0.38  -0.56     0.10  -0.22   0.36
     5   6     0.00   0.00   0.00     0.00   0.00   0.00     0.00   0.00   0.00
     6   8     0.00   0.00   0.00     0.00   0.00   0.00     0.00   0.00   0.00
     7  53     0.00   0.00   0.00     0.00   0.00   0.00     0.00   0.00   0.00

 -------------------
 - Thermochemistry -
 -------------------
 Temperature   298.150 Kelvin.  Pressure   1.00000 Atm.
 Atom     1 has atomic number  6 and mass  12.00000
 Atom     2 has atomic number  1 and mass   1.00783
 Atom     3 has atomic number  1 and mass   1.00783
 Atom     4 has atomic number  1 and mass   1.00783
 Atom     5 has atomic number  6 and mass  12.00000
 Atom     6 has atomic number  8 and mass  15.99491
 Atom     7 has atomic number 53 and mass 126.90040
 Molecular mass:   169.91879 amu.
 Principal axes and moments of inertia in atomic units:
                           1         2         3
     Eigenvalues --   177.61954 834.973861001.49536
           X            0.99858   0.05322   0.00000
           Y           -0.05322   0.99858   0.00000
           Z            0.00000   0.00000   1.00000
 This molecule is an asymmetric top.
 Rotational symmetry number  1.
 Rotational temperatures (Kelvin)      0.48764     0.10373     0.08648
 Rotational constants (GHZ):          10.16071     2.16143     1.80205
 Zero-point vibrational energy     120985.2 (Joules/Mol)
                                   28.91615 (Kcal/Mol)
 Warning -- explicit consideration of   5 degrees of freedom as
           vibrations may cause significant error
 Vibrational temperatures:    183.27   371.96   404.59   675.53   787.52
          (Kelvin)           1339.46  1483.94  1567.60  1987.84  2099.54
                             2102.48  2710.50  4383.77  4492.08  4512.21
 
 Zero-point correction=                           0.046081 (Hartree/Particle)
 Thermal correction to Energy=                    0.051082
 Thermal correction to Enthalpy=                  0.052026
 Thermal correction to Gibbs Free Energy=         0.016111
 Sum of electronic and zero-point Energies=           -451.066632
 Sum of electronic and thermal Energies=              -451.061631
 Sum of electronic and thermal Enthalpies=            -451.060687
 Sum of electronic and thermal Free Energies=         -451.096602
 
                     E (Thermal)             CV                S
                      KCal/Mol        Cal/Mol-Kelvin    Cal/Mol-Kelvin
 Total                   32.054             15.203             75.589
 Electronic               0.000              0.000              0.000
 Translational            0.889              2.981             41.298
 Rotational               0.889              2.981             26.499
 Vibrational             30.277              9.242              7.792
 Vibration     1          0.611              1.926              2.985
 Vibration     2          0.667              1.748              1.672
 Vibration     3          0.681              1.708              1.526
 Vibration     4          0.827              1.318              0.739
 Vibration     5          0.903              1.145              0.550
                       Q            Log10(Q)             Ln(Q)
 Total Bot       0.388515D-07         -7.410593        -17.063520
 Total V=0       0.609626D+14         13.785064         31.741282
 Vib (Bot)       0.323472D-20        -20.490163        -47.180343
 Vib (Bot)    1  0.160147D+01          0.204519          0.470923
 Vib (Bot)    2  0.751847D+00         -0.123870         -0.285222
 Vib (Bot)    3  0.683266D+00         -0.165410         -0.380871
 Vib (Bot)    4  0.359394D+00         -0.444429         -1.023337
 Vib (Bot)    5  0.287438D+00         -0.541456         -1.246749
 Vib (V=0)       0.507567D+01          0.705494          1.624459
 Vib (V=0)    1  0.217771D+01          0.338000          0.778274
 Vib (V=0)    2  0.140293D+01          0.147035          0.338560
 Vib (V=0)    3  0.134667D+01          0.129262          0.297636
 Vib (V=0)    4  0.111576D+01          0.047572          0.109538
 Vib (V=0)    5  0.107673D+01          0.032108          0.073931
 Electronic      0.100000D+01          0.000000          0.000000
 Translational   0.870597D+08          7.939817         18.282105
 Rotational      0.137960D+06          5.139753         11.834718
 ***** Axes restored to original set *****
 -------------------------------------------------------------------
 Center     Atomic                   Forces (Hartrees/Bohr)
 Number     Number              X              Y              Z
 -------------------------------------------------------------------
      1        6           0.000029131   -0.000024275    0.000037342
      2        1           0.000000408    0.000004352   -0.000025699
      3        1          -0.000000459   -0.000000055   -0.000028175
      4        1          -0.000016999    0.000014351    0.000009257
      5        6           0.000006271    0.000030550    0.000063628
      6        8          -0.000016100   -0.000003708   -0.000043776
      7       53          -0.000002252   -0.000021214   -0.000012576
 -------------------------------------------------------------------
 Cartesian Forces:  Max     0.000063628 RMS     0.000024602
 FormGI is forming the generalized inverse of G from B-inverse, IUseBI=4.

 GradGradGradGradGradGradGradGradGradGradGradGradGradGradGradGradGradGrad
 Berny optimization.
 Internal  Forces:  Max     0.000062384 RMS     0.000020930
 Search for a local minimum.
 Step number   1 out of a maximum of    2
 All quantities printed in internal units (Hartrees-Bohrs-Radians)
 Second derivative matrix not updated -- analytic derivatives used.
 ITU=  0
     Eigenvalues ---    0.00091   0.04399   0.05430   0.05451   0.06747
     Eigenvalues ---    0.12203   0.13722   0.13832   0.17049   0.21063
     Eigenvalues ---    0.28802   0.33955   0.34187   0.34700   0.94182
 Angle between quadratic step and forces=  62.69 degrees.
 Linear search not attempted -- first point.
 Iteration  1 RMS(Cart)=  0.00034977 RMS(Int)=  0.00000007
 Iteration  2 RMS(Cart)=  0.00000007 RMS(Int)=  0.00000000
 Variable       Old X    -DE/DX   Delta X   Delta X   Delta X     New X
                                 (Linear)    (Quad)   (Total)
    R1        2.05809   0.00000   0.00000  -0.00001  -0.00001   2.05808
    R2        2.05723   0.00003   0.00000   0.00009   0.00009   2.05732
    R3        2.05807   0.00001   0.00000   0.00000   0.00000   2.05808
    R4        2.83377   0.00001   0.00000   0.00010   0.00010   2.83387
    R5        2.22541   0.00002   0.00000   0.00003   0.00003   2.22544
    R6        4.22297  -0.00001   0.00000  -0.00026  -0.00026   4.22272
    A1        1.93256  -0.00002   0.00000  -0.00023  -0.00023   1.93233
    A2        1.87537   0.00002   0.00000   0.00028   0.00028   1.87565
    A3        1.90761   0.00002   0.00000   0.00012   0.00012   1.90773
    A4        1.93232   0.00001   0.00000   0.00002   0.00002   1.93234
    A5        1.90767   0.00000   0.00000  -0.00005  -0.00005   1.90762
    A6        1.90788  -0.00003   0.00000  -0.00013  -0.00013   1.90774
    A7        2.23414  -0.00003   0.00000  -0.00021  -0.00021   2.23393
    A8        1.95761  -0.00003   0.00000  -0.00016  -0.00016   1.95746
    A9        2.09143   0.00006   0.00000   0.00037   0.00037   2.09180
    D1        2.11794  -0.00001   0.00000  -0.00068  -0.00068   2.11726
    D2       -1.02360  -0.00001   0.00000  -0.00074  -0.00074  -1.02433
    D3        0.00034   0.00000   0.00000  -0.00044  -0.00044  -0.00010
    D4       -3.14120   0.00000   0.00000  -0.00049  -0.00049   3.14150
    D5       -2.11713   0.00001   0.00000  -0.00035  -0.00035  -2.11748
    D6        1.02452   0.00001   0.00000  -0.00041  -0.00041   1.02412
         Item               Value     Threshold  Converged?
 Maximum Force            0.000062     0.000450     YES
 RMS     Force            0.000021     0.000300     YES
 Maximum Displacement     0.000788     0.001800     YES
 RMS     Displacement     0.000350     0.001200     YES
 Predicted change in Energy=-3.247776D-08
 Optimization completed.
    -- Stationary point found.
                           ----------------------------
                           !   Optimized Parameters   !
                           ! (Angstroms and Degrees)  !
 --------------------------                            --------------------------
 ! Name  Definition              Value          Derivative Info.                !
 --------------------------------------------------------------------------------
 ! R1    R(1,2)                  1.0891         -DE/DX =    0.0                 !
 ! R2    R(1,3)                  1.0886         -DE/DX =    0.0                 !
 ! R3    R(1,4)                  1.0891         -DE/DX =    0.0                 !
 ! R4    R(1,5)                  1.4996         -DE/DX =    0.0                 !
 ! R5    R(5,6)                  1.1776         -DE/DX =    0.0                 !
 ! R6    R(5,7)                  2.2347         -DE/DX =    0.0                 !
 ! A1    A(2,1,3)              110.7275         -DE/DX =    0.0                 !
 ! A2    A(2,1,4)              107.451          -DE/DX =    0.0                 !
 ! A3    A(2,1,5)              109.2979         -DE/DX =    0.0                 !
 ! A4    A(3,1,4)              110.7137         -DE/DX =    0.0                 !
 ! A5    A(3,1,5)              109.3014         -DE/DX =    0.0                 !
 ! A6    A(4,1,5)              109.3132         -DE/DX =    0.0                 !
 ! A7    A(1,5,6)              128.007          -DE/DX =    0.0                 !
 ! A8    A(1,5,7)              112.163          -DE/DX =    0.0                 !
 ! A9    A(6,5,7)              119.8299         -DE/DX =    0.0001              !
 ! D1    D(2,1,5,6)            121.3489         -DE/DX =    0.0                 !
 ! D2    D(2,1,5,7)            -58.6478         -DE/DX =    0.0                 !
 ! D3    D(3,1,5,6)              0.0195         -DE/DX =    0.0                 !
 ! D4    D(3,1,5,7)            180.0228         -DE/DX =    0.0                 !
 ! D5    D(4,1,5,6)           -121.3025         -DE/DX =    0.0                 !
 ! D6    D(4,1,5,7)             58.7008         -DE/DX =    0.0                 !
 --------------------------------------------------------------------------------
 GradGradGradGradGradGradGradGradGradGradGradGradGradGradGradGradGradGrad

 1\1\GINC-CNODE-4-87\Freq\RB3LYP\Gen\C2H3I1O1\MLAWAL\24-Mar-2015\0\\#N 
 Geom=AllCheck Guess=TCheck SCRF=Check GenChk RB3LYP/ChkBas Freq\\gen c
 alculation-iac C H O=aug-ccpvtz/I=def2tzvp\\0,1\C,-1.557549128,-1.7116
 170725,0.1546221902\H,-0.5354242903,-2.086989521,0.1327745005\H,-1.962
 5340736,-1.6378371581,-0.8531865156\H,-2.1463012044,-2.4022072612,0.75
 67560513\C,-1.5741129141,-0.356197985,0.7959239647\O,-1.9517470651,0.6
 595425115,0.3349617188\I,-0.7589037871,-0.3978188447,2.8762111817\\Ver
 sion=EM64L-G09RevD.01\State=1-A\HF=-451.1127132\RMSD=2.975e-09\RMSF=2.
 460e-05\ZeroPoint=0.0460808\Thermal=0.0510819\Dipole=-0.0147103,-0.967
 3128,-0.525883\DipoleDeriv=0.0190663,-0.0012091,-0.0817802,0.0514013,-
 0.2378305,-0.0130654,-0.0552248,-0.1484869,-0.1665666,-0.0008047,0.011
 021,-0.0202317,-0.0157388,0.0877906,-0.0120214,-0.045011,-0.0269868,0.
 0620595,0.0825389,-0.0013069,-0.0650307,-0.0101358,0.0335987,-0.063358
 ,-0.0694824,-0.0407106,-0.0923216,0.0719196,-0.0353405,0.0212419,-0.00
 87885,0.0773005,-0.0011201,0.0459029,0.0142533,-0.0001514,0.4628402,-0
 .1690124,0.9280436,-0.4520061,0.96262,-0.7146379,0.7852745,0.0147738,2
 .1013205,-0.4180788,0.2030714,-0.5034076,0.4440324,-0.8200626,0.823123
 3,-0.3818602,0.202093,-1.0653709,-0.2174816,-0.0072235,-0.2788353,-0.0
 087645,-0.1034168,-0.0189204,-0.279599,-0.014936,-0.8389696\Polar=54.5
 536586,-1.1452121,59.304213,13.5482093,2.208803,85.1101788\PG=C01 [X(C
 2H3I1O1)]\NImag=0\\0.54036366,-0.00933970,0.46839397,0.01969967,-0.055
 70823,0.55348640,-0.28267522,0.08808642,0.00380694,0.30565621,0.089220
 13,-0.07048954,-0.00492848,-0.09583008,0.08162005,0.00254809,-0.004877
 92,-0.04591285,-0.00485244,0.00453279,0.04463918,-0.08640789,0.0074038
 7,-0.09214752,-0.00773670,0.00076413,-0.02684268,0.08619603,0.00846848
 ,-0.05025903,0.02132902,0.00215895,-0.00117193,0.01046490,-0.00841770,
 0.05134667,-0.09160845,0.01858006,-0.27627626,0.00111303,0.00019497,0.
 00363851,0.10198587,-0.01853978,0.29886054,-0.11986930,-0.09594630,0.0
 7958961,-0.01658774,-0.02020663,0.01636846,0.00763710,0.00966516,-0.00
 624371,0.12967959,-0.09698874,-0.14917252,0.09437808,0.00634002,0.0084
 8638,-0.00648961,0.00044498,-0.00035346,0.00004795,0.10220146,0.165841
 91,0.08088713,0.09407746,-0.13003277,0.00030988,0.00065390,-0.00112438
 ,0.01635448,0.01717680,-0.01256544,-0.08918806,-0.10203001,0.13638435,
 -0.07551643,-0.00418029,0.00217740,0.00114199,0.03201489,0.01532390,-0
 .00056340,-0.01095053,-0.00609697,0.00037670,-0.01504114,-0.01068108,0
 .22901417,-0.00814752,-0.14944427,-0.05749209,0.00147602,-0.01537124,-
 0.00260718,0.00003847,-0.00096797,-0.00020613,0.00269100,-0.02429807,-
 0.00821939,-0.20795143,0.88182238,0.00018666,-0.04724104,-0.10056447,-
 0.00153363,0.00189469,-0.00007962,-0.00054718,-0.02857958,-0.01617876,
 -0.00029610,0.02031344,0.00963122,0.09418177,-0.16767468,0.30996460,0.
 02067246,0.01237375,-0.00667694,-0.00038828,-0.00444317,-0.00142222,-0
 .00041521,-0.00014704,0.00136184,-0.00124800,0.00224451,0.00269833,-0.
 13443585,0.22568256,-0.09273980,0.11691786,0.02079882,-0.05042011,0.01
 522000,-0.00169333,-0.00340402,-0.00078102,-0.00016924,0.00307477,0.00
 160392,0.00136893,-0.00145933,-0.00122352,0.20909002,-0.67122315,0.227
 71858,-0.24508373,0.72292706,-0.00243178,-0.00650212,0.01613137,0.0016
 0879,-0.00199042,0.00040593,0.00134969,0.00166649,0.00335232,0.0006159
 3,-0.00484165,-0.00067898,-0.10110808,0.27048198,-0.17845247,0.1205173
 1,-0.27821508,0.19248820,0.00343272,0.00160225,-0.00644915,0.00058974,
 -0.00151928,-0.00112312,0.00129007,-0.00077732,-0.00051160,0.00001165,
 0.00079891,-0.00038068,-0.02001719,-0.01378911,0.00074827,-0.00110298,
 0.01568852,-0.02055186,0.01579599,-0.00401146,0.00139150,-0.01279830,-
 0.00053802,0.00033029,-0.00024196,-0.00006451,-0.00166905,-0.00168099,
 0.00022636,0.00095509,-0.00043524,-0.00298153,-0.02051769,-0.00643140,
 0.00937313,0.00050477,0.01940079,-0.00200397,0.01900508,-0.00928132,0.
 00167178,-0.01683141,-0.00045257,-0.00035744,-0.00156677,-0.00015265,-
 0.00351784,-0.00083089,-0.00084613,-0.00137819,-0.00161400,0.00620305,
 -0.03428252,-0.02432049,-0.02373852,0.03567711,-0.03324637,0.02826814,
 0.00218709,0.07840993\\-0.00002913,0.00002428,-0.00003734,-0.00000041,
 -0.00000435,0.00002570,0.00000046,0.00000006,0.00002818,0.00001700,-0.
 00001435,-0.00000926,-0.00000627,-0.00003055,-0.00006363,0.00001610,0.
 00000371,0.00004378,0.00000225,0.00002121,0.00001258\\\@


 TIMES HAVE CHANGED. IN THE BIBLE WHEN AN ASS
 SPOKE IT WAS CONSIDERED A MIRACLE.
 Job cpu time:       0 days  0 hours 41 minutes 42.2 seconds.
 File lengths (MBytes):  RWF=     52 Int=      0 D2E=      0 Chk=      6 Scr=      1
 Normal termination of Gaussian 09 at Tue Mar 24 13:20:33 2015.
