 Entering Gaussian System, Link 0=g09
 Initial command:
 /opt/gridware/applications/gaussian/g09/l1.exe "/lustre/SCRATCH5/gau/mlawal/845980.sched01/Gau-12529.inp" -scrdir="/lustre/SCRATCH5/gau/mlawal/845980.sched01/"
 Entering Link 1 = /opt/gridware/applications/gaussian/g09/l1.exe PID=     12530.
  
 Copyright (c) 1988,1990,1992,1993,1995,1998,2003,2009,2013,
            Gaussian, Inc.  All Rights Reserved.
  
 This is part of the Gaussian(R) 09 program.  It is based on
 the Gaussian(R) 03 system (copyright 2003, Gaussian, Inc.),
 the Gaussian(R) 98 system (copyright 1998, Gaussian, Inc.),
 the Gaussian(R) 94 system (copyright 1995, Gaussian, Inc.),
 the Gaussian 92(TM) system (copyright 1992, Gaussian, Inc.),
 the Gaussian 90(TM) system (copyright 1990, Gaussian, Inc.),
 the Gaussian 88(TM) system (copyright 1988, Gaussian, Inc.),
 the Gaussian 86(TM) system (copyright 1986, Carnegie Mellon
 University), and the Gaussian 82(TM) system (copyright 1983,
 Carnegie Mellon University). Gaussian is a federally registered
 trademark of Gaussian, Inc.
  
 This software contains proprietary and confidential information,
 including trade secrets, belonging to Gaussian, Inc.
  
 This software is provided under written license and may be
 used, copied, transmitted, or stored only in accord with that
 written license.
  
 The following legend is applicable only to US Government
 contracts under FAR:
  
                    RESTRICTED RIGHTS LEGEND
  
 Use, reproduction and disclosure by the US Government is
 subject to restrictions as set forth in subparagraphs (a)
 and (c) of the Commercial Computer Software - Restricted
 Rights clause in FAR 52.227-19.
  
 Gaussian, Inc.
 340 Quinnipiac St., Bldg. 40, Wallingford CT 06492
  
  
 ---------------------------------------------------------------
 Warning -- This program may not be used in any manner that
 competes with the business of Gaussian, Inc. or will provide
 assistance to any competitor of Gaussian, Inc.  The licensee
 of this program is prohibited from giving any competitor of
 Gaussian, Inc. access to this program.  By using this program,
 the user acknowledges that Gaussian, Inc. is engaged in the
 business of creating and licensing software in the field of
 computational chemistry and represents and warrants to the
 licensee that it is not a competitor of Gaussian, Inc. and that
 it will not use this program in any manner prohibited above.
 ---------------------------------------------------------------
  

 Cite this work as:
 Gaussian 09, Revision D.01,
 M. J. Frisch, G. W. Trucks, H. B. Schlegel, G. E. Scuseria, 
 M. A. Robb, J. R. Cheeseman, G. Scalmani, V. Barone, B. Mennucci, 
 G. A. Petersson, H. Nakatsuji, M. Caricato, X. Li, H. P. Hratchian, 
 A. F. Izmaylov, J. Bloino, G. Zheng, J. L. Sonnenberg, M. Hada, 
 M. Ehara, K. Toyota, R. Fukuda, J. Hasegawa, M. Ishida, T. Nakajima, 
 Y. Honda, O. Kitao, H. Nakai, T. Vreven, J. A. Montgomery, Jr., 
 J. E. Peralta, F. Ogliaro, M. Bearpark, J. J. Heyd, E. Brothers, 
 K. N. Kudin, V. N. Staroverov, T. Keith, R. Kobayashi, J. Normand, 
 K. Raghavachari, A. Rendell, J. C. Burant, S. S. Iyengar, J. Tomasi, 
 M. Cossi, N. Rega, J. M. Millam, M. Klene, J. E. Knox, J. B. Cross, 
 V. Bakken, C. Adamo, J. Jaramillo, R. Gomperts, R. E. Stratmann, 
 O. Yazyev, A. J. Austin, R. Cammi, C. Pomelli, J. W. Ochterski, 
 R. L. Martin, K. Morokuma, V. G. Zakrzewski, G. A. Voth, 
 P. Salvador, J. J. Dannenberg, S. Dapprich, A. D. Daniels, 
 O. Farkas, J. B. Foresman, J. V. Ortiz, J. Cioslowski, 
 and D. J. Fox, Gaussian, Inc., Wallingford CT, 2013.
 
 ******************************************
 Gaussian 09:  EM64L-G09RevD.01 24-Apr-2013
                24-Mar-2015 
 ******************************************
 %nprocshared=8
 Will use up to    8 processors via shared memory.
 %nprocl=1
 Will use up to    1 processors via Linda.
 ----------------------------------------------------------
 # opt freq b3lyp/gen geom=connectivity gfinput pseudo=read
 ----------------------------------------------------------
 1/14=-1,18=20,19=15,26=3,38=1,57=2/1,3;
 2/9=110,12=2,17=6,18=5,40=1/2;
 3/5=7,11=2,16=1,17=8,24=10,25=1,30=1,71=1,74=-5/1,2,3;
 4//1;
 5/5=2,38=5/2;
 6/7=2,8=2,9=2,10=2,28=1/1;
 7//1,2,3,16;
 1/14=-1,18=20,19=15,26=3/3(2);
 2/9=110/2;
 99//99;
 2/9=110/2;
 3/5=7,6=1,11=2,16=1,17=8,25=1,30=1,71=1,74=-5,82=7/1,2,3;
 4/5=5,16=3,69=1/1;
 5/5=2,38=5/2;
 7//1,2,3,16;
 1/14=-1,18=20,19=15,26=3/3(-5);
 2/9=110/2;
 6/7=2,8=2,9=2,10=2,19=2,28=1/1;
 99/9=1/99;
 ----------------------------------------------
 gen calculation-iac C H O=aug-ccpvtz/I=lanl2dz
 ----------------------------------------------
 Symbolic Z-matrix:
 Charge =  0 Multiplicity = 1
 C                    -1.55617  -1.7399    0.15525 
 H                    -0.63396  -2.25101   0.33747 
 H                    -1.65831  -1.55123  -0.89302 
 H                    -2.37202  -2.34607   0.4897 
 C                    -1.56225  -0.40343   0.92037 
 O                    -2.20363   0.57907   0.46551 
 I                    -0.50022  -0.22056   2.72277 
 

 GradGradGradGradGradGradGradGradGradGradGradGradGradGradGradGradGradGrad
 Berny optimization.
 Initialization pass.
                           ----------------------------
                           !    Initial Parameters    !
                           ! (Angstroms and Degrees)  !
 --------------------------                            --------------------------
 ! Name  Definition              Value          Derivative Info.                !
 --------------------------------------------------------------------------------
 ! R1    R(1,2)                  1.07           estimate D2E/DX2                !
 ! R2    R(1,3)                  1.07           estimate D2E/DX2                !
 ! R3    R(1,4)                  1.07           estimate D2E/DX2                !
 ! R4    R(1,5)                  1.54           estimate D2E/DX2                !
 ! R5    R(5,6)                  1.2584         estimate D2E/DX2                !
 ! R6    R(5,7)                  2.1            estimate D2E/DX2                !
 ! A1    A(2,1,3)              109.4712         estimate D2E/DX2                !
 ! A2    A(2,1,4)              109.4712         estimate D2E/DX2                !
 ! A3    A(2,1,5)              109.4712         estimate D2E/DX2                !
 ! A4    A(3,1,4)              109.4712         estimate D2E/DX2                !
 ! A5    A(3,1,5)              109.4712         estimate D2E/DX2                !
 ! A6    A(4,1,5)              109.4712         estimate D2E/DX2                !
 ! A7    A(1,5,6)              120.0            estimate D2E/DX2                !
 ! A8    A(1,5,7)              120.0            estimate D2E/DX2                !
 ! A9    A(6,5,7)              120.0            estimate D2E/DX2                !
 ! D1    D(2,1,5,6)            150.0            estimate D2E/DX2                !
 ! D2    D(2,1,5,7)            -30.0            estimate D2E/DX2                !
 ! D3    D(3,1,5,6)             30.0            estimate D2E/DX2                !
 ! D4    D(3,1,5,7)           -150.0            estimate D2E/DX2                !
 ! D5    D(4,1,5,6)            -90.0            estimate D2E/DX2                !
 ! D6    D(4,1,5,7)             90.0            estimate D2E/DX2                !
 --------------------------------------------------------------------------------
 Trust Radius=3.00D-01 FncErr=1.00D-07 GrdErr=1.00D-06
 Number of steps in this run=     31 maximum allowed number of steps=    100.
 GradGradGradGradGradGradGradGradGradGradGradGradGradGradGradGradGradGrad

                          Input orientation:                          
 ---------------------------------------------------------------------
 Center     Atomic      Atomic             Coordinates (Angstroms)
 Number     Number       Type             X           Y           Z
 ---------------------------------------------------------------------
      1          6           0       -1.556173   -1.739904    0.155253
      2          1           0       -0.633963   -2.251008    0.337467
      3          1           0       -1.658308   -1.551227   -0.893017
      4          1           0       -2.372024   -2.346067    0.489700
      5          6           0       -1.562253   -0.403433    0.920371
      6          8           0       -2.203629    0.579071    0.465515
      7         53           0       -0.500224   -0.220558    2.722773
 ---------------------------------------------------------------------
                    Distance matrix (angstroms):
                    1          2          3          4          5
     1  C    0.000000
     2  H    1.070000   0.000000
     3  H    1.070000   1.747303   0.000000
     4  H    1.070000   1.747303   1.747303   0.000000
     5  C    1.540000   2.148263   2.148263   2.148263   0.000000
     6  O    2.427572   3.238764   2.584792   2.930080   1.258400
     7  I    3.164743   3.135330   4.023154   3.606665   2.100000
                    6          7
     6  O    0.000000
     7  I    2.938743   0.000000
 Stoichiometry    C2H3IO
 Framework group  C1[X(C2H3IO)]
 Deg. of freedom    15
 Full point group                 C1      NOp   1
 Largest Abelian subgroup         C1      NOp   1
 Largest concise Abelian subgroup C1      NOp   1
                         Standard orientation:                         
 ---------------------------------------------------------------------
 Center     Atomic      Atomic             Coordinates (Angstroms)
 Number     Number       Type             X           Y           Z
 ---------------------------------------------------------------------
      1          6           0       -2.202197   -1.034057    0.000000
      2          1           0       -1.712668   -1.840803   -0.504403
      3          1           0       -3.116465   -0.800408   -0.504403
      4          1           0       -2.414566   -1.320606    1.008806
      5          6           0       -1.285236    0.203192    0.000000
      6          8           0       -1.786151    1.357598    0.000000
      7         53           0        0.801085   -0.036109    0.000000
 ---------------------------------------------------------------------
 Rotational constants (GHZ):     10.1628292      2.2184086      1.8413393
 General basis read from cards:  (5D, 7F)
 ======================================================================================================
                                       Pseudopotential Parameters
 ======================================================================================================
  Center     Atomic      Valence      Angular      Power
  Number     Number     Electrons     Momentum     of R      Exponent        Coefficient   SO-Coeffient
 ======================================================================================================
    1          6
                                   No pseudopotential on this center.
    2          1
                                   No pseudopotential on this center.
    3          1
                                   No pseudopotential on this center.
    4          1
                                   No pseudopotential on this center.
    5          6
                                   No pseudopotential on this center.
    6          8
                                   No pseudopotential on this center.
    7         53            7
                                      F and up 
                                                     0        1.0715702       -0.07476210    0.00000000
                                                     1       44.1936028      -30.08112240    0.00000000
                                                     2       12.9367609      -75.37227210    0.00000000
                                                     2        3.1956412      -22.05637580    0.00000000
                                                     2        0.8589806       -1.69795850    0.00000000
                                      S - F
                                                     0      127.9202670        2.93800360    0.00000000
                                                     1       78.6211465       41.24712670    0.00000000
                                                     2       36.5146237      287.86800950    0.00000000
                                                     2        9.9065681      114.37585060    0.00000000
                                                     2        1.9420086       37.65477140    0.00000000
                                      P - F
                                                     0       13.0035304        2.22226300    0.00000000
                                                     1       76.0331404       39.40908310    0.00000000
                                                     2       24.1961684      177.40750020    0.00000000
                                                     2        6.4053433       77.98894620    0.00000000
                                                     2        1.5851786       25.75476410    0.00000000
                                      D - F
                                                     0       40.4278108        7.05243600    0.00000000
                                                     1       28.9084375       33.30416350    0.00000000
                                                     2       15.6268936      186.94538750    0.00000000
                                                     2        4.1442856       71.96883610    0.00000000
                                                     2        0.9377235        9.36306570    0.00000000
 ======================================================================================================
 AO basis set in the form of general basis input (Overlap normalization):
      1 0
 S   7 1.00       0.000000000000
      0.8236000000D+04  0.5419783203D-03
      0.1235000000D+04  0.4192873817D-02
      0.2808000000D+03  0.2152216205D-01
      0.7927000000D+02  0.8353432195D-01
      0.2559000000D+02  0.2395828457D+00
      0.8997000000D+01  0.4428528419D+00
      0.3319000000D+01  0.3517995618D+00
 S   6 1.00       0.000000000000
      0.2808000000D+03 -0.5949224937D-04
      0.7927000000D+02 -0.1148158310D-02
      0.2559000000D+02 -0.1001913745D-01
      0.8997000000D+01 -0.6121949230D-01
      0.3319000000D+01 -0.1732698541D+00
      0.3643000000D+00  0.1072915192D+01
 S   1 1.00       0.000000000000
      0.9059000000D+00  0.1000000000D+01
 S   1 1.00       0.000000000000
      0.1285000000D+00  0.1000000000D+01
 S   1 1.00       0.000000000000
      0.4402000000D-01  0.1000000000D+01
 P   3 1.00       0.000000000000
      0.1871000000D+02  0.3942638716D-01
      0.4133000000D+01  0.2440889849D+00
      0.1200000000D+01  0.8154920089D+00
 P   1 1.00       0.000000000000
      0.3827000000D+00  0.1000000000D+01
 P   1 1.00       0.000000000000
      0.1209000000D+00  0.1000000000D+01
 P   1 1.00       0.000000000000
      0.3569000000D-01  0.1000000000D+01
 D   1 1.00       0.000000000000
      0.1097000000D+01  0.1000000000D+01
 D   1 1.00       0.000000000000
      0.3180000000D+00  0.1000000000D+01
 D   1 1.00       0.000000000000
      0.1000000000D+00  0.1000000000D+01
 F   1 1.00       0.000000000000
      0.7610000000D+00  0.1000000000D+01
 F   1 1.00       0.000000000000
      0.2680000000D+00  0.1000000000D+01
 ****
      2 0
 S   3 1.00       0.000000000000
      0.3387000000D+02  0.2549486323D-01
      0.5095000000D+01  0.1903627659D+00
      0.1159000000D+01  0.8521620222D+00
 S   1 1.00       0.000000000000
      0.3258000000D+00  0.1000000000D+01
 S   1 1.00       0.000000000000
      0.1027000000D+00  0.1000000000D+01
 S   1 1.00       0.000000000000
      0.2526000000D-01  0.1000000000D+01
 P   1 1.00       0.000000000000
      0.1407000000D+01  0.1000000000D+01
 P   1 1.00       0.000000000000
      0.3880000000D+00  0.1000000000D+01
 P   1 1.00       0.000000000000
      0.1020000000D+00  0.1000000000D+01
 D   1 1.00       0.000000000000
      0.1057000000D+01  0.1000000000D+01
 D   1 1.00       0.000000000000
      0.2470000000D+00  0.1000000000D+01
 ****
      3 0
 S   3 1.00       0.000000000000
      0.3387000000D+02  0.2549486323D-01
      0.5095000000D+01  0.1903627659D+00
      0.1159000000D+01  0.8521620222D+00
 S   1 1.00       0.000000000000
      0.3258000000D+00  0.1000000000D+01
 S   1 1.00       0.000000000000
      0.1027000000D+00  0.1000000000D+01
 S   1 1.00       0.000000000000
      0.2526000000D-01  0.1000000000D+01
 P   1 1.00       0.000000000000
      0.1407000000D+01  0.1000000000D+01
 P   1 1.00       0.000000000000
      0.3880000000D+00  0.1000000000D+01
 P   1 1.00       0.000000000000
      0.1020000000D+00  0.1000000000D+01
 D   1 1.00       0.000000000000
      0.1057000000D+01  0.1000000000D+01
 D   1 1.00       0.000000000000
      0.2470000000D+00  0.1000000000D+01
 ****
      4 0
 S   3 1.00       0.000000000000
      0.3387000000D+02  0.2549486323D-01
      0.5095000000D+01  0.1903627659D+00
      0.1159000000D+01  0.8521620222D+00
 S   1 1.00       0.000000000000
      0.3258000000D+00  0.1000000000D+01
 S   1 1.00       0.000000000000
      0.1027000000D+00  0.1000000000D+01
 S   1 1.00       0.000000000000
      0.2526000000D-01  0.1000000000D+01
 P   1 1.00       0.000000000000
      0.1407000000D+01  0.1000000000D+01
 P   1 1.00       0.000000000000
      0.3880000000D+00  0.1000000000D+01
 P   1 1.00       0.000000000000
      0.1020000000D+00  0.1000000000D+01
 D   1 1.00       0.000000000000
      0.1057000000D+01  0.1000000000D+01
 D   1 1.00       0.000000000000
      0.2470000000D+00  0.1000000000D+01
 ****
      5 0
 S   7 1.00       0.000000000000
      0.8236000000D+04  0.5419783203D-03
      0.1235000000D+04  0.4192873817D-02
      0.2808000000D+03  0.2152216205D-01
      0.7927000000D+02  0.8353432195D-01
      0.2559000000D+02  0.2395828457D+00
      0.8997000000D+01  0.4428528419D+00
      0.3319000000D+01  0.3517995618D+00
 S   6 1.00       0.000000000000
      0.2808000000D+03 -0.5949224937D-04
      0.7927000000D+02 -0.1148158310D-02
      0.2559000000D+02 -0.1001913745D-01
      0.8997000000D+01 -0.6121949230D-01
      0.3319000000D+01 -0.1732698541D+00
      0.3643000000D+00  0.1072915192D+01
 S   1 1.00       0.000000000000
      0.9059000000D+00  0.1000000000D+01
 S   1 1.00       0.000000000000
      0.1285000000D+00  0.1000000000D+01
 S   1 1.00       0.000000000000
      0.4402000000D-01  0.1000000000D+01
 P   3 1.00       0.000000000000
      0.1871000000D+02  0.3942638716D-01
      0.4133000000D+01  0.2440889849D+00
      0.1200000000D+01  0.8154920089D+00
 P   1 1.00       0.000000000000
      0.3827000000D+00  0.1000000000D+01
 P   1 1.00       0.000000000000
      0.1209000000D+00  0.1000000000D+01
 P   1 1.00       0.000000000000
      0.3569000000D-01  0.1000000000D+01
 D   1 1.00       0.000000000000
      0.1097000000D+01  0.1000000000D+01
 D   1 1.00       0.000000000000
      0.3180000000D+00  0.1000000000D+01
 D   1 1.00       0.000000000000
      0.1000000000D+00  0.1000000000D+01
 F   1 1.00       0.000000000000
      0.7610000000D+00  0.1000000000D+01
 F   1 1.00       0.000000000000
      0.2680000000D+00  0.1000000000D+01
 ****
      6 0
 S   7 1.00       0.000000000000
      0.1533000000D+05  0.5198089434D-03
      0.2299000000D+04  0.4020256215D-02
      0.5224000000D+03  0.2071282673D-01
      0.1473000000D+03  0.8101055358D-01
      0.4755000000D+02  0.2359629851D+00
      0.1676000000D+02  0.4426534455D+00
      0.6207000000D+01  0.3570644227D+00
 S   6 1.00       0.000000000000
      0.5224000000D+03 -0.4421150084D-04
      0.1473000000D+03 -0.1225910413D-02
      0.4755000000D+02 -0.1055177248D-01
      0.1676000000D+02 -0.6744526326D-01
      0.6207000000D+01 -0.1711986073D+00
      0.6882000000D+00  0.1073298561D+01
 S   1 1.00       0.000000000000
      0.1752000000D+01  0.1000000000D+01
 S   1 1.00       0.000000000000
      0.2384000000D+00  0.1000000000D+01
 S   1 1.00       0.000000000000
      0.7376000000D-01  0.1000000000D+01
 P   3 1.00       0.000000000000
      0.3446000000D+02  0.4116348957D-01
      0.7749000000D+01  0.2577628359D+00
      0.2280000000D+01  0.8024192744D+00
 P   1 1.00       0.000000000000
      0.7156000000D+00  0.1000000000D+01
 P   1 1.00       0.000000000000
      0.2140000000D+00  0.1000000000D+01
 P   1 1.00       0.000000000000
      0.5974000000D-01  0.1000000000D+01
 D   1 1.00       0.000000000000
      0.2314000000D+01  0.1000000000D+01
 D   1 1.00       0.000000000000
      0.6450000000D+00  0.1000000000D+01
 D   1 1.00       0.000000000000
      0.2140000000D+00  0.1000000000D+01
 F   1 1.00       0.000000000000
      0.1428000000D+01  0.1000000000D+01
 F   1 1.00       0.000000000000
      0.5000000000D+00  0.1000000000D+01
 ****
      7 0
 S   2 1.00       0.000000000000
      0.7242000000D+00 -0.2973104752D+01
      0.4653000000D+00  0.3482764244D+01
 S   1 1.00       0.000000000000
      0.1336000000D+00  0.1000000000D+01
 P   2 1.00       0.000000000000
      0.1290000000D+01 -0.2092377099D+00
      0.3180000000D+00  0.1103534752D+01
 P   1 1.00       0.000000000000
      0.1053000000D+00  0.1000000000D+01
 ****

 There are   248 symmetry adapted cartesian basis functions of A   symmetry.
 There are   215 symmetry adapted basis functions of A   symmetry.
   215 basis functions,   309 primitive gaussians,   248 cartesian basis functions
    15 alpha electrons       15 beta electrons
       nuclear repulsion energy        92.4722114197 Hartrees.
 NAtoms=    7 NActive=    7 NUniq=    7 SFac= 1.00D+00 NAtFMM=   60 NAOKFM=F Big=F
 Integral buffers will be    131072 words long.
 Raffenetti 2 integral format.
 Two-electron integral symmetry is turned on.
 One-electron integrals computed using PRISM.
 PrsmSu:  requested number of processors reduced to:   4 ShMem   1 Linda.
   1 Symmetry operations used in ECPInt.
 ECPInt:  NShTT=    2701 NPrTT=    7388 LenC2=    2702 LenP2D=    6804.
 LDataN:  DoStor=T MaxTD1= 6 Len=  172
 NBasis=   215 RedAO= T EigKep=  4.07D-05  NBF=   215
 NBsUse=   215 1.00D-06 EigRej= -1.00D+00 NBFU=   215
 Defaulting to unpruned grid for atomic number  53.
 ExpMin= 2.53D-02 ExpMax= 1.53D+04 ExpMxC= 5.22D+02 IAcc=3 IRadAn=         5 AccDes= 0.00D+00
 Harris functional with IExCor=  402 and IRadAn=       5 diagonalized for initial guess.
 HarFok:  IExCor=  402 AccDes= 0.00D+00 IRadAn=         5 IDoV= 1 UseB2=F ITyADJ=14
 ICtDFT=  3500011 ScaDFX=  1.000000  1.000000  1.000000  1.000000
 Defaulting to unpruned grid for atomic number  53.
 Defaulting to unpruned grid for atomic number  53.
 Defaulting to unpruned grid for atomic number  53.
 Defaulting to unpruned grid for atomic number  53.
 Defaulting to unpruned grid for atomic number  53.
 Defaulting to unpruned grid for atomic number  53.
 Defaulting to unpruned grid for atomic number  53.
 Defaulting to unpruned grid for atomic number  53.
 FoFCou: FMM=F IPFlag=           0 FMFlag=      100000 FMFlg1=           0
         NFxFlg=           0 DoJE=T BraDBF=F KetDBF=T FulRan=T
         wScrn=  0.000000 ICntrl=     500 IOpCl=  0 I1Cent=   200000004 NGrid=           0
         NMat0=    1 NMatS0=      1 NMatT0=    0 NMatD0=    1 NMtDS0=    0 NMtDT0=    0
 Petite list used in FoFCou.
 Requested convergence on RMS density matrix=1.00D-08 within 128 cycles.
 Requested convergence on MAX density matrix=1.00D-06.
 Requested convergence on             energy=1.00D-06.
 No special actions if energy rises.
 Defaulting to unpruned grid for atomic number  53.
 Defaulting to unpruned grid for atomic number  53.
 Defaulting to unpruned grid for atomic number  53.
 Defaulting to unpruned grid for atomic number  53.
 Defaulting to unpruned grid for atomic number  53.
 Defaulting to unpruned grid for atomic number  53.
 Defaulting to unpruned grid for atomic number  53.
 Defaulting to unpruned grid for atomic number  53.
 SCF Done:  E(RB3LYP) =  -164.685980728     A.U. after   12 cycles
            NFock= 12  Conv=0.42D-08     -V/T= 2.0604

 **********************************************************************

            Population analysis using the SCF density.

 **********************************************************************

 Orbital symmetries:
       Occupied  (A) (A) (A) (A) (A) (A) (A) (A) (A) (A) (A) (A)
                 (A) (A) (A)
       Virtual   (A) (A) (A) (A) (A) (A) (A) (A) (A) (A) (A) (A)
                 (A) (A) (A) (A) (A) (A) (A) (A) (A) (A) (A) (A)
                 (A) (A) (A) (A) (A) (A) (A) (A) (A) (A) (A) (A)
                 (A) (A) (A) (A) (A) (A) (A) (A) (A) (A) (A) (A)
                 (A) (A) (A) (A) (A) (A) (A) (A) (A) (A) (A) (A)
                 (A) (A) (A) (A) (A) (A) (A) (A) (A) (A) (A) (A)
                 (A) (A) (A) (A) (A) (A) (A) (A) (A) (A) (A) (A)
                 (A) (A) (A) (A) (A) (A) (A) (A) (A) (A) (A) (A)
                 (A) (A) (A) (A) (A) (A) (A) (A) (A) (A) (A) (A)
                 (A) (A) (A) (A) (A) (A) (A) (A) (A) (A) (A) (A)
                 (A) (A) (A) (A) (A) (A) (A) (A) (A) (A) (A) (A)
                 (A) (A) (A) (A) (A) (A) (A) (A) (A) (A) (A) (A)
                 (A) (A) (A) (A) (A) (A) (A) (A) (A) (A) (A) (A)
                 (A) (A) (A) (A) (A) (A) (A) (A) (A) (A) (A) (A)
                 (A) (A) (A) (A) (A) (A) (A) (A) (A) (A) (A) (A)
                 (A) (A) (A) (A) (A) (A) (A) (A) (A) (A) (A) (A)
                 (A) (A) (A) (A) (A) (A) (A) (A)
 The electronic state is 1-A.
 Alpha  occ. eigenvalues --  -19.16081 -10.32751 -10.20626  -1.05469  -0.78193
 Alpha  occ. eigenvalues --   -0.71281  -0.55795  -0.47583  -0.47228  -0.46151
 Alpha  occ. eigenvalues --   -0.40981  -0.38981  -0.29292  -0.28893  -0.27591
 Alpha virt. eigenvalues --   -0.07039  -0.04559  -0.01514   0.01599   0.01799
 Alpha virt. eigenvalues --    0.02422   0.05852   0.06524   0.06922   0.07456
 Alpha virt. eigenvalues --    0.07953   0.08326   0.10802   0.11360   0.12736
 Alpha virt. eigenvalues --    0.15392   0.15703   0.16517   0.16822   0.17893
 Alpha virt. eigenvalues --    0.19782   0.22777   0.23692   0.25234   0.26047
 Alpha virt. eigenvalues --    0.26535   0.27000   0.28348   0.29402   0.29592
 Alpha virt. eigenvalues --    0.29868   0.32130   0.33076   0.33712   0.34350
 Alpha virt. eigenvalues --    0.35717   0.36136   0.37691   0.40510   0.42464
 Alpha virt. eigenvalues --    0.43749   0.46281   0.48491   0.49891   0.52414
 Alpha virt. eigenvalues --    0.54836   0.57428   0.59138   0.61294   0.62930
 Alpha virt. eigenvalues --    0.64777   0.65547   0.67919   0.69152   0.70140
 Alpha virt. eigenvalues --    0.73599   0.74331   0.76585   0.78381   0.80273
 Alpha virt. eigenvalues --    0.80569   0.81573   0.82061   0.83657   0.85131
 Alpha virt. eigenvalues --    0.86982   0.88148   0.90510   0.91968   0.94855
 Alpha virt. eigenvalues --    0.95852   0.96611   1.00003   1.00778   1.02496
 Alpha virt. eigenvalues --    1.03303   1.07389   1.08528   1.10163   1.11665
 Alpha virt. eigenvalues --    1.13692   1.20132   1.21686   1.23791   1.26679
 Alpha virt. eigenvalues --    1.28680   1.30098   1.34812   1.37269   1.39358
 Alpha virt. eigenvalues --    1.41413   1.44000   1.44553   1.47593   1.49556
 Alpha virt. eigenvalues --    1.51235   1.55152   1.57693   1.59276   1.61465
 Alpha virt. eigenvalues --    1.66034   1.68596   1.74166   1.78789   1.83711
 Alpha virt. eigenvalues --    1.88302   1.89030   1.97132   1.99365   2.00274
 Alpha virt. eigenvalues --    2.03212   2.12692   2.14302   2.16069   2.21005
 Alpha virt. eigenvalues --    2.22828   2.24432   2.31924   2.37549   2.42739
 Alpha virt. eigenvalues --    2.44207   2.48881   2.51713   2.60898   2.71871
 Alpha virt. eigenvalues --    2.79458   2.83615   2.97891   3.02841   3.08109
 Alpha virt. eigenvalues --    3.12788   3.14033   3.17788   3.18407   3.22359
 Alpha virt. eigenvalues --    3.24512   3.25478   3.27537   3.29919   3.36897
 Alpha virt. eigenvalues --    3.37693   3.43521   3.44904   3.45329   3.57596
 Alpha virt. eigenvalues --    3.59173   3.61186   3.65374   3.68086   3.73577
 Alpha virt. eigenvalues --    3.78211   3.79367   3.86046   3.90013   3.94855
 Alpha virt. eigenvalues --    4.00191   4.05157   4.10811   4.18810   4.27047
 Alpha virt. eigenvalues --    4.32103   4.37499   4.39445   4.44083   4.44750
 Alpha virt. eigenvalues --    4.53819   4.63197   4.68636   4.71129   4.80102
 Alpha virt. eigenvalues --    4.84804   4.99236   5.01888   5.07360   5.24493
 Alpha virt. eigenvalues --    5.28702   5.33663   5.34813   5.62744   5.67628
 Alpha virt. eigenvalues --    5.79307   5.80989   6.13050   6.16208   6.24580
 Alpha virt. eigenvalues --    6.26685   6.38578   6.41362   6.56393   6.67890
 Alpha virt. eigenvalues --    6.68094   6.70740   6.86567   7.02230   7.09597
 Alpha virt. eigenvalues --    7.19182  12.59099  13.02178  13.56894  16.76944
          Condensed to atoms (all electrons):
               1          2          3          4          5          6
     1  C    5.766532   0.258433   0.363324   0.309272  -0.269497   0.013591
     2  H    0.258433   0.659051  -0.085365   0.075329  -0.134696   0.025361
     3  H    0.363324  -0.085365   0.464401  -0.021885   0.074829  -0.005756
     4  H    0.309272   0.075329  -0.021885   0.427754  -0.038989   0.017635
     5  C   -0.269497  -0.134696   0.074829  -0.038989   5.895392   0.175591
     6  O    0.013591   0.025361  -0.005756   0.017635   0.175591   8.391599
     7  I   -0.090102  -0.049007   0.020161  -0.009301   0.302252  -0.132478
               7
     1  C   -0.090102
     2  H   -0.049007
     3  H    0.020161
     4  H   -0.009301
     5  C    0.302252
     6  O   -0.132478
     7  I    6.797868
 Mulliken charges:
               1
     1  C   -0.351552
     2  H    0.250894
     3  H    0.190291
     4  H    0.240185
     5  C   -0.004882
     6  O   -0.485543
     7  I    0.160607
 Sum of Mulliken charges =   0.00000
 Mulliken charges with hydrogens summed into heavy atoms:
               1
     1  C    0.329818
     5  C   -0.004882
     6  O   -0.485543
     7  I    0.160607
 Electronic spatial extent (au):  <R**2>=            499.8188
 Charge=              0.0000 electrons
 Dipole moment (field-independent basis, Debye):
    X=             -0.3087    Y=             -2.6573    Z=              0.0205  Tot=              2.6752
 Quadrupole moment (field-independent basis, Debye-Ang):
   XX=            -35.2223   YY=            -41.1753   ZZ=            -37.6647
   XY=              5.6665   XZ=             -0.0799   YZ=             -0.0758
 Traceless Quadrupole moment (field-independent basis, Debye-Ang):
   XX=              2.7985   YY=             -3.1545   ZZ=              0.3561
   XY=              5.6665   XZ=             -0.0799   YZ=             -0.0758
 Octapole moment (field-independent basis, Debye-Ang**2):
  XXX=             51.7727  YYY=             -4.8455  ZZZ=              0.7010  XYY=             20.1079
  XXY=            -11.9382  XXZ=             -0.3119  XZZ=             14.5596  YZZ=             -0.0877
  YYZ=             -0.1679  XYZ=              0.4318
 Hexadecapole moment (field-independent basis, Debye-Ang**3):
 XXXX=           -483.7658 YYYY=           -184.6265 ZZZZ=            -61.2228 XXXY=             16.5698
 XXXZ=              3.0359 YYYX=              2.3505 YYYZ=              0.8080 ZZZX=             -1.8171
 ZZZY=             -1.1472 XXYY=           -123.4228 XXZZ=            -91.2840 YYZZ=            -38.9282
 XXYZ=             -1.3583 YYXZ=             -0.5381 ZZXY=             -0.9352
 N-N= 9.247221141966D+01 E-N=-5.646661768038D+02  KE= 1.553009153595D+02
 PrsmSu:  requested number of processors reduced to:   4 ShMem   1 Linda.
   1 Symmetry operations used in ECPInt.
 ECPInt:  NShTT=    2701 NPrTT=    7388 LenC2=    2702 LenP2D=    6804.
 LDataN:  DoStor=T MaxTD1= 7 Len=  274
 Calling FoFJK, ICntrl=      2127 FMM=F ISym2X=0 I1Cent= 0 IOpClX= 0 NMat=1 NMatS=1 NMatT=0.
 Defaulting to unpruned grid for atomic number  53.
 Defaulting to unpruned grid for atomic number  53.
 Defaulting to unpruned grid for atomic number  53.
 Defaulting to unpruned grid for atomic number  53.
 Defaulting to unpruned grid for atomic number  53.
 Defaulting to unpruned grid for atomic number  53.
 Defaulting to unpruned grid for atomic number  53.
 Defaulting to unpruned grid for atomic number  53.
 ***** Axes restored to original set *****
 -------------------------------------------------------------------
 Center     Atomic                   Forces (Hartrees/Bohr)
 Number     Number              X              Y              Z
 -------------------------------------------------------------------
      1        6           0.012448654    0.021206372    0.017701510
      2        1           0.008979379   -0.008773764    0.002690040
      3        1          -0.003557010    0.005477593   -0.010639761
      4        1          -0.010402535   -0.007007664    0.006108834
      5        6          -0.060655887    0.058127116   -0.062359638
      6        8           0.046550004   -0.066924554    0.035940133
      7       53           0.006637396   -0.002105098    0.010558882
 -------------------------------------------------------------------
 Cartesian Forces:  Max     0.066924554 RMS     0.031226863

 GradGradGradGradGradGradGradGradGradGradGradGradGradGradGradGradGradGrad
 Berny optimization.
 FormGI is forming the generalized inverse of G from B-inverse, IUseBI=4.
 Internal  Forces:  Max     0.088952013 RMS     0.020929844
 Search for a local minimum.
 Step number   1 out of a maximum of   31
 All quantities printed in internal units (Hartrees-Bohrs-Radians)
 Mixed Optimization -- RFO/linear search
 Second derivative matrix not updated -- first step.
 ITU=  0
     Eigenvalues ---    0.00237   0.00237   0.07243   0.07243   0.14003
     Eigenvalues ---    0.16000   0.16000   0.16000   0.25000   0.25000
     Eigenvalues ---    0.28519   0.37230   0.37230   0.37230   0.80209
 RFO step:  Lambda=-1.45874827D-02 EMin= 2.36824082D-03
 Linear search not attempted -- first point.
 Iteration  1 RMS(Cart)=  0.03757242 RMS(Int)=  0.00114092
 Iteration  2 RMS(Cart)=  0.00131591 RMS(Int)=  0.00025318
 Iteration  3 RMS(Cart)=  0.00000077 RMS(Int)=  0.00025317
 Variable       Old X    -DE/DX   Delta X   Delta X   Delta X     New X
                                 (Linear)    (Quad)   (Total)
    R1        2.02201   0.01240   0.00000   0.03206   0.03206   2.05407
    R2        2.02201   0.01171   0.00000   0.03028   0.03028   2.05228
    R3        2.02201   0.01381   0.00000   0.03570   0.03570   2.05771
    R4        2.91018  -0.01730   0.00000  -0.05772  -0.05772   2.85246
    R5        2.37803  -0.08895   0.00000  -0.10892  -0.10892   2.26911
    R6        3.96842   0.01222   0.00000   0.07902   0.07902   4.04744
    A1        1.91063   0.00233   0.00000   0.02433   0.02442   1.93506
    A2        1.91063  -0.00137   0.00000  -0.00949  -0.00933   1.90131
    A3        1.91063   0.00511   0.00000   0.03395   0.03408   1.94471
    A4        1.91063   0.00204   0.00000   0.00235   0.00171   1.91234
    A5        1.91063  -0.00502   0.00000  -0.02794  -0.02819   1.88244
    A6        1.91063  -0.00309   0.00000  -0.02320  -0.02341   1.88722
    A7        2.09440   0.01148   0.00000   0.04337   0.04304   2.13743
    A8        2.09440  -0.01186   0.00000  -0.04483  -0.04516   2.04923
    A9        2.09440   0.00039   0.00000   0.00146   0.00113   2.09552
    D1        2.61799   0.00125   0.00000   0.02062   0.02064   2.63864
    D2       -0.52360   0.00043   0.00000  -0.02745  -0.02742  -0.55101
    D3        0.52360  -0.00166   0.00000  -0.01286  -0.01255   0.51105
    D4       -2.61799  -0.00248   0.00000  -0.06093  -0.06061  -2.67861
    D5       -1.57080   0.00081   0.00000   0.01557   0.01523  -1.55557
    D6        1.57080   0.00000   0.00000  -0.03250  -0.03283   1.53796
         Item               Value     Threshold  Converged?
 Maximum Force            0.088952     0.000450     NO 
 RMS     Force            0.020930     0.000300     NO 
 Maximum Displacement     0.088819     0.001800     NO 
 RMS     Displacement     0.038320     0.001200     NO 
 Predicted change in Energy=-7.568571D-03
 GradGradGradGradGradGradGradGradGradGradGradGradGradGradGradGradGradGrad

                          Input orientation:                          
 ---------------------------------------------------------------------
 Center     Atomic      Atomic             Coordinates (Angstroms)
 Number     Number       Type             X           Y           Z
 ---------------------------------------------------------------------
      1          6           0       -1.543343   -1.723309    0.159385
      2          1           0       -0.611971   -2.252911    0.342581
      3          1           0       -1.678865   -1.534518   -0.901481
      4          1           0       -2.371099   -2.325066    0.531403
      5          6           0       -1.571179   -0.393680    0.873371
      6          8           0       -2.194899    0.546127    0.461585
      7         53           0       -0.515217   -0.249768    2.731218
 ---------------------------------------------------------------------
                    Distance matrix (angstroms):
                    1          2          3          4          5
     1  C    0.000000
     2  H    1.086966   0.000000
     3  H    1.086022   1.789425   0.000000
     4  H    1.088893   1.770704   1.776882   0.000000
     5  C    1.509458   2.158370   2.112630   2.118270   0.000000
     6  O    2.380376   3.217831   2.540339   2.877442   1.200762
     7  I    3.137307   3.118899   4.025067   3.548288   2.141813
                    6          7
     6  O    0.000000
     7  I    2.933601   0.000000
 Stoichiometry    C2H3IO
 Framework group  C1[X(C2H3IO)]
 Deg. of freedom    15
 Full point group                 C1      NOp   1
 Largest Abelian subgroup         C1      NOp   1
 Largest concise Abelian subgroup C1      NOp   1
                         Standard orientation:                         
 ---------------------------------------------------------------------
 Center     Atomic      Atomic             Coordinates (Angstroms)
 Number     Number       Type             X           Y           Z
 ---------------------------------------------------------------------
      1          6           0       -2.171398   -1.031927   -0.000600
      2          1           0       -1.676801   -1.854134   -0.511329
      3          1           0       -3.120719   -0.797868   -0.473306
      4          1           0       -2.340339   -1.311606    1.038114
      5          6           0       -1.324752    0.217601   -0.018851
      6          8           0       -1.801280    1.319491    0.005440
      7         53           0        0.802358   -0.032195    0.000372
 ---------------------------------------------------------------------
 Rotational constants (GHZ):     10.4911029      2.2151895      1.8501573
 Basis read from rwf:  (5D, 7F)
 Pseudo-potential data read from rwf file.
 There are   248 symmetry adapted cartesian basis functions of A   symmetry.
 There are   215 symmetry adapted basis functions of A   symmetry.
   215 basis functions,   309 primitive gaussians,   248 cartesian basis functions
    15 alpha electrons       15 beta electrons
       nuclear repulsion energy        93.7387908075 Hartrees.
 NAtoms=    7 NActive=    7 NUniq=    7 SFac= 1.00D+00 NAtFMM=   60 NAOKFM=F Big=F
 Integral buffers will be    131072 words long.
 Raffenetti 2 integral format.
 Two-electron integral symmetry is turned on.
 One-electron integrals computed using PRISM.
 PrsmSu:  requested number of processors reduced to:   4 ShMem   1 Linda.
   1 Symmetry operations used in ECPInt.
 ECPInt:  NShTT=    2701 NPrTT=    7388 LenC2=    2702 LenP2D=    6819.
 LDataN:  DoStor=T MaxTD1= 6 Len=  172
 NBasis=   215 RedAO= T EigKep=  3.76D-05  NBF=   215
 NBsUse=   215 1.00D-06 EigRej= -1.00D+00 NBFU=   215
 Defaulting to unpruned grid for atomic number  53.
 Initial guess from the checkpoint file:  "/lustre/SCRATCH5/gau/mlawal/845980.sched01/Gau-12530.chk"
 B after Tr=     0.000000    0.000000    0.000000
         Rot=    0.999992    0.000463   -0.000521   -0.003933 Ang=   0.46 deg.
 ExpMin= 2.53D-02 ExpMax= 1.53D+04 ExpMxC= 5.22D+02 IAcc=3 IRadAn=         5 AccDes= 0.00D+00
 Harris functional with IExCor=  402 and IRadAn=       5 diagonalized for initial guess.
 HarFok:  IExCor=  402 AccDes= 0.00D+00 IRadAn=         5 IDoV= 1 UseB2=F ITyADJ=14
 ICtDFT=  3500011 ScaDFX=  1.000000  1.000000  1.000000  1.000000
 Defaulting to unpruned grid for atomic number  53.
 Defaulting to unpruned grid for atomic number  53.
 Defaulting to unpruned grid for atomic number  53.
 Defaulting to unpruned grid for atomic number  53.
 Defaulting to unpruned grid for atomic number  53.
 Defaulting to unpruned grid for atomic number  53.
 Defaulting to unpruned grid for atomic number  53.
 Defaulting to unpruned grid for atomic number  53.
 FoFCou: FMM=F IPFlag=           0 FMFlag=      100000 FMFlg1=           0
         NFxFlg=           0 DoJE=T BraDBF=F KetDBF=T FulRan=T
         wScrn=  0.000000 ICntrl=     500 IOpCl=  0 I1Cent=   200000004 NGrid=           0
         NMat0=    1 NMatS0=      1 NMatT0=    0 NMatD0=    1 NMtDS0=    0 NMtDT0=    0
 Petite list used in FoFCou.
 Requested convergence on RMS density matrix=1.00D-08 within 128 cycles.
 Requested convergence on MAX density matrix=1.00D-06.
 Requested convergence on             energy=1.00D-06.
 No special actions if energy rises.
 Defaulting to unpruned grid for atomic number  53.
 Defaulting to unpruned grid for atomic number  53.
 Defaulting to unpruned grid for atomic number  53.
 Defaulting to unpruned grid for atomic number  53.
 Defaulting to unpruned grid for atomic number  53.
 Defaulting to unpruned grid for atomic number  53.
 Defaulting to unpruned grid for atomic number  53.
 Defaulting to unpruned grid for atomic number  53.
 SCF Done:  E(RB3LYP) =  -164.695654785     A.U. after   11 cycles
            NFock= 11  Conv=0.53D-08     -V/T= 2.0595
 PrsmSu:  requested number of processors reduced to:   4 ShMem   1 Linda.
   1 Symmetry operations used in ECPInt.
 ECPInt:  NShTT=    2701 NPrTT=    7388 LenC2=    2702 LenP2D=    6819.
 LDataN:  DoStor=T MaxTD1= 7 Len=  274
 Calling FoFJK, ICntrl=      2127 FMM=F ISym2X=0 I1Cent= 0 IOpClX= 0 NMat=1 NMatS=1 NMatT=0.
 Defaulting to unpruned grid for atomic number  53.
 Defaulting to unpruned grid for atomic number  53.
 Defaulting to unpruned grid for atomic number  53.
 Defaulting to unpruned grid for atomic number  53.
 Defaulting to unpruned grid for atomic number  53.
 Defaulting to unpruned grid for atomic number  53.
 Defaulting to unpruned grid for atomic number  53.
 Defaulting to unpruned grid for atomic number  53.
 ***** Axes restored to original set *****
 -------------------------------------------------------------------
 Center     Atomic                   Forces (Hartrees/Bohr)
 Number     Number              X              Y              Z
 -------------------------------------------------------------------
      1        6           0.008508646    0.002107269    0.004823447
      2        1          -0.001039853   -0.001078388   -0.000126530
      3        1          -0.001397763   -0.000617552   -0.001205475
      4        1          -0.000837955   -0.000983565    0.000771812
      5        6          -0.025343115    0.016839596   -0.023308344
      6        8           0.013995470   -0.014880601    0.010035498
      7       53           0.006114572   -0.001386759    0.009009591
 -------------------------------------------------------------------
 Cartesian Forces:  Max     0.025343115 RMS     0.010272575

 GradGradGradGradGradGradGradGradGradGradGradGradGradGradGradGradGradGrad
 Berny optimization.
 Using GEDIIS/GDIIS optimizer.
 FormGI is forming the generalized inverse of G from B-inverse, IUseBI=4.
 Internal  Forces:  Max     0.022342605 RMS     0.006143358
 Search for a local minimum.
 Step number   2 out of a maximum of   31
 All quantities printed in internal units (Hartrees-Bohrs-Radians)
 Mixed Optimization -- RFO/linear search
 Update second derivatives using D2CorX and points    1    2
 DE= -9.67D-03 DEPred=-7.57D-03 R= 1.28D+00
 TightC=F SS=  1.41D+00  RLast= 1.95D-01 DXNew= 5.0454D-01 5.8527D-01
 Trust test= 1.28D+00 RLast= 1.95D-01 DXMaxT set to 5.05D-01
 ITU=  1  0
 Use linear search instead of GDIIS.
     Eigenvalues ---    0.00236   0.00253   0.07017   0.07499   0.11954
     Eigenvalues ---    0.15949   0.16000   0.16265   0.22517   0.25001
     Eigenvalues ---    0.29189   0.37181   0.37230   0.38507   0.70652
 RFO step:  Lambda=-3.39098601D-03 EMin= 2.36264868D-03
 Quartic linear search produced a step of  0.34553.
 Iteration  1 RMS(Cart)=  0.08684548 RMS(Int)=  0.02249853
 Iteration  2 RMS(Cart)=  0.01976537 RMS(Int)=  0.01163842
 Iteration  3 RMS(Cart)=  0.00039591 RMS(Int)=  0.01162877
 Iteration  4 RMS(Cart)=  0.00000996 RMS(Int)=  0.01162876
 Iteration  5 RMS(Cart)=  0.00000022 RMS(Int)=  0.01162876
 Variable       Old X    -DE/DX   Delta X   Delta X   Delta X     New X
                                 (Linear)    (Quad)   (Total)
    R1        2.05407  -0.00037   0.01108  -0.00689   0.00419   2.05826
    R2        2.05228   0.00123   0.01046  -0.00082   0.00965   2.06193
    R3        2.05771   0.00145   0.01234  -0.00095   0.01138   2.06909
    R4        2.85246  -0.00140  -0.01994   0.00449  -0.01545   2.83701
    R5        2.26911  -0.02234  -0.03764  -0.02231  -0.05995   2.20917
    R6        4.04744   0.01072   0.02730   0.07947   0.10677   4.15421
    A1        1.93506  -0.00027   0.00844  -0.00250   0.00571   1.94077
    A2        1.90131  -0.00107  -0.00322  -0.01066  -0.01376   1.88754
    A3        1.94471   0.00179   0.01178   0.00712   0.01883   1.96355
    A4        1.91234  -0.00075   0.00059  -0.00843  -0.00806   1.90428
    A5        1.88244   0.00111  -0.00974   0.01842   0.00845   1.89089
    A6        1.88722  -0.00083  -0.00809  -0.00405  -0.01218   1.87504
    A7        2.13743   0.00899   0.01487   0.04577   0.03150   2.16893
    A8        2.04923  -0.00894  -0.01561  -0.03208  -0.07741   1.97182
    A9        2.09552   0.00000   0.00039   0.00625  -0.02539   2.07013
    D1        2.63864  -0.00016   0.00713  -0.23632  -0.22539   2.41325
    D2       -0.55101   0.00106  -0.00947   0.24275   0.22975  -0.32126
    D3        0.51105  -0.00167  -0.00434  -0.24987  -0.25054   0.26050
    D4       -2.67861  -0.00045  -0.02094   0.22920   0.20459  -2.47401
    D5       -1.55557  -0.00093   0.00526  -0.24775  -0.23897  -1.79454
    D6        1.53796   0.00029  -0.01134   0.23132   0.21617   1.75413
         Item               Value     Threshold  Converged?
 Maximum Force            0.022343     0.000450     NO 
 RMS     Force            0.006143     0.000300     NO 
 Maximum Displacement     0.298537     0.001800     NO 
 RMS     Displacement     0.100917     0.001200     NO 
 Predicted change in Energy=-2.542981D-03
 GradGradGradGradGradGradGradGradGradGradGradGradGradGradGradGradGradGrad

                          Input orientation:                          
 ---------------------------------------------------------------------
 Center     Atomic      Atomic             Coordinates (Angstroms)
 Number     Number       Type             X           Y           Z
 ---------------------------------------------------------------------
      1          6           0       -1.557135   -1.715030    0.174630
      2          1           0       -0.620731   -2.214468    0.419639
      3          1           0       -1.626912   -1.510073   -0.894801
      4          1           0       -2.381573   -2.373129    0.467973
      5          6           0       -1.729158   -0.420868    0.915845
      6          8           0       -2.148729    0.560364    0.438564
      7         53           0       -0.422334   -0.259921    2.676213
 ---------------------------------------------------------------------
                    Distance matrix (angstroms):
                    1          2          3          4          5
     1  C    0.000000
     2  H    1.089183   0.000000
     3  H    1.091127   1.798979   0.000000
     4  H    1.094917   1.768636   1.780879   0.000000
     5  C    1.501282   2.166064   2.115481   2.106552   0.000000
     6  O    2.365812   3.167780   2.517313   2.942867   1.169040
     7  I    3.108542   2.991946   3.970646   3.630509   2.198315
                    6          7
     6  O    0.000000
     7  I    2.942853   0.000000
 Stoichiometry    C2H3IO
 Framework group  C1[X(C2H3IO)]
 Deg. of freedom    15
 Full point group                 C1      NOp   1
 Largest Abelian subgroup         C1      NOp   1
 Largest concise Abelian subgroup C1      NOp   1
                         Standard orientation:                         
 ---------------------------------------------------------------------
 Center     Atomic      Atomic             Coordinates (Angstroms)
 Number     Number       Type             X           Y           Z
 ---------------------------------------------------------------------
      1          6           0       -2.133254   -1.045714   -0.030310
      2          1           0       -1.537137   -1.821211   -0.509441
      3          1           0       -3.037800   -0.833441   -0.602407
      4          1           0       -2.414665   -1.399231    0.967024
      5          6           0       -1.373319    0.237091    0.145070
      6          8           0       -1.822132    1.299499   -0.046005
      7         53           0        0.803889   -0.028120   -0.003315
 ---------------------------------------------------------------------
 Rotational constants (GHZ):     10.4821597      2.2071648      1.8481612
 Basis read from rwf:  (5D, 7F)
 Pseudo-potential data read from rwf file.
 There are   248 symmetry adapted cartesian basis functions of A   symmetry.
 There are   215 symmetry adapted basis functions of A   symmetry.
   215 basis functions,   309 primitive gaussians,   248 cartesian basis functions
    15 alpha electrons       15 beta electrons
       nuclear repulsion energy        94.2205310732 Hartrees.
 NAtoms=    7 NActive=    7 NUniq=    7 SFac= 1.00D+00 NAtFMM=   60 NAOKFM=F Big=F
 Integral buffers will be    131072 words long.
 Raffenetti 2 integral format.
 Two-electron integral symmetry is turned on.
 One-electron integrals computed using PRISM.
 PrsmSu:  requested number of processors reduced to:   4 ShMem   1 Linda.
   1 Symmetry operations used in ECPInt.
 ECPInt:  NShTT=    2701 NPrTT=    7388 LenC2=    2702 LenP2D=    6821.
 LDataN:  DoStor=T MaxTD1= 6 Len=  172
 NBasis=   215 RedAO= T EigKep=  3.79D-05  NBF=   215
 NBsUse=   215 1.00D-06 EigRej= -1.00D+00 NBFU=   215
 Defaulting to unpruned grid for atomic number  53.
 Initial guess from the checkpoint file:  "/lustre/SCRATCH5/gau/mlawal/845980.sched01/Gau-12530.chk"
 B after Tr=     0.000000    0.000000    0.000000
         Rot=    0.999981   -0.002649    0.001767   -0.005224 Ang=  -0.70 deg.
 ExpMin= 2.53D-02 ExpMax= 1.53D+04 ExpMxC= 5.22D+02 IAcc=3 IRadAn=         5 AccDes= 0.00D+00
 Harris functional with IExCor=  402 and IRadAn=       5 diagonalized for initial guess.
 HarFok:  IExCor=  402 AccDes= 0.00D+00 IRadAn=         5 IDoV= 1 UseB2=F ITyADJ=14
 ICtDFT=  3500011 ScaDFX=  1.000000  1.000000  1.000000  1.000000
 Defaulting to unpruned grid for atomic number  53.
 Defaulting to unpruned grid for atomic number  53.
 Defaulting to unpruned grid for atomic number  53.
 Defaulting to unpruned grid for atomic number  53.
 Defaulting to unpruned grid for atomic number  53.
 Defaulting to unpruned grid for atomic number  53.
 Defaulting to unpruned grid for atomic number  53.
 Defaulting to unpruned grid for atomic number  53.
 FoFCou: FMM=F IPFlag=           0 FMFlag=      100000 FMFlg1=           0
         NFxFlg=           0 DoJE=T BraDBF=F KetDBF=T FulRan=T
         wScrn=  0.000000 ICntrl=     500 IOpCl=  0 I1Cent=   200000004 NGrid=           0
         NMat0=    1 NMatS0=      1 NMatT0=    0 NMatD0=    1 NMtDS0=    0 NMtDT0=    0
 Petite list used in FoFCou.
 Requested convergence on RMS density matrix=1.00D-08 within 128 cycles.
 Requested convergence on MAX density matrix=1.00D-06.
 Requested convergence on             energy=1.00D-06.
 No special actions if energy rises.
 Defaulting to unpruned grid for atomic number  53.
 Defaulting to unpruned grid for atomic number  53.
 Defaulting to unpruned grid for atomic number  53.
 Defaulting to unpruned grid for atomic number  53.
 Defaulting to unpruned grid for atomic number  53.
 Defaulting to unpruned grid for atomic number  53.
 Defaulting to unpruned grid for atomic number  53.
 Defaulting to unpruned grid for atomic number  53.
 SCF Done:  E(RB3LYP) =  -164.689892157     A.U. after   12 cycles
            NFock= 12  Conv=0.21D-08     -V/T= 2.0588
 PrsmSu:  requested number of processors reduced to:   4 ShMem   1 Linda.
   1 Symmetry operations used in ECPInt.
 ECPInt:  NShTT=    2701 NPrTT=    7388 LenC2=    2702 LenP2D=    6821.
 LDataN:  DoStor=T MaxTD1= 7 Len=  274
 Calling FoFJK, ICntrl=      2127 FMM=F ISym2X=0 I1Cent= 0 IOpClX= 0 NMat=1 NMatS=1 NMatT=0.
 Defaulting to unpruned grid for atomic number  53.
 Defaulting to unpruned grid for atomic number  53.
 Defaulting to unpruned grid for atomic number  53.
 Defaulting to unpruned grid for atomic number  53.
 Defaulting to unpruned grid for atomic number  53.
 Defaulting to unpruned grid for atomic number  53.
 Defaulting to unpruned grid for atomic number  53.
 Defaulting to unpruned grid for atomic number  53.
 ***** Axes restored to original set *****
 -------------------------------------------------------------------
 Center     Atomic                   Forces (Hartrees/Bohr)
 Number     Number              X              Y              Z
 -------------------------------------------------------------------
      1        6          -0.011447108   -0.011468144    0.004185442
      2        1          -0.002774256    0.002944850    0.000637451
      3        1          -0.001068184   -0.000140688    0.002202893
      4        1           0.001919351   -0.002212394   -0.002208304
      5        6           0.039824635   -0.005961306   -0.016151350
      6        8          -0.024433555    0.018496820   -0.000481394
      7       53          -0.002020883   -0.001659139    0.011815263
 -------------------------------------------------------------------
 Cartesian Forces:  Max     0.039824635 RMS     0.012506229

 GradGradGradGradGradGradGradGradGradGradGradGradGradGradGradGradGradGrad
 Berny optimization.
 Using GEDIIS/GDIIS optimizer.
 FormGI is forming the generalized inverse of G from B-inverse, IUseBI=4.
 Internal  Forces:  Max     0.024506942 RMS     0.008895683
 Search for a local minimum.
 Step number   3 out of a maximum of   31
 All quantities printed in internal units (Hartrees-Bohrs-Radians)
 Mixed Optimization -- RFO/linear search
 Update second derivatives using D2CorX and points    1    3    2
 DE=  5.76D-03 DEPred=-2.54D-03 R=-2.27D+00
 Trust test=-2.27D+00 RLast= 5.80D-01 DXMaxT set to 2.52D-01
 ITU= -1  1  0
 Use linear search instead of GDIIS.
 Energy rises -- skip Quadratic/GDIIS search.
 Quartic linear search produced a step of -0.77745.
 Iteration  1 RMS(Cart)=  0.08323121 RMS(Int)=  0.00895160
 Iteration  2 RMS(Cart)=  0.01014206 RMS(Int)=  0.00197103
 Iteration  3 RMS(Cart)=  0.00003495 RMS(Int)=  0.00197071
 Iteration  4 RMS(Cart)=  0.00000003 RMS(Int)=  0.00197071
 Variable       Old X    -DE/DX   Delta X   Delta X   Delta X     New X
                                 (Linear)    (Quad)   (Total)
    R1        2.05826  -0.00358  -0.00326   0.00000  -0.00326   2.05500
    R2        2.06193  -0.00213  -0.00750   0.00000  -0.00750   2.05443
    R3        2.06909  -0.00071  -0.00885   0.00000  -0.00885   2.06024
    R4        2.83701   0.00548   0.01201   0.00000   0.01201   2.84902
    R5        2.20917   0.02451   0.04661   0.00000   0.04661   2.25577
    R6        4.15421   0.00812  -0.08301   0.00000  -0.08301   4.07120
    A1        1.94077   0.00158  -0.00444   0.00000  -0.00439   1.93637
    A2        1.88754  -0.00114   0.01070   0.00000   0.01069   1.89823
    A3        1.96355  -0.00377  -0.01464   0.00000  -0.01462   1.94892
    A4        1.90428  -0.00178   0.00627   0.00000   0.00627   1.91054
    A5        1.89089  -0.00076  -0.00657   0.00000  -0.00654   1.88434
    A6        1.87504   0.00604   0.00947   0.00000   0.00947   1.88451
    A7        2.16893   0.00916  -0.02449   0.00000  -0.01928   2.14965
    A8        1.97182   0.00340   0.06019   0.00000   0.06540   2.03721
    A9        2.07013  -0.00368   0.01974   0.00000   0.02496   2.09509
    D1        2.41325   0.01063   0.17523   0.00000   0.17512   2.58838
    D2       -0.32126  -0.01215  -0.17862   0.00000  -0.17856  -0.49983
    D3        0.26050   0.01167   0.19479   0.00000   0.19473   0.45523
    D4       -2.47401  -0.01110  -0.15906   0.00000  -0.15896  -2.63298
    D5       -1.79454   0.01091   0.18579   0.00000   0.18571  -1.60883
    D6        1.75413  -0.01187  -0.16806   0.00000  -0.16798   1.58615
         Item               Value     Threshold  Converged?
 Maximum Force            0.024507     0.000450     NO 
 RMS     Force            0.008896     0.000300     NO 
 Maximum Displacement     0.233596     0.001800     NO 
 RMS     Displacement     0.079512     0.001200     NO 
 Predicted change in Energy=-6.240762D-04
 GradGradGradGradGradGradGradGradGradGradGradGradGradGradGradGradGradGrad

                          Input orientation:                          
 ---------------------------------------------------------------------
 Center     Atomic      Atomic             Coordinates (Angstroms)
 Number     Number       Type             X           Y           Z
 ---------------------------------------------------------------------
      1          6           0       -1.546462   -1.722519    0.161871
      2          1           0       -0.613068   -2.245170    0.357264
      3          1           0       -1.669038   -1.530172   -0.901092
      4          1           0       -2.373637   -2.337202    0.517617
      5          6           0       -1.605545   -0.400155    0.883563
      6          8           0       -2.184104    0.552170    0.455459
      7         53           0       -0.494720   -0.250077    2.723381
 ---------------------------------------------------------------------
                    Distance matrix (angstroms):
                    1          2          3          4          5
     1  C    0.000000
     2  H    1.087459   0.000000
     3  H    1.087158   1.791578   0.000000
     4  H    1.090234   1.770250   1.777778   0.000000
     5  C    1.507639   2.160111   2.113282   2.115664   0.000000
     6  O    2.380543   3.209814   2.538045   2.896249   1.193702
     7  I    3.136172   3.097243   4.019262   3.570968   2.154388
                    6          7
     6  O    0.000000
     7  I    2.939573   0.000000
 Stoichiometry    C2H3IO
 Framework group  C1[X(C2H3IO)]
 Deg. of freedom    15
 Full point group                 C1      NOp   1
 Largest Abelian subgroup         C1      NOp   1
 Largest concise Abelian subgroup C1      NOp   1
                         Standard orientation:                         
 ---------------------------------------------------------------------
 Center     Atomic      Atomic             Coordinates (Angstroms)
 Number     Number       Type             X           Y           Z
 ---------------------------------------------------------------------
      1          6           0       -2.167183   -1.035858   -0.007423
      2          1           0       -1.651613   -1.847911   -0.514695
      3          1           0       -3.108506   -0.805317   -0.500045
      4          1           0       -2.359936   -1.332816    1.023727
      5          6           0       -1.335618    0.221447    0.018206
      6          8           0       -1.808020    1.317435   -0.005746
      7         53           0        0.803793   -0.031452   -0.000523
 ---------------------------------------------------------------------
 Rotational constants (GHZ):     10.4762218      2.2080445      1.8447143
 Basis read from rwf:  (5D, 7F)
 Pseudo-potential data read from rwf file.
 There are   248 symmetry adapted cartesian basis functions of A   symmetry.
 There are   215 symmetry adapted basis functions of A   symmetry.
   215 basis functions,   309 primitive gaussians,   248 cartesian basis functions
    15 alpha electrons       15 beta electrons
       nuclear repulsion energy        93.7898953733 Hartrees.
 NAtoms=    7 NActive=    7 NUniq=    7 SFac= 1.00D+00 NAtFMM=   60 NAOKFM=F Big=F
 Integral buffers will be    131072 words long.
 Raffenetti 2 integral format.
 Two-electron integral symmetry is turned on.
 One-electron integrals computed using PRISM.
 PrsmSu:  requested number of processors reduced to:   4 ShMem   1 Linda.
   1 Symmetry operations used in ECPInt.
 ECPInt:  NShTT=    2701 NPrTT=    7388 LenC2=    2702 LenP2D=    6819.
 LDataN:  DoStor=T MaxTD1= 6 Len=  172
 NBasis=   215 RedAO= T EigKep=  3.76D-05  NBF=   215
 NBsUse=   215 1.00D-06 EigRej= -1.00D+00 NBFU=   215
 Defaulting to unpruned grid for atomic number  53.
 Lowest energy guess from the checkpoint file:  "/lustre/SCRATCH5/gau/mlawal/845980.sched01/Gau-12530.chk"
 B after Tr=     0.000000    0.000000    0.000000
         Rot=    0.999999   -0.000761    0.000330   -0.001006 Ang=  -0.15 deg.
 B after Tr=     0.000000    0.000000    0.000000
         Rot=    0.999988    0.001862   -0.001446    0.004215 Ang=   0.55 deg.
 Requested convergence on RMS density matrix=1.00D-08 within 128 cycles.
 Requested convergence on MAX density matrix=1.00D-06.
 Requested convergence on             energy=1.00D-06.
 No special actions if energy rises.
 Defaulting to unpruned grid for atomic number  53.
 Defaulting to unpruned grid for atomic number  53.
 Defaulting to unpruned grid for atomic number  53.
 Defaulting to unpruned grid for atomic number  53.
 Defaulting to unpruned grid for atomic number  53.
 Defaulting to unpruned grid for atomic number  53.
 Defaulting to unpruned grid for atomic number  53.
 Defaulting to unpruned grid for atomic number  53.
 SCF Done:  E(RB3LYP) =  -164.696152355     A.U. after    9 cycles
            NFock=  9  Conv=0.65D-08     -V/T= 2.0594
 PrsmSu:  requested number of processors reduced to:   4 ShMem   1 Linda.
   1 Symmetry operations used in ECPInt.
 ECPInt:  NShTT=    2701 NPrTT=    7388 LenC2=    2702 LenP2D=    6819.
 LDataN:  DoStor=T MaxTD1= 7 Len=  274
 Calling FoFJK, ICntrl=      2127 FMM=F ISym2X=0 I1Cent= 0 IOpClX= 0 NMat=1 NMatS=1 NMatT=0.
 Defaulting to unpruned grid for atomic number  53.
 Defaulting to unpruned grid for atomic number  53.
 Defaulting to unpruned grid for atomic number  53.
 Defaulting to unpruned grid for atomic number  53.
 Defaulting to unpruned grid for atomic number  53.
 Defaulting to unpruned grid for atomic number  53.
 Defaulting to unpruned grid for atomic number  53.
 Defaulting to unpruned grid for atomic number  53.
 ***** Axes restored to original set *****
 -------------------------------------------------------------------
 Center     Atomic                   Forces (Hartrees/Bohr)
 Number     Number              X              Y              Z
 -------------------------------------------------------------------
      1        6           0.004009130   -0.000200722    0.005253693
      2        1          -0.001338372   -0.000154851    0.000090341
      3        1          -0.001272704   -0.000499090   -0.000432859
      4        1          -0.000266326   -0.001276806    0.000104849
      5        6          -0.010295962    0.013494565   -0.022679826
      6        8           0.005305744   -0.009683527    0.008935831
      7       53           0.003858490   -0.001679568    0.008727972
 -------------------------------------------------------------------
 Cartesian Forces:  Max     0.022679826 RMS     0.007391914

 GradGradGradGradGradGradGradGradGradGradGradGradGradGradGradGradGradGrad
 Berny optimization.
 Using GEDIIS/GDIIS optimizer.
 FormGI is forming the generalized inverse of G from B-inverse, IUseBI=4.
 Internal  Forces:  Max     0.013486473 RMS     0.004435368
 Search for a local minimum.
 Step number   4 out of a maximum of   31
 All quantities printed in internal units (Hartrees-Bohrs-Radians)
 Mixed Optimization -- RFO/linear search
 Update second derivatives using D2CorX and points    1    3    2    4
 ITU=  0 -1  1  0
 Use linear search instead of GDIIS.
     Eigenvalues ---    0.00236   0.04285   0.06792   0.07539   0.08003
     Eigenvalues ---    0.15932   0.16029   0.16468   0.20982   0.24974
     Eigenvalues ---    0.28537   0.37163   0.37238   0.37614   0.72824
 RFO step:  Lambda=-4.25244574D-03 EMin= 2.36460824D-03
 Quartic linear search produced a step of  0.00539.
 Iteration  1 RMS(Cart)=  0.06856799 RMS(Int)=  0.00395687
 Iteration  2 RMS(Cart)=  0.00469421 RMS(Int)=  0.00069837
 Iteration  3 RMS(Cart)=  0.00000819 RMS(Int)=  0.00069832
 Iteration  4 RMS(Cart)=  0.00000000 RMS(Int)=  0.00069832
 Variable       Old X    -DE/DX   Delta X   Delta X   Delta X     New X
                                 (Linear)    (Quad)   (Total)
    R1        2.05500  -0.00104   0.00001  -0.01056  -0.01055   2.04445
    R2        2.05443   0.00046   0.00001   0.00097   0.00098   2.05541
    R3        2.06024   0.00096   0.00001   0.00203   0.00205   2.06229
    R4        2.84902  -0.00047  -0.00002   0.00135   0.00133   2.85036
    R5        2.25577  -0.01349  -0.00007  -0.04936  -0.04943   2.20634
    R6        4.07120   0.00931   0.00013   0.16225   0.16238   4.23358
    A1        1.93637   0.00016   0.00001   0.00243   0.00190   1.93827
    A2        1.89823  -0.00105  -0.00002  -0.02209  -0.02208   1.87615
    A3        1.94892   0.00047   0.00002   0.01474   0.01448   1.96340
    A4        1.91054  -0.00095  -0.00001  -0.01818  -0.01816   1.89239
    A5        1.88434   0.00069   0.00001   0.02827   0.02799   1.91233
    A6        1.88451   0.00067  -0.00001  -0.00582  -0.00580   1.87870
    A7        2.14965   0.00772   0.00007   0.08176   0.08004   2.22969
    A8        2.03721  -0.00738  -0.00006  -0.07833  -0.08018   1.95703
    A9        2.09509  -0.00016   0.00000   0.00175  -0.00004   2.09505
    D1        2.58838   0.00217  -0.00027   0.02106   0.02097   2.60935
    D2       -0.49983  -0.00177   0.00028  -0.09085  -0.09032  -0.59015
    D3        0.45523   0.00121  -0.00030  -0.01037  -0.01092   0.44431
    D4       -2.63298  -0.00273   0.00025  -0.12227  -0.12222  -2.75519
    D5       -1.60883   0.00159  -0.00029  -0.00104  -0.00136  -1.61018
    D6        1.58615  -0.00235   0.00026  -0.11295  -0.11265   1.47350
         Item               Value     Threshold  Converged?
 Maximum Force            0.013486     0.000450     NO 
 RMS     Force            0.004435     0.000300     NO 
 Maximum Displacement     0.131618     0.001800     NO 
 RMS     Displacement     0.070291     0.001200     NO 
 Predicted change in Energy=-2.333035D-03
 GradGradGradGradGradGradGradGradGradGradGradGradGradGradGradGradGradGrad

                          Input orientation:                          
 ---------------------------------------------------------------------
 Center     Atomic      Atomic             Coordinates (Angstroms)
 Number     Number       Type             X           Y           Z
 ---------------------------------------------------------------------
      1          6           0       -1.535826   -1.708590    0.153105
      2          1           0       -0.599147   -2.215295    0.343728
      3          1           0       -1.710982   -1.599821   -0.914851
      4          1           0       -2.333244   -2.324401    0.572480
      5          6           0       -1.605728   -0.355945    0.816859
      6          8           0       -2.184374    0.590245    0.452096
      7         53           0       -0.517270   -0.319319    2.774646
 ---------------------------------------------------------------------
                    Distance matrix (angstroms):
                    1          2          3          4          5
     1  C    0.000000
     2  H    1.081875   0.000000
     3  H    1.087677   1.788577   0.000000
     4  H    1.091317   1.752519   1.767591   0.000000
     5  C    1.508345   2.166620   2.134743   2.112775   0.000000
     6  O    2.407209   3.224243   2.624697   2.920927   1.167544
     7  I    3.136878   3.083956   4.083751   3.488216   2.240315
                    6          7
     6  O    0.000000
     7  I    3.000130   0.000000
 Stoichiometry    C2H3IO
 Framework group  C1[X(C2H3IO)]
 Deg. of freedom    15
 Full point group                 C1      NOp   1
 Largest Abelian subgroup         C1      NOp   1
 Largest concise Abelian subgroup C1      NOp   1
                         Standard orientation:                         
 ---------------------------------------------------------------------
 Center     Atomic      Atomic             Coordinates (Angstroms)
 Number     Number       Type             X           Y           Z
 ---------------------------------------------------------------------
      1          6           0       -2.140792   -1.074988   -0.004393
      2          1           0       -1.611110   -1.850204   -0.541916
      3          1           0       -3.144363   -0.940029   -0.401474
      4          1           0       -2.221544   -1.393816    1.036184
      5          6           0       -1.408579    0.243580   -0.022986
      6          8           0       -1.867702    1.316654    0.006639
      7         53           0        0.815375   -0.025674    0.000346
 ---------------------------------------------------------------------
 Rotational constants (GHZ):     10.1826188      2.1485659      1.7936923
 Basis read from rwf:  (5D, 7F)
 Pseudo-potential data read from rwf file.
 There are   248 symmetry adapted cartesian basis functions of A   symmetry.
 There are   215 symmetry adapted basis functions of A   symmetry.
   215 basis functions,   309 primitive gaussians,   248 cartesian basis functions
    15 alpha electrons       15 beta electrons
       nuclear repulsion energy        93.4822090398 Hartrees.
 NAtoms=    7 NActive=    7 NUniq=    7 SFac= 1.00D+00 NAtFMM=   60 NAOKFM=F Big=F
 Integral buffers will be    131072 words long.
 Raffenetti 2 integral format.
 Two-electron integral symmetry is turned on.
 One-electron integrals computed using PRISM.
 PrsmSu:  requested number of processors reduced to:   4 ShMem   1 Linda.
   1 Symmetry operations used in ECPInt.
 ECPInt:  NShTT=    2701 NPrTT=    7388 LenC2=    2702 LenP2D=    6819.
 LDataN:  DoStor=T MaxTD1= 6 Len=  172
 NBasis=   215 RedAO= T EigKep=  3.69D-05  NBF=   215
 NBsUse=   215 1.00D-06 EigRej= -1.00D+00 NBFU=   215
 Defaulting to unpruned grid for atomic number  53.
 Initial guess from the checkpoint file:  "/lustre/SCRATCH5/gau/mlawal/845980.sched01/Gau-12530.chk"
 B after Tr=     0.000000    0.000000    0.000000
         Rot=    0.999968    0.000006   -0.001143   -0.007886 Ang=   0.91 deg.
 ExpMin= 2.53D-02 ExpMax= 1.53D+04 ExpMxC= 5.22D+02 IAcc=3 IRadAn=         5 AccDes= 0.00D+00
 Harris functional with IExCor=  402 and IRadAn=       5 diagonalized for initial guess.
 HarFok:  IExCor=  402 AccDes= 0.00D+00 IRadAn=         5 IDoV= 1 UseB2=F ITyADJ=14
 ICtDFT=  3500011 ScaDFX=  1.000000  1.000000  1.000000  1.000000
 Defaulting to unpruned grid for atomic number  53.
 Defaulting to unpruned grid for atomic number  53.
 Defaulting to unpruned grid for atomic number  53.
 Defaulting to unpruned grid for atomic number  53.
 Defaulting to unpruned grid for atomic number  53.
 Defaulting to unpruned grid for atomic number  53.
 Defaulting to unpruned grid for atomic number  53.
 Defaulting to unpruned grid for atomic number  53.
 FoFCou: FMM=F IPFlag=           0 FMFlag=      100000 FMFlg1=           0
         NFxFlg=           0 DoJE=T BraDBF=F KetDBF=T FulRan=T
         wScrn=  0.000000 ICntrl=     500 IOpCl=  0 I1Cent=   200000004 NGrid=           0
         NMat0=    1 NMatS0=      1 NMatT0=    0 NMatD0=    1 NMtDS0=    0 NMtDT0=    0
 Petite list used in FoFCou.
 Requested convergence on RMS density matrix=1.00D-08 within 128 cycles.
 Requested convergence on MAX density matrix=1.00D-06.
 Requested convergence on             energy=1.00D-06.
 No special actions if energy rises.
 Defaulting to unpruned grid for atomic number  53.
 Defaulting to unpruned grid for atomic number  53.
 Defaulting to unpruned grid for atomic number  53.
 Defaulting to unpruned grid for atomic number  53.
 Defaulting to unpruned grid for atomic number  53.
 Defaulting to unpruned grid for atomic number  53.
 Defaulting to unpruned grid for atomic number  53.
 Defaulting to unpruned grid for atomic number  53.
 SCF Done:  E(RB3LYP) =  -164.697493286     A.U. after   11 cycles
            NFock= 11  Conv=0.43D-08     -V/T= 2.0591
 PrsmSu:  requested number of processors reduced to:   4 ShMem   1 Linda.
   1 Symmetry operations used in ECPInt.
 ECPInt:  NShTT=    2701 NPrTT=    7388 LenC2=    2702 LenP2D=    6819.
 LDataN:  DoStor=T MaxTD1= 7 Len=  274
 Calling FoFJK, ICntrl=      2127 FMM=F ISym2X=0 I1Cent= 0 IOpClX= 0 NMat=1 NMatS=1 NMatT=0.
 Defaulting to unpruned grid for atomic number  53.
 Defaulting to unpruned grid for atomic number  53.
 Defaulting to unpruned grid for atomic number  53.
 Defaulting to unpruned grid for atomic number  53.
 Defaulting to unpruned grid for atomic number  53.
 Defaulting to unpruned grid for atomic number  53.
 Defaulting to unpruned grid for atomic number  53.
 Defaulting to unpruned grid for atomic number  53.
 ***** Axes restored to original set *****
 -------------------------------------------------------------------
 Center     Atomic                   Forces (Hartrees/Bohr)
 Number     Number              X              Y              Z
 -------------------------------------------------------------------
      1        6          -0.001875568    0.001478279   -0.000554289
      2        1           0.002569719    0.001074419    0.000862668
      3        1          -0.000506351    0.001363252   -0.000913921
      4        1          -0.000606831    0.000600122    0.001237379
      5        6           0.007844382   -0.018741920    0.006620231
      6        8          -0.007009021    0.013947232   -0.006396441
      7       53          -0.000416330    0.000278616   -0.000855627
 -------------------------------------------------------------------
 Cartesian Forces:  Max     0.018741920 RMS     0.006023337

 GradGradGradGradGradGradGradGradGradGradGradGradGradGradGradGradGradGrad
 Berny optimization.
 Using GEDIIS/GDIIS optimizer.
 FormGI is forming the generalized inverse of G from B-inverse, IUseBI=4.
 Internal  Forces:  Max     0.016784712 RMS     0.003959531
 Search for a local minimum.
 Step number   5 out of a maximum of   31
 All quantities printed in internal units (Hartrees-Bohrs-Radians)
 Mixed Optimization -- RFO/linear search
 Update second derivatives using D2CorX and points    1    3    2    4    5
 DE= -1.34D-03 DEPred=-2.33D-03 R= 5.75D-01
 TightC=F SS=  1.41D+00  RLast= 2.83D-01 DXNew= 4.2426D-01 8.4831D-01
 Trust test= 5.75D-01 RLast= 2.83D-01 DXMaxT set to 4.24D-01
 ITU=  1  0 -1  1  0
 Use linear search instead of GDIIS.
     Eigenvalues ---    0.00232   0.04940   0.06768   0.07435   0.08565
     Eigenvalues ---    0.15763   0.16263   0.16428   0.21336   0.25459
     Eigenvalues ---    0.28057   0.36586   0.37197   0.37255   0.85431
 RFO step:  Lambda=-4.14595043D-04 EMin= 2.32096993D-03
 Quartic linear search produced a step of -0.26479.
 Iteration  1 RMS(Cart)=  0.05387318 RMS(Int)=  0.00143030
 Iteration  2 RMS(Cart)=  0.00142704 RMS(Int)=  0.00014298
 Iteration  3 RMS(Cart)=  0.00000099 RMS(Int)=  0.00014297
 Variable       Old X    -DE/DX   Delta X   Delta X   Delta X     New X
                                 (Linear)    (Quad)   (Total)
    R1        2.04445   0.00188   0.00279   0.00293   0.00572   2.05017
    R2        2.05541   0.00110  -0.00026   0.00295   0.00269   2.05811
    R3        2.06229   0.00059  -0.00054   0.00243   0.00188   2.06417
    R4        2.85036  -0.00434  -0.00035  -0.01221  -0.01257   2.83779
    R5        2.20634   0.01678   0.01309   0.00674   0.01983   2.22617
    R6        4.23358  -0.00096  -0.04300   0.01961  -0.02339   4.21020
    A1        1.93827   0.00164  -0.00050   0.00748   0.00701   1.94528
    A2        1.87615   0.00187   0.00585   0.00527   0.01110   1.88725
    A3        1.96340  -0.00254  -0.00383  -0.00998  -0.01381   1.94960
    A4        1.89239   0.00136   0.00481   0.00484   0.00963   1.90202
    A5        1.91233  -0.00104  -0.00741  -0.00270  -0.01010   1.90223
    A6        1.87870  -0.00118   0.00154  -0.00462  -0.00310   1.87560
    A7        2.22969  -0.00094  -0.02119   0.00914  -0.01168   2.21801
    A8        1.95703   0.00116   0.02123  -0.00862   0.01299   1.97002
    A9        2.09505  -0.00016   0.00001  -0.00075  -0.00036   2.09469
    D1        2.60935  -0.00119  -0.00555  -0.11045  -0.11602   2.49333
    D2       -0.59015   0.00003   0.02392  -0.11519  -0.09130  -0.68145
    D3        0.44431  -0.00074   0.00289  -0.11106  -0.10814   0.33616
    D4       -2.75519   0.00048   0.03236  -0.11580  -0.08342  -2.83862
    D5       -1.61018  -0.00113   0.00036  -0.11274  -0.11238  -1.72256
    D6        1.47350   0.00009   0.02983  -0.11749  -0.08766   1.38584
         Item               Value     Threshold  Converged?
 Maximum Force            0.016785     0.000450     NO 
 RMS     Force            0.003960     0.000300     NO 
 Maximum Displacement     0.110267     0.001800     NO 
 RMS     Displacement     0.054009     0.001200     NO 
 Predicted change in Energy=-4.471546D-04
 GradGradGradGradGradGradGradGradGradGradGradGradGradGradGradGradGradGrad

                          Input orientation:                          
 ---------------------------------------------------------------------
 Center     Atomic      Atomic             Coordinates (Angstroms)
 Number     Number       Type             X           Y           Z
 ---------------------------------------------------------------------
      1          6           0       -1.538147   -1.711533    0.153604
      2          1           0       -0.575086   -2.189559    0.298596
      3          1           0       -1.769333   -1.593964   -0.904165
      4          1           0       -2.302540   -2.339617    0.616598
      5          6           0       -1.596303   -0.366530    0.818940
      6          8           0       -2.135677    0.601249    0.418620
      7         53           0       -0.569486   -0.333171    2.795869
 ---------------------------------------------------------------------
                    Distance matrix (angstroms):
                    1          2          3          4          5
     1  C    0.000000
     2  H    1.084905   0.000000
     3  H    1.089103   1.796550   0.000000
     4  H    1.092314   1.762879   1.775677   0.000000
     5  C    1.501695   2.153388   2.122646   2.105419   0.000000
     6  O    2.403380   3.199759   2.589001   2.952242   1.178039
     7  I    3.133648   3.111684   4.088946   3.431986   2.227939
                    6          7
     6  O    0.000000
     7  I    2.996233   0.000000
 Stoichiometry    C2H3IO
 Framework group  C1[X(C2H3IO)]
 Deg. of freedom    15
 Full point group                 C1      NOp   1
 Largest Abelian subgroup         C1      NOp   1
 Largest concise Abelian subgroup C1      NOp   1
[...]
 Frc consts  --      0.0101                 0.1684                 0.3948
 IR Inten    --      0.0373                13.4577                 5.4359
  Atom  AN      X      Y      Z        X      Y      Z        X      Y      Z
     1   6     0.00   0.00   0.01     0.39  -0.02   0.00    -0.17  -0.06   0.00
     2   1    -0.41   0.28  -0.32     0.54   0.05   0.01    -0.41  -0.18  -0.01
     3   1     0.00   0.00   0.54     0.35  -0.29   0.00    -0.09   0.35   0.00
     4   1     0.41  -0.28  -0.32     0.54   0.05  -0.01    -0.41  -0.18   0.01
     5   6     0.00   0.00   0.00     0.16   0.09   0.00     0.26  -0.27   0.00
     6   8     0.00   0.00  -0.04     0.10   0.08   0.00     0.52  -0.15   0.00
     7  53     0.00   0.00   0.00    -0.08  -0.02   0.00    -0.07   0.05   0.00
                      4                      5                      6
                      A                      A                      A
 Frequencies --    475.1987               552.4485               935.5268
 Red. masses --      3.1986                 3.9579                 3.2420
 Frc consts  --      0.4256                 0.7117                 1.6718
 IR Inten    --      0.3075               115.0823                82.9994
  Atom  AN      X      Y      Z        X      Y      Z        X      Y      Z
     1   6     0.00   0.00   0.02     0.07   0.24   0.00     0.04   0.30   0.00
     2   1    -0.33  -0.42   0.20    -0.24   0.10  -0.01     0.46   0.41   0.06
     3   1     0.00   0.00   0.40     0.17   0.77   0.00    -0.04  -0.20   0.00
     4   1     0.33   0.42   0.20    -0.24   0.10   0.01     0.46   0.41  -0.06
     5   6     0.00   0.00  -0.41     0.31   0.00   0.00    -0.22  -0.18   0.00
     6   8     0.00   0.00   0.16    -0.19  -0.20   0.00     0.08  -0.14   0.00
     7  53     0.00   0.00   0.01    -0.01   0.00   0.00     0.00   0.00   0.00
                      7                      8                      9
                      A                      A                      A
 Frequencies --   1033.4216              1092.7518              1382.9009
 Red. masses --      1.5418                 1.7959                 1.2285
 Frc consts  --      0.9701                 1.2635                 1.3842
 IR Inten    --      0.6358               146.4342                22.4599
  Atom  AN      X      Y      Z        X      Y      Z        X      Y      Z
     1   6     0.00   0.00   0.16     0.18  -0.02   0.00     0.06   0.13   0.00
     2   1     0.26   0.56  -0.15    -0.34  -0.10  -0.11    -0.29  -0.47   0.26
     3   1     0.00   0.00  -0.37     0.30   0.75   0.00    -0.05  -0.47   0.00
     4   1    -0.26  -0.56  -0.15    -0.34  -0.10   0.11    -0.29  -0.47  -0.26
     5   6     0.00   0.00  -0.15    -0.19  -0.06   0.00    -0.02  -0.01   0.00
     6   8     0.00   0.00   0.03     0.03   0.03   0.00     0.00   0.01   0.00
     7  53     0.00   0.00   0.00     0.00   0.00   0.00     0.00   0.00   0.00
                     10                     11                     12
                      A                      A                      A
 Frequencies --   1460.9374              1461.9496              1882.4914
 Red. masses --      1.0448                 1.0496                11.9750
 Frc consts  --      1.3139                 1.3217                25.0031
 IR Inten    --     15.3844                 9.4277               471.0173
  Atom  AN      X      Y      Z        X      Y      Z        X      Y      Z
     1   6     0.00   0.00  -0.05    -0.06   0.00   0.00    -0.01  -0.05   0.00
     2   1     0.49   0.08   0.07     0.37  -0.33   0.35    -0.05  -0.18   0.10
     3   1     0.00   0.02   0.72     0.04   0.48  -0.03     0.00   0.13   0.00
     4   1    -0.46  -0.11   0.04     0.41  -0.32  -0.35    -0.05  -0.18  -0.10
     5   6     0.00   0.00  -0.02    -0.01  -0.01   0.00    -0.23   0.74   0.00
     6   8     0.00   0.00   0.00     0.00   0.02   0.00     0.21  -0.50   0.00
     7  53     0.00   0.00   0.00     0.00   0.00   0.00     0.00   0.00   0.00
                     13                     14                     15
                      A                      A                      A
 Frequencies --   3048.3659              3121.4031              3137.8588
 Red. masses --      1.0321                 1.1001                 1.1062
 Frc consts  --      5.6505                 6.3149                 6.4174
 IR Inten    --      1.8284                 0.0001                 8.6224
  Atom  AN      X      Y      Z        X      Y      Z        X      Y      Z
     1   6    -0.02  -0.04   0.00     0.00   0.00   0.09    -0.08   0.05   0.00
     2   1    -0.15   0.29   0.46     0.19  -0.38  -0.56     0.10  -0.22  -0.35
     3   1     0.59  -0.11   0.00     0.00   0.00   0.01     0.78  -0.13   0.00
     4   1    -0.15   0.29  -0.46    -0.19   0.38  -0.56     0.10  -0.22   0.35
     5   6     0.00   0.00   0.00     0.00   0.00   0.00     0.00   0.00   0.00
     6   8     0.00   0.00   0.00     0.00   0.00   0.00     0.00   0.00   0.00
     7  53     0.00   0.00   0.00     0.00   0.00   0.00     0.00   0.00   0.00

 -------------------
 - Thermochemistry -
 -------------------
 Temperature   298.150 Kelvin.  Pressure   1.00000 Atm.
 Atom     1 has atomic number  6 and mass  12.00000
 Atom     2 has atomic number  1 and mass   1.00783
 Atom     3 has atomic number  1 and mass   1.00783
 Atom     4 has atomic number  1 and mass   1.00783
 Atom     5 has atomic number  6 and mass  12.00000
 Atom     6 has atomic number  8 and mass  15.99491
 Atom     7 has atomic number 53 and mass 126.90040
 Molecular mass:   169.91879 amu.
 Principal axes and moments of inertia in atomic units:
                           1         2         3
     Eigenvalues --   177.21173 832.49475 998.62273
           X            0.99858   0.05330   0.00000
           Y           -0.05330   0.99858   0.00000
           Z            0.00000   0.00000   1.00000
 This molecule is an asymmetric top.
 Rotational symmetry number  1.
 Rotational temperatures (Kelvin)      0.48876     0.10404     0.08673
 Rotational constants (GHZ):          10.18410     2.16787     1.80723
 Zero-point vibrational energy     121211.2 (Joules/Mol)
                                   28.97018 (Kcal/Mol)
 Warning -- explicit consideration of   5 degrees of freedom as
           vibrations may cause significant error
 Vibrational temperatures:    184.57   380.23   413.11   683.70   794.85
          (Kelvin)           1346.01  1486.86  1572.22  1989.68  2101.96
                             2103.42  2708.48  4385.91  4491.00  4514.67
 
 Zero-point correction=                           0.046167 (Hartree/Particle)
 Thermal correction to Energy=                    0.051142
 Thermal correction to Enthalpy=                  0.052086
 Thermal correction to Gibbs Free Energy=         0.016231
 Sum of electronic and zero-point Energies=           -164.652289
 Sum of electronic and thermal Energies=              -164.647314
 Sum of electronic and thermal Enthalpies=            -164.646370
 Sum of electronic and thermal Free Energies=         -164.682225
 
                     E (Thermal)             CV                S
                      KCal/Mol        Cal/Mol-Kelvin    Cal/Mol-Kelvin
 Total                   32.092             15.146             75.464
 Electronic               0.000              0.000              0.000
 Translational            0.889              2.981             41.298
 Rotational               0.889              2.981             26.491
 Vibrational             30.314              9.184              7.675
 Vibration     1          0.611              1.925              2.972
 Vibration     2          0.671              1.738              1.633
 Vibration     3          0.684              1.698              1.491
 Vibration     4          0.832              1.305              0.723
 Vibration     5          0.908              1.134              0.539
                       Q            Log10(Q)             Ln(Q)
 Total Bot       0.342366D-07         -7.465509        -17.189969
 Total V=0       0.588516D+14         13.769758         31.706039
 Vib (Bot)       0.286213D-20        -20.543310        -47.302720
 Vib (Bot)    1  0.158987D+01          0.201363          0.463655
 Vib (Bot)    2  0.733409D+00         -0.134654         -0.310051
 Vib (Bot)    3  0.667061D+00         -0.175835         -0.404874
 Vib (Bot)    4  0.353397D+00         -0.451737         -1.040163
 Vib (Bot)    5  0.283399D+00         -0.547601         -1.260899
 Vib (V=0)       0.491990D+01          0.691956          1.593289
 Vib (V=0)    1  0.216664D+01          0.335787          0.773179
 Vib (V=0)    2  0.138763D+01          0.142274          0.327598
 Vib (V=0)    3  0.133365D+01          0.125041          0.287918
 Vib (V=0)    4  0.111228D+01          0.046215          0.106414
 Vib (V=0)    5  0.107473D+01          0.031300          0.072070
 Electronic      0.100000D+01          0.000000          0.000000
 Translational   0.870597D+08          7.939817         18.282105
 Rotational      0.137399D+06          5.137984         11.830646
 ***** Axes restored to original set *****
 -------------------------------------------------------------------
 Center     Atomic                   Forces (Hartrees/Bohr)
 Number     Number              X              Y              Z
 -------------------------------------------------------------------
      1        6           0.000013233   -0.000027331    0.000046911
      2        1           0.000004991    0.000008471   -0.000027465
      3        1           0.000002556    0.000007707   -0.000029985
      4        1          -0.000014901    0.000019703    0.000003735
      5        6          -0.000000127    0.000021461    0.000036772
      6        8          -0.000006170   -0.000015227   -0.000023148
      7       53           0.000000417   -0.000014784   -0.000006821
 -------------------------------------------------------------------
 Cartesian Forces:  Max     0.000046911 RMS     0.000020056
 FormGI is forming the generalized inverse of G from B-inverse, IUseBI=4.

 GradGradGradGradGradGradGradGradGradGradGradGradGradGradGradGradGradGrad
 Berny optimization.
 Internal  Forces:  Max     0.000040015 RMS     0.000015995
 Search for a local minimum.
 Step number   1 out of a maximum of    2
 All quantities printed in internal units (Hartrees-Bohrs-Radians)
 Second derivative matrix not updated -- analytic derivatives used.
 ITU=  0
     Eigenvalues ---    0.00103   0.04543   0.05442   0.05475   0.07163
     Eigenvalues ---    0.12215   0.13770   0.13915   0.17463   0.21406
     Eigenvalues ---    0.28967   0.33944   0.34240   0.34718   0.94105
 Angle between quadratic step and forces=  52.92 degrees.
 Linear search not attempted -- first point.
 Iteration  1 RMS(Cart)=  0.00020454 RMS(Int)=  0.00000003
 Iteration  2 RMS(Cart)=  0.00000003 RMS(Int)=  0.00000001
 Variable       Old X    -DE/DX   Delta X   Delta X   Delta X     New X
                                 (Linear)    (Quad)   (Total)
    R1        2.05804   0.00000   0.00000  -0.00001  -0.00001   2.05803
    R2        2.05677   0.00003   0.00000   0.00009   0.00009   2.05686
    R3        2.05805   0.00000   0.00000  -0.00001  -0.00001   2.05803
    R4        2.83322   0.00000   0.00000   0.00005   0.00005   2.83327
    R5        2.22615   0.00000   0.00000   0.00001   0.00001   2.22616
    R6        4.21029  -0.00001   0.00000  -0.00016  -0.00016   4.21013
    A1        1.93228  -0.00001   0.00000  -0.00021  -0.00021   1.93207
    A2        1.87367   0.00002   0.00000   0.00033   0.00033   1.87400
    A3        1.90861   0.00001   0.00000   0.00012   0.00012   1.90874
    A4        1.93204   0.00001   0.00000   0.00003   0.00003   1.93207
    A5        1.90793   0.00000   0.00000  -0.00011  -0.00011   1.90782
    A6        1.90888  -0.00003   0.00000  -0.00015  -0.00015   1.90873
    A7        2.22897  -0.00003   0.00000  -0.00016  -0.00016   2.22881
    A8        1.96123  -0.00001   0.00000  -0.00006  -0.00006   1.96117
    A9        2.09298   0.00004   0.00000   0.00022   0.00022   2.09320
    D1        2.11773  -0.00001   0.00000   0.00009   0.00009   2.11782
    D2       -1.02381  -0.00001   0.00000   0.00003   0.00003  -1.02378
    D3       -0.00032   0.00000   0.00000   0.00035   0.00035   0.00002
    D4        3.14133   0.00000   0.00000   0.00028   0.00028  -3.14157
    D5       -2.11824   0.00001   0.00000   0.00047   0.00047  -2.11776
    D6        1.02342   0.00001   0.00000   0.00041   0.00041   1.02383
         Item               Value     Threshold  Converged?
 Maximum Force            0.000040     0.000450     YES
 RMS     Force            0.000016     0.000300     YES
 Maximum Displacement     0.000418     0.001800     YES
 RMS     Displacement     0.000205     0.001200     YES
 Predicted change in Energy=-2.119192D-08
 Optimization completed.
    -- Stationary point found.
                           ----------------------------
                           !   Optimized Parameters   !
                           ! (Angstroms and Degrees)  !
 --------------------------                            --------------------------
 ! Name  Definition              Value          Derivative Info.                !
 --------------------------------------------------------------------------------
 ! R1    R(1,2)                  1.0891         -DE/DX =    0.0                 !
 ! R2    R(1,3)                  1.0884         -DE/DX =    0.0                 !
 ! R3    R(1,4)                  1.0891         -DE/DX =    0.0                 !
 ! R4    R(1,5)                  1.4993         -DE/DX =    0.0                 !
 ! R5    R(5,6)                  1.178          -DE/DX =    0.0                 !
 ! R6    R(5,7)                  2.228          -DE/DX =    0.0                 !
 ! A1    A(2,1,3)              110.7117         -DE/DX =    0.0                 !
 ! A2    A(2,1,4)              107.3533         -DE/DX =    0.0                 !
 ! A3    A(2,1,5)              109.3555         -DE/DX =    0.0                 !
 ! A4    A(3,1,4)              110.6976         -DE/DX =    0.0                 !
 ! A5    A(3,1,5)              109.3163         -DE/DX =    0.0                 !
 ! A6    A(4,1,5)              109.371          -DE/DX =    0.0                 !
 ! A7    A(1,5,6)              127.7108         -DE/DX =    0.0                 !
 ! A8    A(1,5,7)              112.3703         -DE/DX =    0.0                 !
 ! A9    A(6,5,7)              119.9189         -DE/DX =    0.0                 !
 ! D1    D(2,1,5,6)            121.3367         -DE/DX =    0.0                 !
 ! D2    D(2,1,5,7)            -58.6597         -DE/DX =    0.0                 !
 ! D3    D(3,1,5,6)             -0.0185         -DE/DX =    0.0                 !
 ! D4    D(3,1,5,7)           -180.0149         -DE/DX =    0.0                 !
 ! D5    D(4,1,5,6)           -121.366          -DE/DX =    0.0                 !
 ! D6    D(4,1,5,7)             58.6375         -DE/DX =    0.0                 !
 --------------------------------------------------------------------------------
 GradGradGradGradGradGradGradGradGradGradGradGradGradGradGradGradGradGrad

 1\1\GINC-CNODE-4-82\Freq\RB3LYP\Gen\C2H3I1O1\MLAWAL\24-Mar-2015\0\\#N 
 Geom=AllCheck Guess=TCheck SCRF=Check GenChk RB3LYP/ChkBas Freq\\gen c
 alculation-iac C H O=aug-ccpvtz/I=lanl2dz\\0,1\C,-1.5577036979,-1.7110
 804625,0.1552579427\H,-0.5365056627,-2.0888211876,0.1321456269\H,-1.96
 29795521,-1.6352964472,-0.8520237281\H,-2.1464260713,-2.4028899187,0.7
 559920765\C,-1.5722057443,-0.3570416005,0.7988373796\O,-1.9497804612,0
 .6575614557,0.3343254266\I,-0.7609712731,-0.3955571701,2.8735283673\\V
 ersion=EM64L-G09RevD.01\State=1-A\HF=-164.6984555\RMSD=6.452e-09\RMSF=
 2.006e-05\ZeroPoint=0.0461669\Thermal=0.0511416\Dipole=-0.0024333,-0.9
 816711,-0.499905\DipoleDeriv=0.0281563,-0.0005114,-0.0825386,0.0513,-0
 .2388441,-0.0179956,-0.0564535,-0.1518732,-0.1621293,-0.0023403,0.0137
 705,-0.018834,-0.0148467,0.0869415,-0.0135673,-0.0421164,-0.0272823,0.
 0611879,0.0806773,-0.0011474,-0.0636447,-0.0089613,0.0316467,-0.060111
 8,-0.0675655,-0.0399121,-0.0893276,0.0699783,-0.0380387,0.0219809,-0.0
 106447,0.0749128,-0.0017479,0.0446286,0.0152005,0.000904,0.4517369,-0.
 1739967,0.9176806,-0.4521719,0.9915596,-0.6998728,0.7777799,0.0181641,
 2.0792522,-0.4177495,0.2079098,-0.4931846,0.4415226,-0.8430742,0.80937
 56,-0.3757351,0.2063982,-1.0523011,-0.210459,-0.007986,-0.2814596,-0.0
 06198,-0.1031423,-0.0160801,-0.2805379,-0.0206952,-0.8375861\Polar=48.
 8452706,-1.3024891,53.670272,14.3715387,1.9915217,81.1232477\PG=C01 [X
 (C2H3I1O1)]\NImag=0\\0.54021366,-0.00955645,0.47008057,0.02041927,-0.0
 5511578,0.55527783,-0.28213702,0.08866379,0.00402592,0.30516130,0.0896
 1455,-0.07085475,-0.00520474,-0.09630587,0.08207591,0.00260846,-0.0050
 7155,-0.04612762,-0.00507509,0.00477319,0.04480475,-0.08668641,0.00750
 141,-0.09234827,-0.00776132,0.00082038,-0.02683487,0.08651126,0.008604
 83,-0.05033130,0.02173783,0.00216516,-0.00119452,0.01051620,-0.0086081
 1,0.05145097,-0.09179257,0.01889124,-0.27670731,0.00109028,0.00019165,
 0.00368647,0.10221897,-0.01907235,0.29931103,-0.11971361,-0.09616006,0
 .07921236,-0.01664479,-0.02018774,0.01637938,0.00766713,0.00969805,-0.
 00620980,0.12961373,-0.09713360,-0.14951894,0.09410437,0.00633894,0.00
 849251,-0.00648240,0.00041495,-0.00039077,0.00009485,0.10238239,0.1662
 6373,0.08061669,0.09404722,-0.12988626,0.00037270,0.00067696,-0.001091
 18,0.01636764,0.01719206,-0.01255602,-0.08891924,-0.10185309,0.1361631
 7,-0.07596785,-0.00464138,0.00183607,0.00114777,0.03202303,0.01550920,
 -0.00067454,-0.01095275,-0.00612036,0.00024203,-0.01508936,-0.01069557
 ,0.23143814,-0.00827977,-0.14971625,-0.05762527,0.00131109,-0.01545517
 ,-0.00263235,0.00010280,-0.00088814,0.00003676,0.00274385,-0.02431740,
 -0.00836511,-0.20631303,0.88075269,0.00000870,-0.04823816,-0.10182955,
 -0.00148940,0.00189233,-0.00003032,-0.00055882,-0.02848352,-0.01621275
 ,-0.00017651,0.02034440,0.00975070,0.09558043,-0.16724225,0.31687151,0
 .02089038,0.01253791,-0.00670177,-0.00038380,-0.00445903,-0.00143446,-
 0.00041061,-0.00015821,0.00137224,-0.00120193,0.00227446,0.00270520,-0
 .13495192,0.22446342,-0.09303091,0.11708383,0.02088868,-0.05098138,0.0
 1524582,-0.00162439,-0.00340592,-0.00080247,-0.00016372,0.00304038,0.0
 0159866,0.00131689,-0.00149235,-0.00119832,0.20786756,-0.66883206,0.22
 804556,-0.24414157,0.72073275,-0.00250320,-0.00632160,0.01629751,0.001
 60046,-0.00198343,0.00043327,0.00137027,0.00160859,0.00337125,0.000612
 75,-0.00484842,-0.00066468,-0.10137457,0.27088571,-0.18067540,0.121238
 74,-0.27917477,0.19515346,0.00340086,0.00165478,-0.00644357,0.00061785
 ,-0.00150531,-0.00115261,0.00135448,-0.00074896,-0.00055877,0.00003743
 ,0.00081223,-0.00044741,-0.02123363,-0.01402836,-0.00033349,-0.0010259
 4,0.01585654,-0.02094445,0.01684895,-0.00413824,0.00132205,-0.01314223
 ,-0.00054872,0.00034193,-0.00030062,-0.00006770,-0.00168662,-0.0017408
 1,0.00020662,0.00096322,-0.00049971,-0.00289406,-0.02154367,-0.0063183
 6,0.00948301,0.00093858,0.01983391,-0.00204090,0.01966450,-0.00935736,
 0.00180863,-0.01702459,-0.00052487,-0.00034596,-0.00167538,-0.00021491
 ,-0.00349881,-0.00089266,-0.00089894,-0.00135970,-0.00171572,0.0052648
 2,-0.03505749,-0.02787419,-0.02414904,0.03628551,-0.03391541,0.0298803
 0,0.00216781,0.08309794\\-0.00001323,0.00002733,-0.00004691,-0.0000049
 9,-0.00000847,0.00002746,-0.00000256,-0.00000771,0.00002998,0.00001490
 ,-0.00001970,-0.00000373,0.00000013,-0.00002146,-0.00003677,0.00000617
 ,0.00001523,0.00002315,-0.00000042,0.00001478,0.00000682\\\@


 DESK:  A WASTEBASKET WITH DRAWERS.
 Job cpu time:       0 days  0 hours 24 minutes 12.0 seconds.
 File lengths (MBytes):  RWF=     35 Int=      0 D2E=      0 Chk=      4 Scr=      1
 Normal termination of Gaussian 09 at Tue Mar 24 11:41:13 2015.
