 Entering Gaussian System, Link 0=g09
 Initial command:
 /opt/gridware/applications/gaussian/g09/l1.exe "/lustre/SCRATCH5/gau/mlawal/846018.sched01/Gau-19652.inp" -scrdir="/lustre/SCRATCH5/gau/mlawal/846018.sched01/"
 Entering Link 1 = /opt/gridware/applications/gaussian/g09/l1.exe PID=     19653.
  
 Copyright (c) 1988,1990,1992,1993,1995,1998,2003,2009,2013,
            Gaussian, Inc.  All Rights Reserved.
  
 This is part of the Gaussian(R) 09 program.  It is based on
 the Gaussian(R) 03 system (copyright 2003, Gaussian, Inc.),
 the Gaussian(R) 98 system (copyright 1998, Gaussian, Inc.),
 the Gaussian(R) 94 system (copyright 1995, Gaussian, Inc.),
 the Gaussian 92(TM) system (copyright 1992, Gaussian, Inc.),
 the Gaussian 90(TM) system (copyright 1990, Gaussian, Inc.),
 the Gaussian 88(TM) system (copyright 1988, Gaussian, Inc.),
 the Gaussian 86(TM) system (copyright 1986, Carnegie Mellon
 University), and the Gaussian 82(TM) system (copyright 1983,
 Carnegie Mellon University). Gaussian is a federally registered
 trademark of Gaussian, Inc.
  
 This software contains proprietary and confidential information,
 including trade secrets, belonging to Gaussian, Inc.
  
 This software is provided under written license and may be
 used, copied, transmitted, or stored only in accord with that
 written license.
  
 The following legend is applicable only to US Government
 contracts under FAR:
  
                    RESTRICTED RIGHTS LEGEND
  
 Use, reproduction and disclosure by the US Government is
 subject to restrictions as set forth in subparagraphs (a)
 and (c) of the Commercial Computer Software - Restricted
 Rights clause in FAR 52.227-19.
  
 Gaussian, Inc.
 340 Quinnipiac St., Bldg. 40, Wallingford CT 06492
  
  
 ---------------------------------------------------------------
 Warning -- This program may not be used in any manner that
 competes with the business of Gaussian, Inc. or will provide
 assistance to any competitor of Gaussian, Inc.  The licensee
 of this program is prohibited from giving any competitor of
 Gaussian, Inc. access to this program.  By using this program,
 the user acknowledges that Gaussian, Inc. is engaged in the
 business of creating and licensing software in the field of
 computational chemistry and represents and warrants to the
 licensee that it is not a competitor of Gaussian, Inc. and that
 it will not use this program in any manner prohibited above.
 ---------------------------------------------------------------
  

 Cite this work as:
 Gaussian 09, Revision D.01,
 M. J. Frisch, G. W. Trucks, H. B. Schlegel, G. E. Scuseria, 
 M. A. Robb, J. R. Cheeseman, G. Scalmani, V. Barone, B. Mennucci, 
 G. A. Petersson, H. Nakatsuji, M. Caricato, X. Li, H. P. Hratchian, 
 A. F. Izmaylov, J. Bloino, G. Zheng, J. L. Sonnenberg, M. Hada, 
 M. Ehara, K. Toyota, R. Fukuda, J. Hasegawa, M. Ishida, T. Nakajima, 
 Y. Honda, O. Kitao, H. Nakai, T. Vreven, J. A. Montgomery, Jr., 
 J. E. Peralta, F. Ogliaro, M. Bearpark, J. J. Heyd, E. Brothers, 
 K. N. Kudin, V. N. Staroverov, T. Keith, R. Kobayashi, J. Normand, 
 K. Raghavachari, A. Rendell, J. C. Burant, S. S. Iyengar, J. Tomasi, 
 M. Cossi, N. Rega, J. M. Millam, M. Klene, J. E. Knox, J. B. Cross, 
 V. Bakken, C. Adamo, J. Jaramillo, R. Gomperts, R. E. Stratmann, 
 O. Yazyev, A. J. Austin, R. Cammi, C. Pomelli, J. W. Ochterski, 
 R. L. Martin, K. Morokuma, V. G. Zakrzewski, G. A. Voth, 
 P. Salvador, J. J. Dannenberg, S. Dapprich, A. D. Daniels, 
 O. Farkas, J. B. Foresman, J. V. Ortiz, J. Cioslowski, 
 and D. J. Fox, Gaussian, Inc., Wallingford CT, 2013.
 
 ******************************************
 Gaussian 09:  EM64L-G09RevD.01 24-Apr-2013
                24-Mar-2015 
 ******************************************
 %nprocshared=8
 Will use up to    8 processors via shared memory.
 %nprocl=1
 Will use up to    1 processors via Linda.
 ----------------------------------------------------------
 # opt freq b3lyp/gen geom=connectivity gfinput pseudo=read
 ----------------------------------------------------------
 1/14=-1,18=20,19=15,26=3,38=1,57=2/1,3;
 2/9=110,12=2,17=6,18=5,40=1/2;
 3/5=7,11=2,16=1,17=8,24=10,25=1,30=1,71=1,74=-5/1,2,3;
 4//1;
 5/5=2,38=5/2;
 6/7=2,8=2,9=2,10=2,28=1/1;
 7//1,2,3,16;
 1/14=-1,18=20,19=15,26=3/3(2);
 2/9=110/2;
 99//99;
 2/9=110/2;
 3/5=7,6=1,11=2,16=1,17=8,25=1,30=1,71=1,74=-5,82=7/1,2,3;
 4/5=5,16=3,69=1/1;
 5/5=2,38=5/2;
 7//1,2,3,16;
 1/14=-1,18=20,19=15,26=3/3(-5);
 2/9=110/2;
 6/7=2,8=2,9=2,10=2,19=2,28=1/1;
 99/9=1/99;
 --------------------------------------------
 gen calculation-iac C H O=aug-ccpvtz/I=midix
 --------------------------------------------
 Symbolic Z-matrix:
 Charge =  0 Multiplicity = 1
 C                    -1.55617  -1.7399    0.15525 
 H                    -0.63396  -2.25101   0.33747 
 H                    -1.65831  -1.55123  -0.89302 
 H                    -2.37202  -2.34607   0.4897 
 C                    -1.56225  -0.40343   0.92037 
 O                    -2.20363   0.57907   0.46551 
 I                    -0.50022  -0.22056   2.72277 
 

 GradGradGradGradGradGradGradGradGradGradGradGradGradGradGradGradGradGrad
 Berny optimization.
 Initialization pass.
                           ----------------------------
                           !    Initial Parameters    !
                           ! (Angstroms and Degrees)  !
 --------------------------                            --------------------------
 ! Name  Definition              Value          Derivative Info.                !
 --------------------------------------------------------------------------------
 ! R1    R(1,2)                  1.07           estimate D2E/DX2                !
 ! R2    R(1,3)                  1.07           estimate D2E/DX2                !
 ! R3    R(1,4)                  1.07           estimate D2E/DX2                !
 ! R4    R(1,5)                  1.54           estimate D2E/DX2                !
 ! R5    R(5,6)                  1.2584         estimate D2E/DX2                !
 ! R6    R(5,7)                  2.1            estimate D2E/DX2                !
 ! A1    A(2,1,3)              109.4712         estimate D2E/DX2                !
 ! A2    A(2,1,4)              109.4712         estimate D2E/DX2                !
 ! A3    A(2,1,5)              109.4712         estimate D2E/DX2                !
 ! A4    A(3,1,4)              109.4712         estimate D2E/DX2                !
 ! A5    A(3,1,5)              109.4712         estimate D2E/DX2                !
 ! A6    A(4,1,5)              109.4712         estimate D2E/DX2                !
 ! A7    A(1,5,6)              120.0            estimate D2E/DX2                !
 ! A8    A(1,5,7)              120.0            estimate D2E/DX2                !
 ! A9    A(6,5,7)              120.0            estimate D2E/DX2                !
 ! D1    D(2,1,5,6)            150.0            estimate D2E/DX2                !
 ! D2    D(2,1,5,7)            -30.0            estimate D2E/DX2                !
 ! D3    D(3,1,5,6)             30.0            estimate D2E/DX2                !
 ! D4    D(3,1,5,7)           -150.0            estimate D2E/DX2                !
 ! D5    D(4,1,5,6)            -90.0            estimate D2E/DX2                !
 ! D6    D(4,1,5,7)             90.0            estimate D2E/DX2                !
 --------------------------------------------------------------------------------
 Trust Radius=3.00D-01 FncErr=1.00D-07 GrdErr=1.00D-06
 Number of steps in this run=     31 maximum allowed number of steps=    100.
 GradGradGradGradGradGradGradGradGradGradGradGradGradGradGradGradGradGrad

                          Input orientation:                          
 ---------------------------------------------------------------------
 Center     Atomic      Atomic             Coordinates (Angstroms)
 Number     Number       Type             X           Y           Z
 ---------------------------------------------------------------------
      1          6           0       -1.556173   -1.739904    0.155253
      2          1           0       -0.633963   -2.251008    0.337467
      3          1           0       -1.658308   -1.551227   -0.893017
      4          1           0       -2.372024   -2.346067    0.489700
      5          6           0       -1.562253   -0.403433    0.920371
      6          8           0       -2.203629    0.579071    0.465515
      7         53           0       -0.500224   -0.220558    2.722773
 ---------------------------------------------------------------------
                    Distance matrix (angstroms):
                    1          2          3          4          5
     1  C    0.000000
     2  H    1.070000   0.000000
     3  H    1.070000   1.747303   0.000000
     4  H    1.070000   1.747303   1.747303   0.000000
     5  C    1.540000   2.148263   2.148263   2.148263   0.000000
     6  O    2.427572   3.238764   2.584792   2.930080   1.258400
     7  I    3.164743   3.135330   4.023154   3.606665   2.100000
                    6          7
     6  O    0.000000
     7  I    2.938743   0.000000
 Stoichiometry    C2H3IO
 Framework group  C1[X(C2H3IO)]
 Deg. of freedom    15
 Full point group                 C1      NOp   1
 Largest Abelian subgroup         C1      NOp   1
 Largest concise Abelian subgroup C1      NOp   1
                         Standard orientation:                         
 ---------------------------------------------------------------------
 Center     Atomic      Atomic             Coordinates (Angstroms)
 Number     Number       Type             X           Y           Z
 ---------------------------------------------------------------------
      1          6           0       -2.202197   -1.034057    0.000000
      2          1           0       -1.712668   -1.840803   -0.504403
      3          1           0       -3.116465   -0.800408   -0.504403
      4          1           0       -2.414566   -1.320606    1.008806
      5          6           0       -1.285236    0.203192    0.000000
      6          8           0       -1.786151    1.357598    0.000000
      7         53           0        0.801085   -0.036109    0.000000
 ---------------------------------------------------------------------
 Rotational constants (GHZ):     10.1628292      2.2184086      1.8413393
 General basis read from cards:  (5D, 7F)
 ======================================================================================================
                                       Pseudopotential Parameters
 ======================================================================================================
  Center     Atomic      Valence      Angular      Power
  Number     Number     Electrons     Momentum     of R      Exponent        Coefficient   SO-Coeffient
 ======================================================================================================
    1          6
                                   No pseudopotential on this center.
    2          1
                                   No pseudopotential on this center.
    3          1
                                   No pseudopotential on this center.
    4          1
                                   No pseudopotential on this center.
    5          6
                                   No pseudopotential on this center.
    6          8
                                   No pseudopotential on this center.
    7         53
                                   No pseudopotential on this center.
 ======================================================================================================
 AO basis set in the form of general basis input (Overlap normalization):
      1 0
 S   7 1.00       0.000000000000
      0.8236000000D+04  0.5419783203D-03
      0.1235000000D+04  0.4192873817D-02
      0.2808000000D+03  0.2152216205D-01
      0.7927000000D+02  0.8353432195D-01
      0.2559000000D+02  0.2395828457D+00
      0.8997000000D+01  0.4428528419D+00
      0.3319000000D+01  0.3517995618D+00
 S   6 1.00       0.000000000000
      0.2808000000D+03 -0.5949224937D-04
      0.7927000000D+02 -0.1148158310D-02
      0.2559000000D+02 -0.1001913745D-01
      0.8997000000D+01 -0.6121949230D-01
      0.3319000000D+01 -0.1732698541D+00
      0.3643000000D+00  0.1072915192D+01
 S   1 1.00       0.000000000000
      0.9059000000D+00  0.1000000000D+01
 S   1 1.00       0.000000000000
      0.1285000000D+00  0.1000000000D+01
 S   1 1.00       0.000000000000
      0.4402000000D-01  0.1000000000D+01
 P   3 1.00       0.000000000000
      0.1871000000D+02  0.3942638716D-01
      0.4133000000D+01  0.2440889849D+00
      0.1200000000D+01  0.8154920089D+00
 P   1 1.00       0.000000000000
      0.3827000000D+00  0.1000000000D+01
 P   1 1.00       0.000000000000
      0.1209000000D+00  0.1000000000D+01
 P   1 1.00       0.000000000000
      0.3569000000D-01  0.1000000000D+01
 D   1 1.00       0.000000000000
      0.1097000000D+01  0.1000000000D+01
 D   1 1.00       0.000000000000
      0.3180000000D+00  0.1000000000D+01
 D   1 1.00       0.000000000000
      0.1000000000D+00  0.1000000000D+01
 F   1 1.00       0.000000000000
      0.7610000000D+00  0.1000000000D+01
 F   1 1.00       0.000000000000
      0.2680000000D+00  0.1000000000D+01
 ****
      2 0
 S   3 1.00       0.000000000000
      0.3387000000D+02  0.2549486323D-01
      0.5095000000D+01  0.1903627659D+00
      0.1159000000D+01  0.8521620222D+00
 S   1 1.00       0.000000000000
      0.3258000000D+00  0.1000000000D+01
 S   1 1.00       0.000000000000
      0.1027000000D+00  0.1000000000D+01
 S   1 1.00       0.000000000000
      0.2526000000D-01  0.1000000000D+01
 P   1 1.00       0.000000000000
      0.1407000000D+01  0.1000000000D+01
 P   1 1.00       0.000000000000
      0.3880000000D+00  0.1000000000D+01
 P   1 1.00       0.000000000000
      0.1020000000D+00  0.1000000000D+01
 D   1 1.00       0.000000000000
      0.1057000000D+01  0.1000000000D+01
 D   1 1.00       0.000000000000
      0.2470000000D+00  0.1000000000D+01
 ****
      3 0
 S   3 1.00       0.000000000000
      0.3387000000D+02  0.2549486323D-01
      0.5095000000D+01  0.1903627659D+00
      0.1159000000D+01  0.8521620222D+00
 S   1 1.00       0.000000000000
      0.3258000000D+00  0.1000000000D+01
 S   1 1.00       0.000000000000
      0.1027000000D+00  0.1000000000D+01
 S   1 1.00       0.000000000000
      0.2526000000D-01  0.1000000000D+01
 P   1 1.00       0.000000000000
      0.1407000000D+01  0.1000000000D+01
 P   1 1.00       0.000000000000
      0.3880000000D+00  0.1000000000D+01
 P   1 1.00       0.000000000000
      0.1020000000D+00  0.1000000000D+01
 D   1 1.00       0.000000000000
      0.1057000000D+01  0.1000000000D+01
 D   1 1.00       0.000000000000
      0.2470000000D+00  0.1000000000D+01
 ****
      4 0
 S   3 1.00       0.000000000000
      0.3387000000D+02  0.2549486323D-01
      0.5095000000D+01  0.1903627659D+00
      0.1159000000D+01  0.8521620222D+00
 S   1 1.00       0.000000000000
      0.3258000000D+00  0.1000000000D+01
 S   1 1.00       0.000000000000
      0.1027000000D+00  0.1000000000D+01
 S   1 1.00       0.000000000000
      0.2526000000D-01  0.1000000000D+01
 P   1 1.00       0.000000000000
      0.1407000000D+01  0.1000000000D+01
 P   1 1.00       0.000000000000
      0.3880000000D+00  0.1000000000D+01
 P   1 1.00       0.000000000000
      0.1020000000D+00  0.1000000000D+01
 D   1 1.00       0.000000000000
      0.1057000000D+01  0.1000000000D+01
 D   1 1.00       0.000000000000
      0.2470000000D+00  0.1000000000D+01
 ****
      5 0
 S   7 1.00       0.000000000000
      0.8236000000D+04  0.5419783203D-03
      0.1235000000D+04  0.4192873817D-02
      0.2808000000D+03  0.2152216205D-01
      0.7927000000D+02  0.8353432195D-01
      0.2559000000D+02  0.2395828457D+00
      0.8997000000D+01  0.4428528419D+00
      0.3319000000D+01  0.3517995618D+00
 S   6 1.00       0.000000000000
      0.2808000000D+03 -0.5949224937D-04
      0.7927000000D+02 -0.1148158310D-02
      0.2559000000D+02 -0.1001913745D-01
      0.8997000000D+01 -0.6121949230D-01
      0.3319000000D+01 -0.1732698541D+00
      0.3643000000D+00  0.1072915192D+01
 S   1 1.00       0.000000000000
      0.9059000000D+00  0.1000000000D+01
 S   1 1.00       0.000000000000
      0.1285000000D+00  0.1000000000D+01
 S   1 1.00       0.000000000000
      0.4402000000D-01  0.1000000000D+01
 P   3 1.00       0.000000000000
      0.1871000000D+02  0.3942638716D-01
      0.4133000000D+01  0.2440889849D+00
      0.1200000000D+01  0.8154920089D+00
 P   1 1.00       0.000000000000
      0.3827000000D+00  0.1000000000D+01
 P   1 1.00       0.000000000000
      0.1209000000D+00  0.1000000000D+01
 P   1 1.00       0.000000000000
      0.3569000000D-01  0.1000000000D+01
 D   1 1.00       0.000000000000
      0.1097000000D+01  0.1000000000D+01
 D   1 1.00       0.000000000000
      0.3180000000D+00  0.1000000000D+01
 D   1 1.00       0.000000000000
      0.1000000000D+00  0.1000000000D+01
 F   1 1.00       0.000000000000
      0.7610000000D+00  0.1000000000D+01
 F   1 1.00       0.000000000000
      0.2680000000D+00  0.1000000000D+01
 ****
      6 0
 S   7 1.00       0.000000000000
      0.1533000000D+05  0.5198089434D-03
      0.2299000000D+04  0.4020256215D-02
      0.5224000000D+03  0.2071282673D-01
      0.1473000000D+03  0.8101055358D-01
      0.4755000000D+02  0.2359629851D+00
      0.1676000000D+02  0.4426534455D+00
      0.6207000000D+01  0.3570644227D+00
 S   6 1.00       0.000000000000
      0.5224000000D+03 -0.4421150084D-04
      0.1473000000D+03 -0.1225910413D-02
      0.4755000000D+02 -0.1055177248D-01
      0.1676000000D+02 -0.6744526326D-01
      0.6207000000D+01 -0.1711986073D+00
      0.6882000000D+00  0.1073298561D+01
 S   1 1.00       0.000000000000
      0.1752000000D+01  0.1000000000D+01
 S   1 1.00       0.000000000000
      0.2384000000D+00  0.1000000000D+01
 S   1 1.00       0.000000000000
      0.7376000000D-01  0.1000000000D+01
 P   3 1.00       0.000000000000
      0.3446000000D+02  0.4116348957D-01
      0.7749000000D+01  0.2577628359D+00
      0.2280000000D+01  0.8024192744D+00
 P   1 1.00       0.000000000000
      0.7156000000D+00  0.1000000000D+01
 P   1 1.00       0.000000000000
      0.2140000000D+00  0.1000000000D+01
 P   1 1.00       0.000000000000
      0.5974000000D-01  0.1000000000D+01
 D   1 1.00       0.000000000000
      0.2314000000D+01  0.1000000000D+01
 D   1 1.00       0.000000000000
      0.6450000000D+00  0.1000000000D+01
 D   1 1.00       0.000000000000
      0.2140000000D+00  0.1000000000D+01
 F   1 1.00       0.000000000000
      0.1428000000D+01  0.1000000000D+01
 F   1 1.00       0.000000000000
      0.5000000000D+00  0.1000000000D+01
 ****
      7 0
 S   3 1.00       0.000000000000
      0.1435118600D+05  0.6100296243D-01
      0.2173074100D+04  0.3666397742D+00
      0.4778720500D+03  0.6911305744D+00
 S   3 1.00       0.000000000000
      0.6481887000D+03 -0.1128509932D+00
      0.1403064000D+03  0.8322799497D-01
      0.4569880000D+02  0.9697519414D+00
 S   3 1.00       0.000000000000
      0.5669469000D+02 -0.2736970086D+00
      0.2748875000D+02  0.4650000147D-01
      0.8209096000D+01  0.1091576034D+01
 S   3 1.00       0.000000000000
      0.8191679000D+01 -0.4508282032D+00
      0.3244596000D+01  0.4632092088D+00
      0.1300489000D+01  0.8386363779D+00
 S   2 1.00       0.000000000000
      0.1451380000D+01 -0.6658518470D+00
      0.3281030000D+00  0.1328583695D+01
 S   1 1.00       0.000000000000
      0.1150760000D+00  0.1000000000D+01
 P   3 1.00       0.000000000000
      0.6481887000D+03  0.1541140437D+00
      0.1403064000D+03  0.6194621756D+00
      0.4569880000D+02  0.3837581088D+00
 P   3 1.00       0.000000000000
      0.5669469000D+02 -0.1523219476D+00
      0.2748875000D+02  0.5437688128D+00
      0.8209096000D+01  0.6561677741D+00
 P   3 1.00       0.000000000000
      0.8191679000D+01  0.1186999031D-01
      0.3244596000D+01  0.5265245700D+00
      0.1300489000D+01  0.5266075699D+00
 P   2 1.00       0.000000000000
      0.1451380000D+01  0.2754100034D-01
      0.3281030000D+00  0.9851370121D+00
 P   1 1.00       0.000000000000
      0.1150760000D+00  0.1000000000D+01
 D   3 1.00       0.000000000000
      0.1280902600D+03  0.1158640046D+00
      0.3598237800D+02  0.4820490193D+00
      0.1155111600D+02  0.5894450236D+00
 D   3 1.00       0.000000000000
      0.6146152000D+01  0.2681821130D+00
      0.2220937000D+01  0.5800612445D+00
      0.8099120000D+00  0.3262261375D+00
 D   1 1.00       0.000000000000
      0.4000000000D+00  0.1000000000D+01
 ****

 There are   279 symmetry adapted cartesian basis functions of A   symmetry.
 There are   243 symmetry adapted basis functions of A   symmetry.
   243 basis functions,   390 primitive gaussians,   279 cartesian basis functions
    38 alpha electrons       38 beta electrons
       nuclear repulsion energy       295.0002478341 Hartrees.
 NAtoms=    7 NActive=    7 NUniq=    7 SFac= 1.00D+00 NAtFMM=   60 NAOKFM=F Big=F
 Integral buffers will be    131072 words long.
 Raffenetti 2 integral format.
 Two-electron integral symmetry is turned on.
 One-electron integrals computed using PRISM.
 PrsmSu:  requested number of processors reduced to:   4 ShMem   1 Linda.
   1 Symmetry operations used in ECPInt.
 ECPInt:  NShTT=    3486 NPrTT=   11181 LenC2=    3462 LenP2D=    9524.
 LDataN:  DoStor=T MaxTD1= 6 Len=  172
 NBasis=   243 RedAO= T EigKep=  3.89D-05  NBF=   243
 NBsUse=   243 1.00D-06 EigRej= -1.00D+00 NBFU=   243
 Defaulting to unpruned grid for atomic number  53.
 ExpMin= 2.53D-02 ExpMax= 1.53D+04 ExpMxC= 1.44D+04 IAcc=3 IRadAn=         5 AccDes= 0.00D+00
 Harris functional with IExCor=  402 and IRadAn=       5 diagonalized for initial guess.
 HarFok:  IExCor=  402 AccDes= 0.00D+00 IRadAn=         5 IDoV= 1 UseB2=F ITyADJ=14
 ICtDFT=  3500011 ScaDFX=  1.000000  1.000000  1.000000  1.000000
 Defaulting to unpruned grid for atomic number  53.
 Defaulting to unpruned grid for atomic number  53.
 Defaulting to unpruned grid for atomic number  53.
 Defaulting to unpruned grid for atomic number  53.
 Defaulting to unpruned grid for atomic number  53.
 Defaulting to unpruned grid for atomic number  53.
 Defaulting to unpruned grid for atomic number  53.
 Defaulting to unpruned grid for atomic number  53.
 FoFCou: FMM=F IPFlag=           0 FMFlag=      100000 FMFlg1=           0
         NFxFlg=           0 DoJE=T BraDBF=F KetDBF=T FulRan=T
         wScrn=  0.000000 ICntrl=     500 IOpCl=  0 I1Cent=   200000004 NGrid=           0
         NMat0=    1 NMatS0=      1 NMatT0=    0 NMatD0=    1 NMtDS0=    0 NMtDT0=    0
 Petite list used in FoFCou.
 Requested convergence on RMS density matrix=1.00D-08 within 128 cycles.
 Requested convergence on MAX density matrix=1.00D-06.
 Requested convergence on             energy=1.00D-06.
 No special actions if energy rises.
 Defaulting to unpruned grid for atomic number  53.
 Defaulting to unpruned grid for atomic number  53.
 Defaulting to unpruned grid for atomic number  53.
 Defaulting to unpruned grid for atomic number  53.
 Defaulting to unpruned grid for atomic number  53.
 Defaulting to unpruned grid for atomic number  53.
 Defaulting to unpruned grid for atomic number  53.
 Defaulting to unpruned grid for atomic number  53.
 SCF Done:  E(RB3LYP) =  -7043.46148130     A.U. after   14 cycles
            NFock= 14  Conv=0.33D-08     -V/T= 1.9988

 **********************************************************************

            Population analysis using the SCF density.

 **********************************************************************

 Orbital symmetries:
       Occupied  (A) (A) (A) (A) (A) (A) (A) (A) (A) (A) (A) (A)
                 (A) (A) (A) (A) (A) (A) (A) (A) (A) (A) (A) (A)
                 (A) (A) (A) (A) (A) (A) (A) (A) (A) (A) (A) (A)
                 (A) (A)
       Virtual   (A) (A) (A) (A) (A) (A) (A) (A) (A) (A) (A) (A)
                 (A) (A) (A) (A) (A) (A) (A) (A) (A) (A) (A) (A)
                 (A) (A) (A) (A) (A) (A) (A) (A) (A) (A) (A) (A)
                 (A) (A) (A) (A) (A) (A) (A) (A) (A) (A) (A) (A)
                 (A) (A) (A) (A) (A) (A) (A) (A) (A) (A) (A) (A)
                 (A) (A) (A) (A) (A) (A) (A) (A) (A) (A) (A) (A)
                 (A) (A) (A) (A) (A) (A) (A) (A) (A) (A) (A) (A)
                 (A) (A) (A) (A) (A) (A) (A) (A) (A) (A) (A) (A)
                 (A) (A) (A) (A) (A) (A) (A) (A) (A) (A) (A) (A)
                 (A) (A) (A) (A) (A) (A) (A) (A) (A) (A) (A) (A)
                 (A) (A) (A) (A) (A) (A) (A) (A) (A) (A) (A) (A)
                 (A) (A) (A) (A) (A) (A) (A) (A) (A) (A) (A) (A)
                 (A) (A) (A) (A) (A) (A) (A) (A) (A) (A) (A) (A)
                 (A) (A) (A) (A) (A) (A) (A) (A) (A) (A) (A) (A)
                 (A) (A) (A) (A) (A) (A) (A) (A) (A) (A) (A) (A)
                 (A) (A) (A) (A) (A) (A) (A) (A) (A) (A) (A) (A)
                 (A) (A) (A) (A) (A) (A) (A) (A) (A) (A) (A) (A)
                 (A)
 The electronic state is 1-A.
 Alpha  occ. eigenvalues -- **********-175.69541-164.47496-164.47151-164.47145
 Alpha  occ. eigenvalues --  -35.80198 -30.97082 -30.96680 -30.96610 -22.92056
 Alpha  occ. eigenvalues --  -22.91870 -22.91865 -22.91416 -22.91408 -19.15800
 Alpha  occ. eigenvalues --  -10.32421 -10.20415  -6.39452  -4.70067  -4.69032
 Alpha  occ. eigenvalues --   -4.68843  -2.07771  -2.07436  -2.07294  -2.06359
 Alpha  occ. eigenvalues --   -2.06354  -1.05249  -0.77877  -0.69429  -0.55227
 Alpha  occ. eigenvalues --   -0.47269  -0.47067  -0.45951  -0.40740  -0.38802
 Alpha  occ. eigenvalues --   -0.28939  -0.28413  -0.27141
 Alpha virt. eigenvalues --   -0.07025  -0.04633  -0.01505   0.01615   0.01832
 Alpha virt. eigenvalues --    0.02442   0.05792   0.06561   0.06864   0.07399
 Alpha virt. eigenvalues --    0.07931   0.08322   0.10345   0.11373   0.12428
 Alpha virt. eigenvalues --    0.15087   0.15637   0.16145   0.16694   0.17757
 Alpha virt. eigenvalues --    0.19016   0.22349   0.23412   0.24644   0.25483
 Alpha virt. eigenvalues --    0.26119   0.26810   0.27982   0.28779   0.29320
 Alpha virt. eigenvalues --    0.30076   0.32162   0.33151   0.33641   0.34299
 Alpha virt. eigenvalues --    0.36007   0.36274   0.37851   0.40473   0.42333
 Alpha virt. eigenvalues --    0.43598   0.45919   0.47979   0.48963   0.50858
 Alpha virt. eigenvalues --    0.53341   0.55967   0.56602   0.58335   0.60277
 Alpha virt. eigenvalues --    0.62016   0.63138   0.64575   0.66486   0.67407
 Alpha virt. eigenvalues --    0.69016   0.69602   0.71181   0.72969   0.74439
 Alpha virt. eigenvalues --    0.75404   0.77139   0.78637   0.80501   0.80910
 Alpha virt. eigenvalues --    0.83269   0.83812   0.85326   0.86143   0.87833
 Alpha virt. eigenvalues --    0.89988   0.90111   0.92080   0.94684   0.96383
 Alpha virt. eigenvalues --    0.96631   1.00874   1.01565   1.02799   1.04955
 Alpha virt. eigenvalues --    1.07923   1.09408   1.11099   1.11940   1.14914
 Alpha virt. eigenvalues --    1.15740   1.20589   1.22941   1.28252   1.29190
 Alpha virt. eigenvalues --    1.29962   1.33080   1.36200   1.38255   1.40112
 Alpha virt. eigenvalues --    1.42119   1.43909   1.44724   1.45743   1.50724
 Alpha virt. eigenvalues --    1.52491   1.57596   1.58288   1.60136   1.62304
 Alpha virt. eigenvalues --    1.65749   1.67960   1.71933   1.76580   1.80092
 Alpha virt. eigenvalues --    1.87628   1.89587   1.95011   1.98726   2.00335
 Alpha virt. eigenvalues --    2.04257   2.05157   2.15222   2.16721   2.17669
 Alpha virt. eigenvalues --    2.22092   2.25172   2.30983   2.36738   2.39575
 Alpha virt. eigenvalues --    2.43851   2.46284   2.50795   2.60681   2.64419
 Alpha virt. eigenvalues --    2.73313   2.79930   2.84749   2.98718   3.03589
 Alpha virt. eigenvalues --    3.09197   3.13851   3.14917   3.18725   3.21960
 Alpha virt. eigenvalues --    3.24199   3.26442   3.28772   3.31550   3.35449
 Alpha virt. eigenvalues --    3.39255   3.40524   3.45017   3.46559   3.53059
 Alpha virt. eigenvalues --    3.58337   3.59656   3.64656   3.67195   3.68805
 Alpha virt. eigenvalues --    3.74704   3.79475   3.80443   3.87310   3.91143
 Alpha virt. eigenvalues --    3.95864   4.01432   4.06583   4.12392   4.20390
 Alpha virt. eigenvalues --    4.27619   4.32809   4.39564   4.40100   4.44785
 Alpha virt. eigenvalues --    4.45548   4.54149   4.63660   4.70021   4.73416
 Alpha virt. eigenvalues --    4.81137   4.85691   4.99722   5.02320   5.07714
 Alpha virt. eigenvalues --    5.25382   5.28990   5.34137   5.35781   5.64544
 Alpha virt. eigenvalues --    5.68810   5.79690   5.81207   6.13921   6.17384
 Alpha virt. eigenvalues --    6.24952   6.27206   6.40150   6.43653   6.56796
 Alpha virt. eigenvalues --    6.69526   6.69695   6.72383   6.91550   7.02582
 Alpha virt. eigenvalues --    7.11111   7.21776  12.68952  13.79028  16.88730
          Condensed to atoms (all electrons):
               1          2          3          4          5          6
     1  C    6.070164   0.294737   0.244692   0.274825  -0.478523   0.082339
     2  H    0.294737   0.644280  -0.075337   0.024057  -0.098109   0.006265
     3  H    0.244692  -0.075337   0.534186  -0.004566   0.094951  -0.014286
     4  H    0.274825   0.024057  -0.004566   0.461243   0.010671   0.007818
     5  C   -0.478523  -0.098109   0.094951   0.010671   5.936392   0.186433
     6  O    0.082339   0.006265  -0.014286   0.007818   0.186433   8.357673
     7  I   -0.015773  -0.047814   0.016022  -0.005906   0.152563  -0.092901
               7
     1  C   -0.015773
     2  H   -0.047814
     3  H    0.016022
     4  H   -0.005906
     5  C    0.152563
     6  O   -0.092901
     7  I   52.871747
 Mulliken charges:
               1
     1  C   -0.472462
     2  H    0.251921
     3  H    0.204339
     4  H    0.231857
     5  C    0.195622
     6  O   -0.533340
     7  I    0.122063
 Sum of Mulliken charges =   0.00000
 Mulliken charges with hydrogens summed into heavy atoms:
               1
     1  C    0.215655
     5  C    0.195622
     6  O   -0.533340
     7  I    0.122063
 Electronic spatial extent (au):  <R**2>=            624.1202
 Charge=              0.0000 electrons
 Dipole moment (field-independent basis, Debye):
    X=             -0.0761    Y=             -2.6614    Z=              0.0231  Tot=              2.6626
 Quadrupole moment (field-independent basis, Debye-Ang):
   XX=            -43.4801   YY=            -49.6485   ZZ=            -46.0452
   XY=              5.6251   XZ=             -0.0787   YZ=             -0.0769
 Traceless Quadrupole moment (field-independent basis, Debye-Ang):
   XX=              2.9112   YY=             -3.2573   ZZ=              0.3461
   XY=              5.6251   XZ=             -0.0787   YZ=             -0.0769
 Octapole moment (field-independent basis, Debye-Ang**2):
  XXX=             33.1529  YYY=             -3.9864  ZZZ=              0.7138  XYY=             13.7794
  XXY=            -11.6836  XXZ=             -0.2976  XZZ=              8.1949  YZZ=              0.1539
  YYZ=             -0.1668  XYZ=              0.4273
 Hexadecapole moment (field-independent basis, Debye-Ang**3):
 XXXX=           -519.2139 YYYY=           -189.1479 ZZZZ=            -65.3432 XXXY=             16.7986
 XXXZ=              2.9731 YYYX=              2.7666 YYYZ=              0.7849 ZZZX=             -1.8165
 ZZZY=             -1.1995 XXYY=           -130.1456 XXZZ=            -97.6308 YYZZ=            -40.3842
 XXYZ=             -1.3590 YYXZ=             -0.5180 ZZXY=             -0.7859
 N-N= 2.950002478341D+02 E-N=-1.732226241562D+04  KE= 7.051830861242D+03
 PrsmSu:  requested number of processors reduced to:   4 ShMem   1 Linda.
   1 Symmetry operations used in ECPInt.
 ECPInt:  NShTT=    3486 NPrTT=   11181 LenC2=    3462 LenP2D=    9524.
 LDataN:  DoStor=T MaxTD1= 7 Len=  274
 Calling FoFJK, ICntrl=      2127 FMM=F ISym2X=0 I1Cent= 0 IOpClX= 0 NMat=1 NMatS=1 NMatT=0.
 Defaulting to unpruned grid for atomic number  53.
 Defaulting to unpruned grid for atomic number  53.
 Defaulting to unpruned grid for atomic number  53.
 Defaulting to unpruned grid for atomic number  53.
 Defaulting to unpruned grid for atomic number  53.
 Defaulting to unpruned grid for atomic number  53.
 Defaulting to unpruned grid for atomic number  53.
 Defaulting to unpruned grid for atomic number  53.
 ***** Axes restored to original set *****
 -------------------------------------------------------------------
 Center     Atomic                   Forces (Hartrees/Bohr)
 Number     Number              X              Y              Z
 -------------------------------------------------------------------
      1        6           0.011948651    0.024038282    0.017354453
      2        1           0.008828633   -0.008675852    0.003050497
      3        1          -0.003753644    0.004991665   -0.010583071
      4        1          -0.010241320   -0.006897761    0.006135584
      5        6          -0.055575188    0.055015209   -0.056016703
      6        8           0.044969501   -0.065830443    0.034213838
      7       53           0.003823367   -0.002641099    0.005845402
 -------------------------------------------------------------------
 Cartesian Forces:  Max     0.065830443 RMS     0.029568985

 GradGradGradGradGradGradGradGradGradGradGradGradGradGradGradGradGradGrad
 Berny optimization.
 FormGI is forming the generalized inverse of G from B-inverse, IUseBI=4.
 Internal  Forces:  Max     0.086669087 RMS     0.020355750
 Search for a local minimum.
 Step number   1 out of a maximum of   31
 All quantities printed in internal units (Hartrees-Bohrs-Radians)
 Mixed Optimization -- RFO/linear search
 Second derivative matrix not updated -- first step.
 ITU=  0
     Eigenvalues ---    0.00237   0.00237   0.07243   0.07243   0.14003
     Eigenvalues ---    0.16000   0.16000   0.16000   0.25000   0.25000
     Eigenvalues ---    0.28519   0.37230   0.37230   0.37230   0.80209
 RFO step:  Lambda=-1.34768322D-02 EMin= 2.36824082D-03
 Linear search not attempted -- first point.
 Iteration  1 RMS(Cart)=  0.04112548 RMS(Int)=  0.00122895
 Iteration  2 RMS(Cart)=  0.00130980 RMS(Int)=  0.00027306
 Iteration  3 RMS(Cart)=  0.00000085 RMS(Int)=  0.00027306
 Variable       Old X    -DE/DX   Delta X   Delta X   Delta X     New X
                                 (Linear)    (Quad)   (Total)
    R1        2.02201   0.01229   0.00000   0.03185   0.03185   2.05386
    R2        2.02201   0.01159   0.00000   0.03005   0.03005   2.05206
    R3        2.02201   0.01364   0.00000   0.03535   0.03535   2.05735
    R4        2.91018  -0.01957   0.00000  -0.06552  -0.06552   2.84466
    R5        2.37803  -0.08667   0.00000  -0.10627  -0.10627   2.27176
    R6        3.96842   0.00670   0.00000   0.04367   0.04367   4.01209
    A1        1.91063   0.00241   0.00000   0.02638   0.02637   1.93700
    A2        1.91063  -0.00137   0.00000  -0.01119  -0.01102   1.89961
    A3        1.91063   0.00467   0.00000   0.03151   0.03159   1.94222
    A4        1.91063   0.00179   0.00000   0.00114   0.00056   1.91119
    A5        1.91063  -0.00418   0.00000  -0.02246  -0.02273   1.88790
    A6        1.91063  -0.00332   0.00000  -0.02537  -0.02556   1.88508
    A7        2.09440   0.00963   0.00000   0.03655   0.03606   2.13045
    A8        2.09440  -0.01103   0.00000  -0.04188  -0.04237   2.05202
    A9        2.09440   0.00140   0.00000   0.00532   0.00482   2.09922
    D1        2.61799   0.00156   0.00000   0.02793   0.02800   2.64599
    D2       -0.52360   0.00063   0.00000  -0.03065  -0.03057  -0.55417
    D3        0.52360  -0.00169   0.00000  -0.00991  -0.00968   0.51392
    D4       -2.61799  -0.00262   0.00000  -0.06850  -0.06825  -2.68624
    D5       -1.57080   0.00070   0.00000   0.01798   0.01765  -1.55315
    D6        1.57080  -0.00022   0.00000  -0.04061  -0.04092   1.52988
         Item               Value     Threshold  Converged?
 Maximum Force            0.086669     0.000450     NO 
 RMS     Force            0.020356     0.000300     NO 
 Maximum Displacement     0.087966     0.001800     NO 
 RMS     Displacement     0.041911     0.001200     NO 
 Predicted change in Energy=-6.973743D-03
 GradGradGradGradGradGradGradGradGradGradGradGradGradGradGradGradGradGrad

                          Input orientation:                          
 ---------------------------------------------------------------------
 Center     Atomic      Atomic             Coordinates (Angstroms)
 Number     Number       Type             X           Y           Z
 ---------------------------------------------------------------------
      1          6           0       -1.541731   -1.719668    0.160403
      2          1           0       -0.611404   -2.250755    0.343957
      3          1           0       -1.680919   -1.534416   -0.900489
      4          1           0       -2.368972   -2.319408    0.536250
      5          6           0       -1.564867   -0.395072    0.875189
      6          8           0       -2.194660    0.542011    0.462347
      7         53           0       -0.524019   -0.255817    2.720406
 ---------------------------------------------------------------------
                    Distance matrix (angstroms):
                    1          2          3          4          5
     1  C    0.000000
     2  H    1.086856   0.000000
     3  H    1.085902   1.790432   0.000000
     4  H    1.088704   1.769389   1.775908   0.000000
     5  C    1.505327   2.152873   2.112961   2.112944   0.000000
     6  O    2.373326   3.212516   2.536296   2.867675   1.202165
     7  I    3.119649   3.104017   4.010500   3.526016   2.123107
                    6          7
     6  O    0.000000
     7  I    2.920000   0.000000
 Stoichiometry    C2H3IO
 Framework group  C1[X(C2H3IO)]
 Deg. of freedom    15
 Full point group                 C1      NOp   1
 Largest Abelian subgroup         C1      NOp   1
 Largest concise Abelian subgroup C1      NOp   1
                         Standard orientation:                         
 ---------------------------------------------------------------------
 Center     Atomic      Atomic             Coordinates (Angstroms)
 Number     Number       Type             X           Y           Z
 ---------------------------------------------------------------------
      1          6           0       -2.158792   -1.028643   -0.000345
      2          1           0       -1.664836   -1.851897   -0.509773
      3          1           0       -3.111424   -0.797735   -0.467634
      4          1           0       -2.321877   -1.305959    1.039739
      5          6           0       -1.311188    0.215168   -0.022906
      6          8           0       -1.792745    1.316274    0.006552
      7         53           0        0.797358   -0.031958    0.000467
 ---------------------------------------------------------------------
 Rotational constants (GHZ):     10.5468269      2.2420957      1.8706310
 Basis read from rwf:  (5D, 7F)
 Pseudo-potential data read from rwf file.
 There are   279 symmetry adapted cartesian basis functions of A   symmetry.
 There are   243 symmetry adapted basis functions of A   symmetry.
   243 basis functions,   390 primitive gaussians,   279 cartesian basis functions
    38 alpha electrons       38 beta electrons
       nuclear repulsion energy       297.1084668821 Hartrees.
 NAtoms=    7 NActive=    7 NUniq=    7 SFac= 1.00D+00 NAtFMM=   60 NAOKFM=F Big=F
 Integral buffers will be    131072 words long.
 Raffenetti 2 integral format.
 Two-electron integral symmetry is turned on.
 One-electron integrals computed using PRISM.
 PrsmSu:  requested number of processors reduced to:   4 ShMem   1 Linda.
   1 Symmetry operations used in ECPInt.
 ECPInt:  NShTT=    3486 NPrTT=   11181 LenC2=    3462 LenP2D=    9533.
 LDataN:  DoStor=T MaxTD1= 6 Len=  172
 NBasis=   243 RedAO= T EigKep=  3.60D-05  NBF=   243
 NBsUse=   243 1.00D-06 EigRej= -1.00D+00 NBFU=   243
 Defaulting to unpruned grid for atomic number  53.
 Initial guess from the checkpoint file:  "/lustre/SCRATCH5/gau/mlawal/846018.sched01/Gau-19653.chk"
 B after Tr=     0.000000    0.000000    0.000000
         Rot=    0.999991    0.000617   -0.000592   -0.004048 Ang=   0.47 deg.
 ExpMin= 2.53D-02 ExpMax= 1.53D+04 ExpMxC= 1.44D+04 IAcc=3 IRadAn=         5 AccDes= 0.00D+00
 Harris functional with IExCor=  402 and IRadAn=       5 diagonalized for initial guess.
 HarFok:  IExCor=  402 AccDes= 0.00D+00 IRadAn=         5 IDoV= 1 UseB2=F ITyADJ=14
 ICtDFT=  3500011 ScaDFX=  1.000000  1.000000  1.000000  1.000000
 Defaulting to unpruned grid for atomic number  53.
 Defaulting to unpruned grid for atomic number  53.
 Defaulting to unpruned grid for atomic number  53.
 Defaulting to unpruned grid for atomic number  53.
 Defaulting to unpruned grid for atomic number  53.
 Defaulting to unpruned grid for atomic number  53.
 Defaulting to unpruned grid for atomic number  53.
 Defaulting to unpruned grid for atomic number  53.
 FoFCou: FMM=F IPFlag=           0 FMFlag=      100000 FMFlg1=           0
         NFxFlg=           0 DoJE=T BraDBF=F KetDBF=T FulRan=T
         wScrn=  0.000000 ICntrl=     500 IOpCl=  0 I1Cent=   200000004 NGrid=           0
         NMat0=    1 NMatS0=      1 NMatT0=    0 NMatD0=    1 NMtDS0=    0 NMtDT0=    0
 Petite list used in FoFCou.
 Requested convergence on RMS density matrix=1.00D-08 within 128 cycles.
 Requested convergence on MAX density matrix=1.00D-06.
 Requested convergence on             energy=1.00D-06.
 No special actions if energy rises.
 Defaulting to unpruned grid for atomic number  53.
 Defaulting to unpruned grid for atomic number  53.
 Defaulting to unpruned grid for atomic number  53.
 Defaulting to unpruned grid for atomic number  53.
 Defaulting to unpruned grid for atomic number  53.
 Defaulting to unpruned grid for atomic number  53.
 Defaulting to unpruned grid for atomic number  53.
 Defaulting to unpruned grid for atomic number  53.
 SCF Done:  E(RB3LYP) =  -7043.47005425     A.U. after   14 cycles
            NFock= 14  Conv=0.52D-08     -V/T= 1.9988
 PrsmSu:  requested number of processors reduced to:   4 ShMem   1 Linda.
   1 Symmetry operations used in ECPInt.
 ECPInt:  NShTT=    3486 NPrTT=   11181 LenC2=    3462 LenP2D=    9533.
 LDataN:  DoStor=T MaxTD1= 7 Len=  274
 Calling FoFJK, ICntrl=      2127 FMM=F ISym2X=0 I1Cent= 0 IOpClX= 0 NMat=1 NMatS=1 NMatT=0.
 Defaulting to unpruned grid for atomic number  53.
 Defaulting to unpruned grid for atomic number  53.
 Defaulting to unpruned grid for atomic number  53.
 Defaulting to unpruned grid for atomic number  53.
 Defaulting to unpruned grid for atomic number  53.
 Defaulting to unpruned grid for atomic number  53.
 Defaulting to unpruned grid for atomic number  53.
 Defaulting to unpruned grid for atomic number  53.
 ***** Axes restored to original set *****
 -------------------------------------------------------------------
 Center     Atomic                   Forces (Hartrees/Bohr)
 Number     Number              X              Y              Z
 -------------------------------------------------------------------
      1        6           0.008536662    0.003057066    0.003650361
      2        1          -0.001091719   -0.001413628   -0.000094966
      3        1          -0.001431180   -0.000966550   -0.001142247
      4        1          -0.000857938   -0.001117528    0.000800868
      5        6          -0.022886690    0.014566869   -0.018329445
      6        8           0.012456285   -0.012701970    0.008023712
      7       53           0.005274580   -0.001424260    0.007091717
 -------------------------------------------------------------------
 Cartesian Forces:  Max     0.022886690 RMS     0.008833492

 GradGradGradGradGradGradGradGradGradGradGradGradGradGradGradGradGradGrad
 Berny optimization.
 Using GEDIIS/GDIIS optimizer.
 FormGI is forming the generalized inverse of G from B-inverse, IUseBI=4.
 Internal  Forces:  Max     0.019168253 RMS     0.005293686
 Search for a local minimum.
 Step number   2 out of a maximum of   31
 All quantities printed in internal units (Hartrees-Bohrs-Radians)
 Mixed Optimization -- RFO/linear search
 Update second derivatives using D2CorX and points    1    2
 DE= -8.57D-03 DEPred=-6.97D-03 R= 1.23D+00
 TightC=F SS=  1.41D+00  RLast= 1.88D-01 DXNew= 5.0454D-01 5.6300D-01
 Trust test= 1.23D+00 RLast= 1.88D-01 DXMaxT set to 5.05D-01
 ITU=  1  0
 Use linear search instead of GDIIS.
     Eigenvalues ---    0.00236   0.00262   0.06987   0.07495   0.12793
     Eigenvalues ---    0.15908   0.16000   0.16255   0.22628   0.25002
     Eigenvalues ---    0.29397   0.37168   0.37230   0.38245   0.70194
 RFO step:  Lambda=-3.79959468D-03 EMin= 2.36254575D-03
 Quartic linear search produced a step of  0.25927.
 Iteration  1 RMS(Cart)=  0.08519575 RMS(Int)=  0.03273673
 Iteration  2 RMS(Cart)=  0.02705731 RMS(Int)=  0.01410502
 Iteration  3 RMS(Cart)=  0.00084668 RMS(Int)=  0.01407342
 Iteration  4 RMS(Cart)=  0.00002325 RMS(Int)=  0.01407341
 Iteration  5 RMS(Cart)=  0.00000066 RMS(Int)=  0.01407341
 Variable       Old X    -DE/DX   Delta X   Delta X   Delta X     New X
                                 (Linear)    (Quad)   (Total)
    R1        2.05386  -0.00025   0.00826  -0.00140   0.00686   2.06072
    R2        2.05206   0.00112   0.00779   0.00326   0.01105   2.06310
    R3        2.05735   0.00155   0.00916   0.00461   0.01377   2.07113
    R4        2.84466  -0.00105  -0.01699  -0.00250  -0.01949   2.82517
    R5        2.27176  -0.01917  -0.02755  -0.03110  -0.05865   2.21311
    R6        4.01209   0.00864   0.01132   0.07224   0.08356   4.09565
    A1        1.93700  -0.00049   0.00684   0.00105   0.00749   1.94449
    A2        1.89961  -0.00133  -0.00286  -0.01426  -0.01698   1.88263
    A3        1.94222   0.00207   0.00819   0.01476   0.02280   1.96502
    A4        1.91119  -0.00095   0.00014  -0.00985  -0.00985   1.90134
    A5        1.88790   0.00156  -0.00589   0.01634   0.01015   1.89805
    A6        1.88508  -0.00089  -0.00663  -0.00852  -0.01515   1.86993
    A7        2.13045   0.00756   0.00935   0.04512   0.01951   2.14997
    A8        2.05202  -0.00809  -0.01099  -0.03013  -0.07680   1.97522
    A9        2.09922   0.00062   0.00125   0.01160  -0.02618   2.07304
    D1        2.64599  -0.00026   0.00726  -0.25687  -0.24456   2.40143
    D2       -0.55417   0.00150  -0.00793   0.26460   0.25204  -0.30213
    D3        0.51392  -0.00200  -0.00251  -0.27841  -0.27617   0.23775
    D4       -2.68624  -0.00023  -0.01769   0.24306   0.22043  -2.46581
    D5       -1.55315  -0.00123   0.00458  -0.27098  -0.26168  -1.81483
    D6        1.52988   0.00053  -0.01061   0.25049   0.23492   1.76480
         Item               Value     Threshold  Converged?
 Maximum Force            0.019168     0.000450     NO 
 RMS     Force            0.005294     0.000300     NO 
 Maximum Displacement     0.315661     0.001800     NO 
 RMS     Displacement     0.107706     0.001200     NO 
 Predicted change in Energy=-2.411548D-03
 GradGradGradGradGradGradGradGradGradGradGradGradGradGradGradGradGradGrad

                          Input orientation:                          
 ---------------------------------------------------------------------
 Center     Atomic      Atomic             Coordinates (Angstroms)
 Number     Number       Type             X           Y           Z
 ---------------------------------------------------------------------
      1          6           0       -1.555479   -1.708949    0.178215
      2          1           0       -0.619795   -2.212489    0.423375
      3          1           0       -1.628452   -1.502142   -0.891280
      4          1           0       -2.379550   -2.370116    0.469703
      5          6           0       -1.731908   -0.427942    0.928522
      6          8           0       -2.140749    0.552559    0.435565
      7         53           0       -0.430640   -0.264048    2.653963
 ---------------------------------------------------------------------
                    Distance matrix (angstroms):
                    1          2          3          4          5
     1  C    0.000000
     2  H    1.090487   0.000000
     3  H    1.091748   1.802858   0.000000
     4  H    1.095993   1.767408   1.780393   0.000000
     5  C    1.495013   2.162539   2.115723   2.098093   0.000000
     6  O    2.350147   3.155779   2.498952   2.932613   1.171128
     7  I    3.079339   2.967781   3.941620   3.606212   2.167327
                    6          7
     6  O    0.000000
     7  I    2.917637   0.000000
 Stoichiometry    C2H3IO
 Framework group  C1[X(C2H3IO)]
 Deg. of freedom    15
 Full point group                 C1      NOp   1
 Largest Abelian subgroup         C1      NOp   1
 Largest concise Abelian subgroup C1      NOp   1
                         Standard orientation:                         
 ---------------------------------------------------------------------
 Center     Atomic      Atomic             Coordinates (Angstroms)
 Number     Number       Type             X           Y           Z
 ---------------------------------------------------------------------
      1          6           0       -2.113443   -1.037598   -0.033196
      2          1           0       -1.517975   -1.816291   -0.510915
      3          1           0       -3.018461   -0.821233   -0.604197
      4          1           0       -2.398296   -1.395538    0.962765
      5          6           0       -1.349949    0.233580    0.157198
      6          8           0       -1.805922    1.292284   -0.049621
      7         53           0        0.795518   -0.027945   -0.003674
 ---------------------------------------------------------------------
 Rotational constants (GHZ):     10.5965102      2.2520301      1.8838236
 Basis read from rwf:  (5D, 7F)
 Pseudo-potential data read from rwf file.
 There are   279 symmetry adapted cartesian basis functions of A   symmetry.
 There are   243 symmetry adapted basis functions of A   symmetry.
   243 basis functions,   390 primitive gaussians,   279 cartesian basis functions
    38 alpha electrons       38 beta electrons
       nuclear repulsion energy       297.3433793332 Hartrees.
 NAtoms=    7 NActive=    7 NUniq=    7 SFac= 1.00D+00 NAtFMM=   60 NAOKFM=F Big=F
 Integral buffers will be    131072 words long.
 Raffenetti 2 integral format.
 Two-electron integral symmetry is turned on.
 One-electron integrals computed using PRISM.
 PrsmSu:  requested number of processors reduced to:   4 ShMem   1 Linda.
   1 Symmetry operations used in ECPInt.
 ECPInt:  NShTT=    3486 NPrTT=   11181 LenC2=    3464 LenP2D=    9540.
 LDataN:  DoStor=T MaxTD1= 6 Len=  172
 NBasis=   243 RedAO= T EigKep=  3.57D-05  NBF=   243
 NBsUse=   243 1.00D-06 EigRej= -1.00D+00 NBFU=   243
 Defaulting to unpruned grid for atomic number  53.
 Initial guess from the checkpoint file:  "/lustre/SCRATCH5/gau/mlawal/846018.sched01/Gau-19653.chk"
 B after Tr=     0.000000    0.000000    0.000000
         Rot=    0.999981   -0.003004    0.001881   -0.005023 Ang=  -0.70 deg.
 ExpMin= 2.53D-02 ExpMax= 1.53D+04 ExpMxC= 1.44D+04 IAcc=3 IRadAn=         5 AccDes= 0.00D+00
 Harris functional with IExCor=  402 and IRadAn=       5 diagonalized for initial guess.
 HarFok:  IExCor=  402 AccDes= 0.00D+00 IRadAn=         5 IDoV= 1 UseB2=F ITyADJ=14
 ICtDFT=  3500011 ScaDFX=  1.000000  1.000000  1.000000  1.000000
 Defaulting to unpruned grid for atomic number  53.
 Defaulting to unpruned grid for atomic number  53.
 Defaulting to unpruned grid for atomic number  53.
 Defaulting to unpruned grid for atomic number  53.
 Defaulting to unpruned grid for atomic number  53.
 Defaulting to unpruned grid for atomic number  53.
 Defaulting to unpruned grid for atomic number  53.
 Defaulting to unpruned grid for atomic number  53.
 FoFCou: FMM=F IPFlag=           0 FMFlag=      100000 FMFlg1=           0
         NFxFlg=           0 DoJE=T BraDBF=F KetDBF=T FulRan=T
         wScrn=  0.000000 ICntrl=     500 IOpCl=  0 I1Cent=   200000004 NGrid=           0
         NMat0=    1 NMatS0=      1 NMatT0=    0 NMatD0=    1 NMtDS0=    0 NMtDT0=    0
 Petite list used in FoFCou.
 Requested convergence on RMS density matrix=1.00D-08 within 128 cycles.
 Requested convergence on MAX density matrix=1.00D-06.
 Requested convergence on             energy=1.00D-06.
 No special actions if energy rises.
 Defaulting to unpruned grid for atomic number  53.
 Defaulting to unpruned grid for atomic number  53.
 Defaulting to unpruned grid for atomic number  53.
 Defaulting to unpruned grid for atomic number  53.
 Defaulting to unpruned grid for atomic number  53.
 Defaulting to unpruned grid for atomic number  53.
 Defaulting to unpruned grid for atomic number  53.
 Defaulting to unpruned grid for atomic number  53.
 SCF Done:  E(RB3LYP) =  -7043.46179833     A.U. after   14 cycles
            NFock= 14  Conv=0.95D-08     -V/T= 1.9988
 PrsmSu:  requested number of processors reduced to:   4 ShMem   1 Linda.
   1 Symmetry operations used in ECPInt.
 ECPInt:  NShTT=    3486 NPrTT=   11181 LenC2=    3464 LenP2D=    9540.
 LDataN:  DoStor=T MaxTD1= 7 Len=  274
 Calling FoFJK, ICntrl=      2127 FMM=F ISym2X=0 I1Cent= 0 IOpClX= 0 NMat=1 NMatS=1 NMatT=0.
 Defaulting to unpruned grid for atomic number  53.
 Defaulting to unpruned grid for atomic number  53.
 Defaulting to unpruned grid for atomic number  53.
 Defaulting to unpruned grid for atomic number  53.
 Defaulting to unpruned grid for atomic number  53.
 Defaulting to unpruned grid for atomic number  53.
 Defaulting to unpruned grid for atomic number  53.
 Defaulting to unpruned grid for atomic number  53.
 ***** Axes restored to original set *****
 -------------------------------------------------------------------
 Center     Atomic                   Forces (Hartrees/Bohr)
 Number     Number              X              Y              Z
 -------------------------------------------------------------------
      1        6          -0.013728904   -0.014100234    0.003160387
      2        1          -0.003289341    0.003287553    0.000516607
      3        1          -0.000864698   -0.000468174    0.002914885
      4        1           0.002429853   -0.002679547   -0.002719072
      5        6           0.047575409   -0.005430504   -0.013258339
      6        8          -0.027944625    0.021391523   -0.001910774
      7       53          -0.004177695   -0.002000617    0.011296305
 -------------------------------------------------------------------
 Cartesian Forces:  Max     0.047575409 RMS     0.014324519

 GradGradGradGradGradGradGradGradGradGradGradGradGradGradGradGradGradGrad
 Berny optimization.
 Using GEDIIS/GDIIS optimizer.
 FormGI is forming the generalized inverse of G from B-inverse, IUseBI=4.
 Internal  Forces:  Max     0.028482643 RMS     0.010218394
 Search for a local minimum.
 Step number   3 out of a maximum of   31
 All quantities printed in internal units (Hartrees-Bohrs-Radians)
 Mixed Optimization -- RFO/linear search
 Update second derivatives using D2CorX and points    1    3    2
 DE=  8.26D-03 DEPred=-2.41D-03 R=-3.42D+00
 Trust test=-3.42D+00 RLast= 6.26D-01 DXMaxT set to 2.52D-01
 ITU= -1  1  0
 Use linear search instead of GDIIS.
 Energy rises -- skip Quadratic/GDIIS search.
 Quartic linear search produced a step of -0.82815.
 Iteration  1 RMS(Cart)=  0.09255104 RMS(Int)=  0.01440540
 Iteration  2 RMS(Cart)=  0.01320327 RMS(Int)=  0.00195937
 Iteration  3 RMS(Cart)=  0.00012455 RMS(Int)=  0.00195587
 Iteration  4 RMS(Cart)=  0.00000004 RMS(Int)=  0.00195587
 Variable       Old X    -DE/DX   Delta X   Delta X   Delta X     New X
                                 (Linear)    (Quad)   (Total)
    R1        2.06072  -0.00421  -0.00568   0.00000  -0.00568   2.05504
    R2        2.06310  -0.00289  -0.00915   0.00000  -0.00915   2.05396
    R3        2.07113  -0.00094  -0.01141   0.00000  -0.01141   2.05972
    R4        2.82517   0.00821   0.01614   0.00000   0.01614   2.84131
    R5        2.21311   0.02848   0.04857   0.00000   0.04857   2.26168
    R6        4.09565   0.00632  -0.06920   0.00000  -0.06920   4.02645
    A1        1.94449   0.00144  -0.00620   0.00000  -0.00615   1.93834
    A2        1.88263  -0.00158   0.01406   0.00000   0.01405   1.89668
    A3        1.96502  -0.00412  -0.01888   0.00000  -0.01886   1.94616
    A4        1.90134  -0.00219   0.00816   0.00000   0.00816   1.90950
    A5        1.89805  -0.00062  -0.00841   0.00000  -0.00838   1.88967
    A6        1.86993   0.00733   0.01254   0.00000   0.01254   1.88247
    A7        2.14997   0.00985  -0.01616   0.00000  -0.01099   2.13898
    A8        1.97522   0.00530   0.06360   0.00000   0.06878   2.04400
    A9        2.07304  -0.00394   0.02168   0.00000   0.02686   2.09989
    D1        2.40143   0.01214   0.20253   0.00000   0.20246   2.60390
    D2       -0.30213  -0.01398  -0.20873   0.00000  -0.20872  -0.51084
    D3        0.23775   0.01358   0.22871   0.00000   0.22869   0.46644
    D4       -2.46581  -0.01254  -0.18255   0.00000  -0.18249  -2.64830
    D5       -1.81483   0.01251   0.21671   0.00000   0.21667  -1.59815
    D6        1.76480  -0.01361  -0.19455   0.00000  -0.19450   1.57030
         Item               Value     Threshold  Converged?
 Maximum Force            0.028483     0.000450     NO 
 RMS     Force            0.010218     0.000300     NO 
 Maximum Displacement     0.263085     0.001800     NO 
 RMS     Displacement     0.090199     0.001200     NO 
 Predicted change in Energy=-5.704458D-04
 GradGradGradGradGradGradGradGradGradGradGradGradGradGradGradGradGradGrad

                          Input orientation:                          
 ---------------------------------------------------------------------
 Center     Atomic      Atomic             Coordinates (Angstroms)
 Number     Number       Type             X           Y           Z
 ---------------------------------------------------------------------
      1          6           0       -1.544153   -1.718846    0.162588
      2          1           0       -0.612289   -2.245180    0.355495
      3          1           0       -1.673241   -1.529885   -0.899954
      4          1           0       -2.371200   -2.329331    0.524951
      5          6           0       -1.592689   -0.401108    0.885005
      6          8           0       -2.184999    0.546645    0.456823
      7         53           0       -0.508002   -0.255420    2.713156
 ---------------------------------------------------------------------
                    Distance matrix (angstroms):
                    1          2          3          4          5
     1  C    0.000000
     2  H    1.087480   0.000000
     3  H    1.086907   1.792602   0.000000
     4  H    1.089956   1.769057   1.776687   0.000000
     5  C    1.503555   2.154569   2.113458   2.110394   0.000000
     6  O    2.372701   3.205928   2.532730   2.882803   1.196831
     7  I    3.117791   3.086841   4.004574   3.544130   2.130706
                    6          7
     6  O    0.000000
     7  I    2.923468   0.000000
 Stoichiometry    C2H3IO
 Framework group  C1[X(C2H3IO)]
 Deg. of freedom    15
 Full point group                 C1      NOp   1
 Largest Abelian subgroup         C1      NOp   1
 Largest concise Abelian subgroup C1      NOp   1
                         Standard orientation:                         
 ---------------------------------------------------------------------
 Center     Atomic      Atomic             Coordinates (Angstroms)
 Number     Number       Type             X           Y           Z
 ---------------------------------------------------------------------
      1          6           0       -2.155073   -1.031073   -0.006170
      2          1           0       -1.645151   -1.846942   -0.513071
      3          1           0       -3.101156   -0.801517   -0.489489
      4          1           0       -2.338100   -1.322843    1.027936
      5          6           0       -1.317957    0.217807    0.008391
      6          8           0       -1.797131    1.314470   -0.002833
      7         53           0        0.798106   -0.031412   -0.000303
 ---------------------------------------------------------------------
 Rotational constants (GHZ):     10.5427328      2.2384717      1.8679021
 Basis read from rwf:  (5D, 7F)
 Pseudo-potential data read from rwf file.
 There are   279 symmetry adapted cartesian basis functions of A   symmetry.
 There are   243 symmetry adapted basis functions of A   symmetry.
   243 basis functions,   390 primitive gaussians,   279 cartesian basis functions
    38 alpha electrons       38 beta electrons
       nuclear repulsion energy       296.8881093711 Hartrees.
 NAtoms=    7 NActive=    7 NUniq=    7 SFac= 1.00D+00 NAtFMM=   60 NAOKFM=F Big=F
 Integral buffers will be    131072 words long.
 Raffenetti 2 integral format.
 Two-electron integral symmetry is turned on.
 One-electron integrals computed using PRISM.
 PrsmSu:  requested number of processors reduced to:   4 ShMem   1 Linda.
   1 Symmetry operations used in ECPInt.
 ECPInt:  NShTT=    3486 NPrTT=   11181 LenC2=    3462 LenP2D=    9532.
 LDataN:  DoStor=T MaxTD1= 6 Len=  172
 NBasis=   243 RedAO= T EigKep=  3.59D-05  NBF=   243
 NBsUse=   243 1.00D-06 EigRej= -1.00D+00 NBFU=   243
 Defaulting to unpruned grid for atomic number  53.
 Lowest energy guess from the checkpoint file:  "/lustre/SCRATCH5/gau/mlawal/846018.sched01/Gau-19653.chk"
 B after Tr=     0.000000    0.000000    0.000000
         Rot=    0.999999   -0.000655    0.000270   -0.000722 Ang=  -0.12 deg.
 B after Tr=     0.000000    0.000000    0.000000
         Rot=    0.999987    0.002320   -0.001620    0.004300 Ang=   0.59 deg.
 Requested convergence on RMS density matrix=1.00D-08 within 128 cycles.
 Requested convergence on MAX density matrix=1.00D-06.
 Requested convergence on             energy=1.00D-06.
 No special actions if energy rises.
 Defaulting to unpruned grid for atomic number  53.
 Defaulting to unpruned grid for atomic number  53.
 Defaulting to unpruned grid for atomic number  53.
 Defaulting to unpruned grid for atomic number  53.
 Defaulting to unpruned grid for atomic number  53.
 Defaulting to unpruned grid for atomic number  53.
 Defaulting to unpruned grid for atomic number  53.
 Defaulting to unpruned grid for atomic number  53.
 SCF Done:  E(RB3LYP) =  -7043.47041020     A.U. after   10 cycles
            NFock= 10  Conv=0.23D-08     -V/T= 1.9988
 PrsmSu:  requested number of processors reduced to:   4 ShMem   1 Linda.
   1 Symmetry operations used in ECPInt.
 ECPInt:  NShTT=    3486 NPrTT=   11181 LenC2=    3462 LenP2D=    9532.
 LDataN:  DoStor=T MaxTD1= 7 Len=  274
 Calling FoFJK, ICntrl=      2127 FMM=F ISym2X=0 I1Cent= 0 IOpClX= 0 NMat=1 NMatS=1 NMatT=0.
 Defaulting to unpruned grid for atomic number  53.
 Defaulting to unpruned grid for atomic number  53.
 Defaulting to unpruned grid for atomic number  53.
 Defaulting to unpruned grid for atomic number  53.
 Defaulting to unpruned grid for atomic number  53.
 Defaulting to unpruned grid for atomic number  53.
 Defaulting to unpruned grid for atomic number  53.
 Defaulting to unpruned grid for atomic number  53.
 ***** Axes restored to original set *****
 -------------------------------------------------------------------
 Center     Atomic                   Forces (Hartrees/Bohr)
 Number     Number              X              Y              Z
 -------------------------------------------------------------------
      1        6           0.004706144    0.000864494    0.004184244
      2        1          -0.001416346   -0.000595926    0.000028248
      3        1          -0.001302430   -0.000876243   -0.000435829
      4        1          -0.000339249   -0.001394402    0.000184618
      5        6          -0.010260335    0.012629001   -0.018397642
      6        8           0.005401980   -0.008871388    0.007466230
      7       53           0.003210237   -0.001755536    0.006970131
 -------------------------------------------------------------------
 Cartesian Forces:  Max     0.018397642 RMS     0.006459949

 GradGradGradGradGradGradGradGradGradGradGradGradGradGradGradGradGradGrad
 Berny optimization.
 Using GEDIIS/GDIIS optimizer.
 FormGI is forming the generalized inverse of G from B-inverse, IUseBI=4.
 Internal  Forces:  Max     0.012356080 RMS     0.003924538
 Search for a local minimum.
 Step number   4 out of a maximum of   31
 All quantities printed in internal units (Hartrees-Bohrs-Radians)
 Mixed Optimization -- RFO/linear search
 Update second derivatives using D2CorX and points    1    3    2    4
 ITU=  0 -1  1  0
 Use linear search instead of GDIIS.
     Eigenvalues ---    0.00236   0.04769   0.06882   0.07529   0.09524
     Eigenvalues ---    0.15866   0.16028   0.16473   0.21281   0.24933
     Eigenvalues ---    0.28665   0.37168   0.37239   0.37686   0.72753
 RFO step:  Lambda=-2.64745446D-03 EMin= 2.36384754D-03
 Quartic linear search produced a step of  0.00246.
 Iteration  1 RMS(Cart)=  0.05909066 RMS(Int)=  0.00249357
 Iteration  2 RMS(Cart)=  0.00284913 RMS(Int)=  0.00035952
 Iteration  3 RMS(Cart)=  0.00000344 RMS(Int)=  0.00035951
 Iteration  4 RMS(Cart)=  0.00000000 RMS(Int)=  0.00035951
 Variable       Old X    -DE/DX   Delta X   Delta X   Delta X     New X
                                 (Linear)    (Quad)   (Total)
    R1        2.05504  -0.00091   0.00000  -0.00549  -0.00548   2.04956
    R2        2.05396   0.00041   0.00000   0.00214   0.00215   2.05610
    R3        2.05972   0.00110   0.00001   0.00464   0.00465   2.06437
    R4        2.84131  -0.00008  -0.00001   0.00046   0.00045   2.84175
    R5        2.26168  -0.01236  -0.00002  -0.03711  -0.03714   2.22454
    R6        4.02645   0.00748   0.00004   0.11013   0.11016   4.13661
    A1        1.93834  -0.00016   0.00000   0.00376   0.00317   1.94151
    A2        1.89668  -0.00135  -0.00001  -0.02332  -0.02328   1.87341
    A3        1.94616   0.00099   0.00001   0.01903   0.01873   1.96489
    A4        1.90950  -0.00115   0.00000  -0.01792  -0.01788   1.89162
    A5        1.88967   0.00118   0.00000   0.02508   0.02476   1.91444
    A6        1.88247   0.00047  -0.00001  -0.00757  -0.00753   1.87494
    A7        2.13898   0.00657   0.00002   0.05549   0.05472   2.19370
    A8        2.04400  -0.00701  -0.00002  -0.05913  -0.05995   1.98405
    A9        2.09989   0.00050   0.00000   0.00537   0.00458   2.10447
    D1        2.60390   0.00180  -0.00010  -0.00830  -0.00816   2.59573
    D2       -0.51084  -0.00106   0.00011  -0.08265  -0.08228  -0.59312
    D3        0.46644   0.00057  -0.00012  -0.04220  -0.04258   0.42386
    D4       -2.64830  -0.00229   0.00009  -0.11656  -0.11670  -2.76500
    D5       -1.59815   0.00103  -0.00011  -0.03045  -0.03057  -1.62872
    D6        1.57030  -0.00183   0.00010  -0.10480  -0.10469   1.46561
         Item               Value     Threshold  Converged?
 Maximum Force            0.012356     0.000450     NO 
 RMS     Force            0.003925     0.000300     NO 
 Maximum Displacement     0.104871     0.001800     NO 
 RMS     Displacement     0.060215     0.001200     NO 
 Predicted change in Energy=-1.410696D-03
 GradGradGradGradGradGradGradGradGradGradGradGradGradGradGradGradGradGrad

                          Input orientation:                          
 ---------------------------------------------------------------------
 Center     Atomic      Atomic             Coordinates (Angstroms)
 Number     Number       Type             X           Y           Z
 ---------------------------------------------------------------------
      1          6           0       -1.533585   -1.705691    0.155895
      2          1           0       -0.597456   -2.223585    0.334102
      3          1           0       -1.719664   -1.582998   -0.909075
      4          1           0       -2.331682   -2.321862    0.576311
      5          6           0       -1.591636   -0.366717    0.837927
      6          8           0       -2.173824    0.578643    0.446645
      7         53           0       -0.538725   -0.310916    2.756258
 ---------------------------------------------------------------------
                    Distance matrix (angstroms):
                    1          2          3          4          5
     1  C    0.000000
     2  H    1.084578   0.000000
     3  H    1.088044   1.793096   0.000000
     4  H    1.092417   1.753814   1.768293   0.000000
     5  C    1.503792   2.165686   2.132545   2.106823   0.000000
     6  O    2.390109   3.217154   2.591704   2.907690   1.177178
     7  I    3.114006   3.086842   4.055549   3.465656   2.189002
                    6          7
     6  O    0.000000
     7  I    2.966340   0.000000
 Stoichiometry    C2H3IO
 Framework group  C1[X(C2H3IO)]
 Deg. of freedom    15
 Full point group                 C1      NOp   1
 Largest Abelian subgroup         C1      NOp   1
 Largest concise Abelian subgroup C1      NOp   1
                         Standard orientation:                         
 ---------------------------------------------------------------------
 Center     Atomic      Atomic             Coordinates (Angstroms)
 Number     Number       Type             X           Y           Z
 ---------------------------------------------------------------------
      1          6           0       -2.132311   -1.059296   -0.005518
      2          1           0       -1.625034   -1.848667   -0.549461
      3          1           0       -3.136168   -0.896329   -0.392238
      4          1           0       -2.212137   -1.380647    1.035509
      5          6           0       -1.367487    0.235396   -0.019798
      6          8           0       -1.840787    1.312942    0.005298
      7         53           0        0.805631   -0.027066    0.000296
 ---------------------------------------------------------------------
 Rotational constants (GHZ):     10.3312533      2.1990589      1.8334543
 Basis read from rwf:  (5D, 7F)
 Pseudo-potential data read from rwf file.
 There are   279 symmetry adapted cartesian basis functions of A   symmetry.
 There are   243 symmetry adapted basis functions of A   symmetry.
   243 basis functions,   390 primitive gaussians,   279 cartesian basis functions
    38 alpha electrons       38 beta electrons
       nuclear repulsion energy       294.0351438946 Hartrees.
 NAtoms=    7 NActive=    7 NUniq=    7 SFac= 1.00D+00 NAtFMM=   60 NAOKFM=F Big=F
 Integral buffers will be    131072 words long.
 Raffenetti 2 integral format.
 Two-electron integral symmetry is turned on.
 One-electron integrals computed using PRISM.
 PrsmSu:  requested number of processors reduced to:   4 ShMem   1 Linda.
   1 Symmetry operations used in ECPInt.
 ECPInt:  NShTT=    3486 NPrTT=   11181 LenC2=    3460 LenP2D=    9521.
 LDataN:  DoStor=T MaxTD1= 6 Len=  172
 NBasis=   243 RedAO= T EigKep=  3.61D-05  NBF=   243
 NBsUse=   243 1.00D-06 EigRej= -1.00D+00 NBFU=   243
 Defaulting to unpruned grid for atomic number  53.
 Initial guess from the checkpoint file:  "/lustre/SCRATCH5/gau/mlawal/846018.sched01/Gau-19653.chk"
 B after Tr=     0.000000    0.000000    0.000000
         Rot=    0.999981   -0.000587   -0.001145   -0.005994 Ang=  -0.70 deg.
 ExpMin= 2.53D-02 ExpMax= 1.53D+04 ExpMxC= 1.44D+04 IAcc=3 IRadAn=         5 AccDes= 0.00D+00
 Harris functional with IExCor=  402 and IRadAn=       5 diagonalized for initial guess.
 HarFok:  IExCor=  402 AccDes= 0.00D+00 IRadAn=         5 IDoV= 1 UseB2=F ITyADJ=14
 ICtDFT=  3500011 ScaDFX=  1.000000  1.000000  1.000000  1.000000
 Defaulting to unpruned grid for atomic number  53.
 Defaulting to unpruned grid for atomic number  53.
 Defaulting to unpruned grid for atomic number  53.
 Defaulting to unpruned grid for atomic number  53.
 Defaulting to unpruned grid for atomic number  53.
 Defaulting to unpruned grid for atomic number  53.
 Defaulting to unpruned grid for atomic number  53.
 Defaulting to unpruned grid for atomic number  53.
 FoFCou: FMM=F IPFlag=           0 FMFlag=      100000 FMFlg1=           0
         NFxFlg=           0 DoJE=T BraDBF=F KetDBF=T FulRan=T
         wScrn=  0.000000 ICntrl=     500 IOpCl=  0 I1Cent=   200000004 NGrid=           0
         NMat0=    1 NMatS0=      1 NMatT0=    0 NMatD0=    1 NMtDS0=    0 NMtDT0=    0
 Petite list used in FoFCou.
 Requested convergence on RMS density matrix=1.00D-08 within 128 cycles.
 Requested convergence on MAX density matrix=1.00D-06.
 Requested convergence on             energy=1.00D-06.
 No special actions if energy rises.
 Defaulting to unpruned grid for atomic number  53.
 Defaulting to unpruned grid for atomic number  53.
 Defaulting to unpruned grid for atomic number  53.
 Defaulting to unpruned grid for atomic number  53.
 Defaulting to unpruned grid for atomic number  53.
 Defaulting to unpruned grid for atomic number  53.
 Defaulting to unpruned grid for atomic number  53.
 Defaulting to unpruned grid for atomic number  53.
 SCF Done:  E(RB3LYP) =  -7043.47135348     A.U. after   14 cycles
            NFock= 14  Conv=0.94D-08     -V/T= 1.9988
 PrsmSu:  requested number of processors reduced to:   4 ShMem   1 Linda.
   1 Symmetry operations used in ECPInt.
 ECPInt:  NShTT=    3486 NPrTT=   11181 LenC2=    3460 LenP2D=    9521.
 LDataN:  DoStor=T MaxTD1= 7 Len=  274
 Calling FoFJK, ICntrl=      2127 FMM=F ISym2X=0 I1Cent= 0 IOpClX= 0 NMat=1 NMatS=1 NMatT=0.
 Defaulting to unpruned grid for atomic number  53.
 Defaulting to unpruned grid for atomic number  53.
 Defaulting to unpruned grid for atomic number  53.
 Defaulting to unpruned grid for atomic number  53.
 Defaulting to unpruned grid for atomic number  53.
 Defaulting to unpruned grid for atomic number  53.
 Defaulting to unpruned grid for atomic number  53.
 Defaulting to unpruned grid for atomic number  53.
 ***** Axes restored to original set *****
 -------------------------------------------------------------------
 Center     Atomic                   Forces (Hartrees/Bohr)
 Number     Number              X              Y              Z
 -------------------------------------------------------------------
      1        6          -0.001096027    0.000232268   -0.000340374
      2        1           0.001115284    0.001375049    0.000729504
      3        1          -0.000245422    0.000753041   -0.000246766
      4        1           0.000036120    0.000437496    0.000786044
      5        6           0.005115578   -0.010573524    0.005151202
      6        8          -0.003704542    0.008065671   -0.003669195
      7       53          -0.001220991   -0.000290001   -0.002410416
 -------------------------------------------------------------------
 Cartesian Forces:  Max     0.010573524 RMS     0.003590111

 GradGradGradGradGradGradGradGradGradGradGradGradGradGradGradGradGradGrad
 Berny optimization.
 Using GEDIIS/GDIIS optimizer.
 FormGI is forming the generalized inverse of G from B-inverse, IUseBI=4.
 Internal  Forces:  Max     0.009537658 RMS     0.002391128
 Search for a local minimum.
 Step number   5 out of a maximum of   31
 All quantities printed in internal units (Hartrees-Bohrs-Radians)
 Mixed Optimization -- RFO/linear search
 Update second derivatives using D2CorX and points    1    2    4    5
 DE= -9.43D-04 DEPred=-1.41D-03 R= 6.69D-01
 TightC=F SS=  1.41D+00  RLast= 2.37D-01 DXNew= 4.2426D-01 7.1142D-01
 Trust test= 6.69D-01 RLast= 2.37D-01 DXMaxT set to 4.24D-01
 ITU=  1  0 -1  1  0
 Use linear search instead of GDIIS.
     Eigenvalues ---    0.00228   0.04964   0.06701   0.07490   0.10902
     Eigenvalues ---    0.15861   0.16329   0.16614   0.20059   0.24954
     Eigenvalues ---    0.27989   0.36974   0.37183   0.37245   0.80717
 RFO step:  Lambda=-2.58551735D-04 EMin= 2.27928561D-03
 Quartic linear search produced a step of -0.21463.
 Iteration  1 RMS(Cart)=  0.04743022 RMS(Int)=  0.00103384
 Iteration  2 RMS(Cart)=  0.00106503 RMS(Int)=  0.00005125
 Iteration  3 RMS(Cart)=  0.00000046 RMS(Int)=  0.00005125
 Variable       Old X    -DE/DX   Delta X   Delta X   Delta X     New X
                                 (Linear)    (Quad)   (Total)
    R1        2.04956   0.00043   0.00118   0.00065   0.00183   2.05139
    R2        2.05610   0.00036  -0.00046   0.00158   0.00112   2.05723
    R3        2.06437   0.00004  -0.00100   0.00152   0.00052   2.06489
    R4        2.84175  -0.00291  -0.00010  -0.00897  -0.00907   2.83269
    R5        2.22454   0.00954   0.00797   0.00234   0.01031   2.23485
    R6        4.13661  -0.00272  -0.02364   0.00194  -0.02170   4.11491
    A1        1.94151   0.00126  -0.00068   0.00621   0.00560   1.94712
    A2        1.87341   0.00127   0.00500   0.00157   0.00653   1.87994
    A3        1.96489  -0.00245  -0.00402  -0.00991  -0.01390   1.95099
    A4        1.89162   0.00090   0.00384   0.00373   0.00755   1.89917
    A5        1.91444  -0.00033  -0.00531   0.00134  -0.00394   1.91049
    A6        1.87494  -0.00056   0.00162  -0.00277  -0.00117   1.87377
    A7        2.19370   0.00043  -0.01174   0.01007  -0.00156   2.19213
    A8        1.98405  -0.00061   0.01287  -0.01125   0.00174   1.98579
    A9        2.10447   0.00021  -0.00098   0.00132   0.00045   2.10492
    D1        2.59573  -0.00077   0.00175  -0.10051  -0.09880   2.49693
    D2       -0.59312   0.00001   0.01766  -0.09722  -0.07960  -0.67272
    D3        0.42386  -0.00040   0.00914  -0.10246  -0.09329   0.33057
    D4       -2.76500   0.00038   0.02505  -0.09917  -0.07409  -2.83908
    D5       -1.62872  -0.00098   0.00656  -0.10606  -0.09949  -1.72821
    D6        1.46561  -0.00020   0.02247  -0.10276  -0.08029   1.38532
         Item               Value     Threshold  Converged?
 Maximum Force            0.009538     0.000450     NO 
 RMS     Force            0.002391     0.000300     NO 
 Maximum Displacement     0.093733     0.001800     NO 
 RMS     Displacement     0.047472     0.001200     NO 
 Predicted change in Energy=-2.390018D-04
 GradGradGradGradGradGradGradGradGradGradGradGradGradGradGradGradGradGrad

                          Input orientation:                          
 ---------------------------------------------------------------------
 Center     Atomic      Atomic             Coordinates (Angstroms)
 Number     Number       Type             X           Y           Z
 ---------------------------------------------------------------------
      1          6           0       -1.536075   -1.706608    0.156583
      2          1           0       -0.577547   -2.195602    0.299845
      3          1           0       -1.769266   -1.585050   -0.899815
      4          1           0       -2.302168   -2.335559    0.616477
      5          6           0       -1.586462   -0.371407    0.836057
      6          8           0       -2.129929    0.592888    0.419639
      7         53           0       -0.585126   -0.331788    2.769277
 ---------------------------------------------------------------------
                    Distance matrix (angstroms):
                    1          2          3          4          5
     1  C    0.000000
     2  H    1.085548   0.000000
     3  H    1.088637   1.797818   0.000000
     4  H    1.092695   1.759023   1.773807   0.000000
     5  C    1.498995   2.152468   2.125934   2.101986   0.000000
     6  O    2.389465   3.193731   2.571857   2.940104   1.182634
     7  I    3.101710   3.093858   4.054022   3.405566   2.177518
                    6          7
     6  O    0.000000
     7  I    2.960108   0.000000
 Stoichiometry    C2H3IO
 Framework group  C1[X(C2H3IO)]
 Deg. of freedom    15
 Full point group                 C1      NOp   1
 Largest Abelian subgroup         C1      NOp   1
 Largest concise Abelian subgroup C1      NOp   1
                         Standard orientation:                         
 ---------------------------------------------------------------------
[...]
 XXYZ=             -0.0050 YYXZ=             -0.0028 ZZXY=             -1.3585
 N-N= 2.952381713426D+02 E-N=-1.732340356267D+04  KE= 7.052083038853D+03
  Exact polarizability:  84.641  -1.226  57.076   0.000  -0.001  45.651
 Approx polarizability: 144.489 -15.539  88.817   0.000  -0.002  68.405
 PrsmSu:  requested number of processors reduced to:   4 ShMem   1 Linda.
 PrsmSu:  requested number of processors reduced to:   4 ShMem   1 Linda.
   1 Symmetry operations used in ECPInt.
 ECPInt:  NShTT=    3486 NPrTT=   11181 LenC2=    3460 LenP2D=    9524.
 LDataN:  DoStor=T MaxTD1= 8 Len=  415
 Calling FoFJK, ICntrl=    100127 FMM=F ISym2X=0 I1Cent= 0 IOpClX= 0 NMat=1 NMatS=1 NMatT=0.
 CoulSu:  requested number of processors reduced to:   4 ShMem   1 Linda.
 Defaulting to unpruned grid for atomic number  53.
 Defaulting to unpruned grid for atomic number  53.
 Defaulting to unpruned grid for atomic number  53.
 Defaulting to unpruned grid for atomic number  53.
 Defaulting to unpruned grid for atomic number  53.
 Defaulting to unpruned grid for atomic number  53.
 Defaulting to unpruned grid for atomic number  53.
 Defaulting to unpruned grid for atomic number  53.
 Full mass-weighted force constant matrix:
 Low frequencies ---  -20.5460   -7.7671   -0.0184    0.0186    0.0199   14.0401
 Low frequencies ---  107.3534  269.4452  319.0954
 Diagonal vibrational polarizability:
       17.0427832       1.9432705       0.3407175
 Harmonic frequencies (cm**-1), IR intensities (KM/Mole), Raman scattering
 activities (A**4/AMU), depolarization ratios for plane and unpolarized
 incident light, reduced masses (AMU), force constants (mDyne/A),
 and normal coordinates:
                      1                      2                      3
                      A                      A                      A
 Frequencies --    107.3354               269.4448               319.0944
 Red. masses --      1.0422                 3.2300                16.0219
 Frc consts  --      0.0071                 0.1382                 0.9612
 IR Inten    --      0.0449                 3.1600                 4.9460
  Atom  AN      X      Y      Z        X      Y      Z        X      Y      Z
     1   6     0.00   0.00   0.02     0.35   0.00   0.00     0.16  -0.13   0.00
     2   1    -0.41   0.29  -0.32     0.55   0.09   0.01     0.04  -0.19   0.00
     3   1     0.00   0.00   0.53     0.29  -0.35   0.00     0.19   0.06   0.00
     4   1     0.41  -0.29  -0.32     0.55   0.09  -0.01     0.04  -0.19   0.00
     5   6     0.00   0.00   0.01     0.04   0.16   0.00     0.40  -0.26   0.00
     6   8     0.00   0.00  -0.04    -0.07   0.11   0.00     0.77  -0.08   0.00
     7  53     0.00   0.00   0.00    -0.04  -0.03   0.00    -0.15   0.05   0.00
                      4                      5                      6
                      A                      A                      A
 Frequencies --    489.0379               580.6567               944.8563
 Red. masses --      3.0758                 3.7890                 2.7376
 Frc consts  --      0.4334                 0.7527                 1.4399
 IR Inten    --      0.1906                91.1983                66.8805
  Atom  AN      X      Y      Z        X      Y      Z        X      Y      Z
     1   6     0.00   0.00   0.02     0.10   0.24   0.00     0.01   0.26   0.00
     2   1    -0.34  -0.42   0.19    -0.22   0.10  -0.01     0.47   0.39   0.07
     3   1     0.00   0.00   0.40     0.20   0.78   0.00    -0.08  -0.28   0.00
     4   1     0.34   0.42   0.19    -0.22   0.10   0.01     0.47   0.39  -0.07
     5   6     0.00   0.00  -0.40     0.30  -0.02   0.00    -0.19  -0.16   0.00
     6   8     0.00   0.00   0.15    -0.16  -0.20   0.00     0.06  -0.13   0.00
     7  53     0.00   0.00   0.01    -0.02   0.00   0.00     0.00   0.00   0.00
                      7                      8                      9
                      A                      A                      A
 Frequencies --   1018.0934              1109.0236              1376.1681
 Red. masses --      1.5705                 2.0270                 1.2307
 Frc consts  --      0.9591                 1.4689                 1.3732
 IR Inten    --      0.4665               150.6277                26.4109
  Atom  AN      X      Y      Z        X      Y      Z        X      Y      Z
     1   6     0.00   0.00   0.16    -0.18   0.01   0.00     0.06   0.13   0.00
     2   1     0.27   0.56  -0.15     0.31   0.06   0.12    -0.25  -0.50   0.30
     3   1     0.00   0.00  -0.37    -0.31  -0.76   0.00    -0.04  -0.42   0.00
     4   1    -0.27  -0.56  -0.15     0.31   0.06  -0.12    -0.25  -0.50  -0.30
     5   6     0.00   0.00  -0.16     0.22   0.08   0.00    -0.02  -0.02   0.00
     6   8     0.00   0.00   0.03    -0.03  -0.03   0.00     0.00   0.01   0.00
     7  53     0.00   0.00   0.00     0.00   0.00   0.00     0.00   0.00   0.00
                     10                     11                     12
                      A                      A                      A
 Frequencies --   1452.8085              1462.0834              1850.1153
 Red. masses --      1.0590                 1.0452                11.8780
 Frc consts  --      1.3169                 1.3164                23.9548
 IR Inten    --      7.2932                16.0434               434.9173
  Atom  AN      X      Y      Z        X      Y      Z        X      Y      Z
     1   6    -0.06  -0.01   0.00     0.00   0.00  -0.05    -0.01  -0.05   0.00
     2   1     0.41  -0.29   0.33     0.48   0.09   0.06    -0.05  -0.19   0.10
     3   1     0.05   0.52   0.00     0.00   0.00   0.72     0.00   0.15   0.00
     4   1     0.41  -0.29  -0.33    -0.47  -0.09   0.06    -0.04  -0.19  -0.10
     5   6     0.00  -0.01   0.00     0.00   0.00  -0.02    -0.24   0.73   0.00
     6   8    -0.01   0.02   0.00     0.00   0.00   0.00     0.21  -0.49   0.00
     7  53     0.00   0.00   0.00     0.00   0.00   0.00     0.00   0.00   0.00
                     13                     14                     15
                      A                      A                      A
 Frequencies --   3047.3865              3114.4654              3138.2854
 Red. masses --      1.0325                 1.0996                 1.1069
 Frc consts  --      5.6493                 6.2841                 6.4233
 IR Inten    --      1.1870                 0.1077                 9.3161
  Atom  AN      X      Y      Z        X      Y      Z        X      Y      Z
     1   6    -0.02  -0.04   0.00     0.00   0.00   0.09    -0.08   0.05   0.00
     2   1    -0.16   0.30   0.47     0.19  -0.39  -0.56     0.10  -0.21  -0.33
     3   1     0.56  -0.11   0.00     0.00   0.00   0.01     0.80  -0.15   0.00
     4   1    -0.15   0.30  -0.47    -0.19   0.39  -0.56     0.09  -0.21   0.33
     5   6     0.00   0.00   0.00     0.00   0.00   0.00     0.00   0.00   0.00
     6   8     0.00   0.00   0.00     0.00   0.00   0.00     0.00   0.00   0.00
     7  53     0.00   0.00   0.00     0.00   0.00   0.00     0.00   0.00   0.00

 -------------------
 - Thermochemistry -
 -------------------
 Temperature   298.150 Kelvin.  Pressure   1.00000 Atm.
 Atom     1 has atomic number  6 and mass  12.00000
 Atom     2 has atomic number  1 and mass   1.00783
 Atom     3 has atomic number  1 and mass   1.00783
 Atom     4 has atomic number  1 and mass   1.00783
 Atom     5 has atomic number  6 and mass  12.00000
 Atom     6 has atomic number  8 and mass  15.99491
 Atom     7 has atomic number 53 and mass 126.90040
 Molecular mass:   169.91879 amu.
 Principal axes and moments of inertia in atomic units:
                           1         2         3
     Eigenvalues --   175.46121 809.88482 974.32355
           X            0.99853   0.05429   0.00000
           Y           -0.05429   0.99853  -0.00001
           Z            0.00000   0.00001   1.00000
 This molecule is an asymmetric top.
 Rotational symmetry number  1.
 Rotational temperatures (Kelvin)      0.49364     0.10695     0.08890
 Rotational constants (GHZ):          10.28570     2.22839     1.85230
 Zero-point vibrational energy     121294.5 (Joules/Mol)
                                   28.99008 (Kcal/Mol)
 Warning -- explicit consideration of   5 degrees of freedom as
           vibrations may cause significant error
 Vibrational temperatures:    154.43   387.67   459.11   703.62   835.43
          (Kelvin)           1359.44  1464.81  1595.64  1980.00  2090.26
                             2103.61  2661.90  4384.50  4481.02  4515.29
 
 Zero-point correction=                           0.046199 (Hartree/Particle)
 Thermal correction to Energy=                    0.051137
 Thermal correction to Enthalpy=                  0.052081
 Thermal correction to Gibbs Free Energy=         0.016235
 Sum of electronic and zero-point Energies=          -7043.425796
 Sum of electronic and thermal Energies=             -7043.420858
 Sum of electronic and thermal Enthalpies=           -7043.419914
 Sum of electronic and thermal Free Energies=        -7043.455759
 
                     E (Thermal)             CV                S
                      KCal/Mol        Cal/Mol-Kelvin    Cal/Mol-Kelvin
 Total                   32.089             15.001             75.443
 Electronic               0.000              0.000              0.000
 Translational            0.889              2.981             41.298
 Rotational               0.889              2.981             26.429
 Vibrational             30.311              9.039              7.716
 Vibration     1          0.606              1.943              3.317
 Vibration     2          0.674              1.729              1.600
 Vibration     3          0.705              1.637              1.315
 Vibration     4          0.845              1.274              0.686
 Vibration     5          0.937              1.073              0.484
                       Q            Log10(Q)             Ln(Q)
 Total Bot       0.340598D-07         -7.467758        -17.195147
 Total V=0       0.605469D+14         13.782092         31.734440
 Vib (Bot)       0.293714D-20        -20.532075        -47.276850
 Vib (Bot)    1  0.190922D+01          0.280855          0.646692
 Vib (Bot)    2  0.717461D+00         -0.144202         -0.332037
 Vib (Bot)    3  0.589431D+00         -0.229567         -0.528597
 Vib (Bot)    4  0.339330D+00         -0.469378         -1.080783
 Vib (Bot)    5  0.262258D+00         -0.581271         -1.338426
 Vib (V=0)       0.522125D+01          0.717775          1.652737
 Vib (V=0)    1  0.247360D+01          0.393330          0.905675
 Vib (V=0)    2  0.137450D+01          0.138145          0.318090
 Vib (V=0)    3  0.127294D+01          0.104806          0.241326
 Vib (V=0)    4  0.110427D+01          0.043076          0.099186
 Vib (V=0)    5  0.106461D+01          0.027189          0.062604
 Electronic      0.100000D+01          0.000000          0.000000
 Translational   0.870597D+08          7.939817         18.282105
 Rotational      0.133199D+06          5.124500         11.799598
 ***** Axes restored to original set *****
 -------------------------------------------------------------------
 Center     Atomic                   Forces (Hartrees/Bohr)
 Number     Number              X              Y              Z
 -------------------------------------------------------------------
      1        6           0.000045380    0.000007085    0.000080773
      2        1          -0.000003945    0.000015575   -0.000021366
      3        1          -0.000006987   -0.000004135   -0.000025409
      4        1          -0.000019812    0.000011297   -0.000001509
      5        6          -0.000024080    0.000011065   -0.000022362
      6        8           0.000020514   -0.000049182    0.000015157
      7       53          -0.000011070    0.000008295   -0.000025285
 -------------------------------------------------------------------
 Cartesian Forces:  Max     0.000080773 RMS     0.000027329
 FormGI is forming the generalized inverse of G from B-inverse, IUseBI=4.

 GradGradGradGradGradGradGradGradGradGradGradGradGradGradGradGradGradGrad
 Berny optimization.
 Internal  Forces:  Max     0.000056748 RMS     0.000019579
 Search for a local minimum.
 Step number   1 out of a maximum of    2
 All quantities printed in internal units (Hartrees-Bohrs-Radians)
 Second derivative matrix not updated -- analytic derivatives used.
 ITU=  0
     Eigenvalues ---    0.00061   0.04879   0.05420   0.05423   0.09852
     Eigenvalues ---    0.12144   0.13459   0.13840   0.17022   0.22661
     Eigenvalues ---    0.29421   0.33801   0.34243   0.34682   0.91659
 Angle between quadratic step and forces=  82.52 degrees.
 Linear search not attempted -- first point.
 Iteration  1 RMS(Cart)=  0.00095792 RMS(Int)=  0.00000045
 Iteration  2 RMS(Cart)=  0.00000046 RMS(Int)=  0.00000001
 Variable       Old X    -DE/DX   Delta X   Delta X   Delta X     New X
                                 (Linear)    (Quad)   (Total)
    R1        2.05853  -0.00001   0.00000  -0.00001  -0.00001   2.05851
    R2        2.05563   0.00003   0.00000   0.00010   0.00010   2.05573
    R3        2.05853   0.00000   0.00000  -0.00003  -0.00003   2.05850
    R4        2.83082  -0.00004   0.00000  -0.00013  -0.00013   2.83069
    R5        2.23671  -0.00006   0.00000  -0.00005  -0.00005   2.23666
    R6        4.11271  -0.00002   0.00000  -0.00016  -0.00016   4.11254
    A1        1.93235  -0.00001   0.00000  -0.00030  -0.00030   1.93205
    A2        1.86552   0.00002   0.00000   0.00035   0.00035   1.86587
    A3        1.90708   0.00001   0.00000  -0.00006  -0.00006   1.90702
    A4        1.93214   0.00000   0.00000  -0.00003  -0.00003   1.93211
    A5        1.91887   0.00000   0.00000  -0.00010  -0.00010   1.91877
    A6        1.90695  -0.00001   0.00000   0.00015   0.00015   1.90710
    A7        2.20105   0.00000   0.00000   0.00000   0.00000   2.20104
    A8        1.97738   0.00000   0.00000   0.00001   0.00001   1.97739
    A9        2.10476   0.00000   0.00000   0.00000   0.00000   2.10475
    D1        2.12531  -0.00002   0.00000  -0.00214  -0.00214   2.12317
    D2       -1.01644  -0.00001   0.00000  -0.00196  -0.00196  -1.01840
    D3        0.00127   0.00000   0.00000  -0.00168  -0.00168  -0.00041
    D4       -3.14049   0.00000   0.00000  -0.00150  -0.00150   3.14120
    D5       -2.12244   0.00001   0.00000  -0.00167  -0.00167  -2.12410
    D6        1.01899   0.00001   0.00000  -0.00149  -0.00149   1.01750
         Item               Value     Threshold  Converged?
 Maximum Force            0.000057     0.000450     YES
 RMS     Force            0.000020     0.000300     YES
 Maximum Displacement     0.001963     0.001800     NO 
 RMS     Displacement     0.000958     0.001200     YES
 Predicted change in Energy=-2.530528D-08
 GradGradGradGradGradGradGradGradGradGradGradGradGradGradGradGradGradGrad

 1\1\GINC-CNODE-4-81\Freq\RB3LYP\Gen\C2H3I1O1\MLAWAL\24-Mar-2015\0\\#N 
 Geom=AllCheck Guess=TCheck SCRF=Check GenChk RB3LYP/ChkBas Freq\\gen c
 alculation-iac C H O=aug-ccpvtz/I=midix\\0,1\C,-1.5577566839,-1.706389
 7747,0.1577936751\H,-0.5394860943,-2.092823231,0.1372342049\H,-1.95958
 99607,-1.6269500356,-0.8499339853\H,-2.1479187575,-2.4012393769,0.7540
 561417\C,-1.5628294555,-0.3614214226,0.8173839891\O,-1.9432412151,0.65
 04581286,0.3353780755\I,-0.7757502956,-0.3947596188,2.8461509906\\Vers
 ion=EM64L-G09RevD.01\State=1-A\HF=-7043.4719949\RMSD=1.871e-09\RMSF=2.
 733e-05\ZeroPoint=0.0461986\Thermal=0.0511367\Dipole=0.0782961,-0.9714
 457,-0.2823895\DipoleDeriv=0.0354517,0.0000152,-0.0679786,0.0414639,-0
 .2589248,-0.0523502,-0.0472564,-0.1592576,-0.1404686,-0.0112795,0.0200
 032,-0.018631,-0.0123394,0.0849506,-0.0135633,-0.0463621,-0.0237363,0.
 0569428,0.080381,-0.0022053,-0.06481,-0.0049567,0.0360347,-0.0471813,-
 0.0661851,-0.0403022,-0.0877177,0.0660748,-0.0404199,0.0218296,-0.0131
 202,0.0703277,0.0001183,0.0470276,0.0229394,-0.0058048,0.4023616,-0.17
 41397,0.8633402,-0.4233645,0.9687605,-0.6340739,0.7386394,0.0135773,1.
 9626304,-0.4169371,0.202793,-0.4702069,0.4190945,-0.8363302,0.7692074,
 -0.3618854,0.2070217,-1.0337607,-0.1560525,-0.0060464,-0.2635433,-0.00
 67775,-0.0648185,-0.022157,-0.263978,-0.0202422,-0.7518213\Polar=50.79
 69832,-1.2942294,56.7566268,12.7256135,2.1908876,79.8141865\PG=C01 [X(
 C2H3I1O1)]\NImag=0\\0.53567970,-0.01029978,0.47373616,0.02396230,-0.05
 198609,0.56080882,-0.27935302,0.09039009,0.00326555,0.30252940,0.09196
 060,-0.07116070,-0.00539025,-0.09803301,0.08231680,0.00222163,-0.00518
 983,-0.04639293,-0.00436976,0.00468544,0.04442158,-0.08622018,0.007948
 86,-0.09228333,-0.00766985,0.00077132,-0.02682116,0.08604833,0.0091215
 6,-0.05087682,0.02294797,0.00227316,-0.00116573,0.01053996,-0.00912622
 ,0.05154290,-0.09169010,0.01988646,-0.27837372,0.00096837,0.00019771,0
 .00380604,0.10171061,-0.02065233,0.30009280,-0.11921122,-0.09697458,0.
 07816100,-0.01679545,-0.01986933,0.01591134,0.00780467,0.00950088,-0.0
 0599446,0.12921438,-0.09842382,-0.14948017,0.09377033,0.00628052,0.008
 45594,-0.00640192,0.00047330,-0.00040586,0.00011754,0.10318133,0.16583
 977,0.07925307,0.09319582,-0.12816842,0.00055354,0.00068052,-0.0012211
 0,0.01653662,0.01722528,-0.01243862,-0.08817994,-0.10129876,0.13416854
 ,-0.07573788,-0.00542718,0.00008633,0.00087307,0.03119598,0.01575235,-
 0.00133200,-0.01109319,-0.00580414,-0.00004334,-0.01469876,-0.01039140
 ,0.23806199,-0.01017240,-0.14966221,-0.06297309,0.00106227,-0.01505609
 ,-0.00257621,0.00012827,-0.00046865,0.00074592,0.00256014,-0.02354173,
 -0.00822790,-0.19314077,0.84705887,-0.00227330,-0.05059596,-0.10806566
 ,-0.00153107,0.00241117,0.00054181,-0.00018818,-0.02854394,-0.01598432
 ,0.00044062,0.02031609,0.00994848,0.10622809,-0.15798525,0.35691487,0.
 02109945,0.01262381,-0.00623772,-0.00026973,-0.00439944,-0.00144859,-0
 .00018196,-0.00000272,0.00136299,-0.00115887,0.00233956,0.00252549,-0.
 13455306,0.21465127,-0.09274383,0.11564812,0.02169702,-0.05309365,0.01
 684325,-0.00143716,-0.00380969,-0.00094026,-0.00015198,0.00292716,0.00
 141038,0.00126535,-0.00194581,-0.00126962,0.19698785,-0.63764361,0.221
 50237,-0.23535574,0.69316963,-0.00171025,-0.00670833,0.01810670,0.0015
 7775,-0.00214153,0.00022227,0.00128625,0.00182096,0.00355329,0.0004532
 3,-0.00500646,-0.00074582,-0.10158149,0.26738344,-0.18763620,0.1222971
 4,-0.27626118,0.20276435,0.00374315,0.00173879,-0.00695412,0.00068558,
 -0.00162614,-0.00124580,0.00155099,-0.00067347,-0.00055327,0.00018982,
 0.00084786,-0.00029737,-0.02726878,-0.01508879,-0.00993233,-0.00058396
 ,0.01699466,-0.02232264,0.02168321,-0.00388318,0.00053738,-0.01321212,
 -0.00053587,0.00041948,-0.00011718,-0.00004354,-0.00155298,-0.00170568
 ,0.00033620,0.00107786,-0.00030535,-0.00382394,-0.02068658,-0.00710448
 ,0.01014326,0.00039598,0.02091309,-0.00219292,0.01980887,-0.00976335,0
 .00139792,-0.01791479,-0.00046438,-0.00044307,-0.00137768,-0.00024082,
 -0.00333790,-0.00065548,-0.00079177,-0.00149683,-0.00154306,-0.0042897
 3,-0.03636692,-0.05571898,-0.02575548,0.03871507,-0.03626460,0.0413055
 3,0.00153172,0.11347459\\-0.00004538,-0.00000709,-0.00008077,0.0000039
 4,-0.00001557,0.00002137,0.00000699,0.00000413,0.00002541,0.00001981,-
 0.00001130,0.00000151,0.00002408,-0.00001106,0.00002236,-0.00002051,0.
 00004918,-0.00001516,0.00001107,-0.00000829,0.00002528\\\@


 WE SHOULD BE CAREFUL TO GET OUT OF AN EXPERIENCE ONLY THE WISDOM
 THAT IS IN IT -- AND STOP THERE;
 LEST WE BE LIKE THE CAT THAT SITS DOWN ON A HOT STOVE-LID.
 SHE WILL NEVER SIT DOWN ON A HOT STOVE LID AGAIN;
 BUT ALSO SHE WILL NEVER SIT DOWN ON A COLD ONE ANY MORE.

                                                     -- MARK TWAIN
 Job cpu time:       0 days  0 hours 36 minutes 41.9 seconds.
 File lengths (MBytes):  RWF=     61 Int=      0 D2E=      0 Chk=      5 Scr=      1
 Normal termination of Gaussian 09 at Tue Mar 24 12:59:43 2015.
