 Entering Link 1 = C:\G09W\l1.exe PID=      6920.
  
 Copyright (c) 1988,1990,1992,1993,1995,1998,2003,2009, Gaussian, Inc.
                  All Rights Reserved.
  
 This is part of the Gaussian(R) 09 program.  It is based on
 the Gaussian(R) 03 system (copyright 2003, Gaussian, Inc.),
 the Gaussian(R) 98 system (copyright 1998, Gaussian, Inc.),
 the Gaussian(R) 94 system (copyright 1995, Gaussian, Inc.),
 the Gaussian 92(TM) system (copyright 1992, Gaussian, Inc.),
 the Gaussian 90(TM) system (copyright 1990, Gaussian, Inc.),
 the Gaussian 88(TM) system (copyright 1988, Gaussian, Inc.),
 the Gaussian 86(TM) system (copyright 1986, Carnegie Mellon
 University), and the Gaussian 82(TM) system (copyright 1983,
 Carnegie Mellon University). Gaussian is a federally registered
 trademark of Gaussian, Inc.
  
 This software contains proprietary and confidential information,
 including trade secrets, belonging to Gaussian, Inc.
  
 This software is provided under written license and may be
 used, copied, transmitted, or stored only in accord with that
 written license.
  
 The following legend is applicable only to US Government
 contracts under FAR:
  
                    RESTRICTED RIGHTS LEGEND
  
 Use, reproduction and disclosure by the US Government is
 subject to restrictions as set forth in subparagraphs (a)
 and (c) of the Commercial Computer Software - Restricted
 Rights clause in FAR 52.227-19.
  
 Gaussian, Inc.
 340 Quinnipiac St., Bldg. 40, Wallingford CT 06492
  
  
 ---------------------------------------------------------------
 Warning -- This program may not be used in any manner that
 competes with the business of Gaussian, Inc. or will provide
 assistance to any competitor of Gaussian, Inc.  The licensee
 of this program is prohibited from giving any competitor of
 Gaussian, Inc. access to this program.  By using this program,
 the user acknowledges that Gaussian, Inc. is engaged in the
 business of creating and licensing software in the field of
 computational chemistry and represents and warrants to the
 licensee that it is not a competitor of Gaussian, Inc. and that
 it will not use this program in any manner prohibited above.
 ---------------------------------------------------------------
  

 Cite this work as:
 Gaussian 09, Revision A.02,
 M. J. Frisch, G. W. Trucks, H. B. Schlegel, G. E. Scuseria, 
 M. A. Robb, J. R. Cheeseman, G. Scalmani, V. Barone, B. Mennucci, 
 G. A. Petersson, H. Nakatsuji, M. Caricato, X. Li, H. P. Hratchian, 
 A. F. Izmaylov, J. Bloino, G. Zheng, J. L. Sonnenberg, M. Hada, 
 M. Ehara, K. Toyota, R. Fukuda, J. Hasegawa, M. Ishida, T. Nakajima, 
 Y. Honda, O. Kitao, H. Nakai, T. Vreven, J. A. Montgomery, Jr., 
 J. E. Peralta, F. Ogliaro, M. Bearpark, J. J. Heyd, E. Brothers, 
 K. N. Kudin, V. N. Staroverov, R. Kobayashi, J. Normand, 
 K. Raghavachari, A. Rendell, J. C. Burant, S. S. Iyengar, J. Tomasi, 
 M. Cossi, N. Rega, J. M. Millam, M. Klene, J. E. Knox, J. B. Cross, 
 V. Bakken, C. Adamo, J. Jaramillo, R. Gomperts, R. E. Stratmann, 
 O. Yazyev, A. J. Austin, R. Cammi, C. Pomelli, J. W. Ochterski, 
 R. L. Martin, K. Morokuma, V. G. Zakrzewski, G. A. Voth, 
 P. Salvador, J. J. Dannenberg, S. Dapprich, A. D. Daniels, 
 O. Farkas, J. B. Foresman, J. V. Ortiz, J. Cioslowski, 
 and D. J. Fox, Gaussian, Inc., Wallingford CT, 2009.
 
 ******************************************
 Gaussian 09:  IA32W-G09RevA.02 11-Jun-2009
                27-Feb-2015 
 ******************************************
 %chk=C:\Users\LawalM\Desktop\RCOI\iaclan.chk
 ----------------------------------------------------------
 # opt freq b3lyp/gen geom=connectivity gfinput pseudo=read
 ----------------------------------------------------------
 1/14=-1,18=20,19=15,26=3,38=1,57=2/1,3;
 2/9=110,12=2,17=6,18=5,40=1/2;
 3/5=7,11=2,16=1,17=8,24=10,25=1,30=1,71=1,74=-5/1,2,3;
 4//1;
 5/5=2,38=5/2;
 6/7=2,8=2,9=2,10=2,28=1/1;
 7//1,2,3,16;
 1/14=-1,18=20,19=15/3(2);
 2/9=110/2;
 99//99;
 2/9=110/2;
 3/5=7,6=1,11=2,16=1,17=8,25=1,30=1,71=1,74=-5,82=7/1,2,3;
 4/5=5,16=3/1;
 5/5=2,38=5/2;
 7//1,2,3,16;
 1/14=-1,18=20,19=15/3(-5);
 2/9=110/2;
 6/7=2,8=2,9=2,10=2,19=2,28=1/1;
 99/9=1/99;
 --------------------------------------------
 gen calculation-iac C H O=6-31+g(d)/I=DGDZVP
 --------------------------------------------
 Symbolic Z-matrix:
 Charge =  0 Multiplicity = 1
 C                     2.05216   1.08723  0. 
 H                     1.77291   1.69185  -0.88195 
 H                     3.15179   0.99106  0. 
 H                     1.77292   1.69184   0.88195 
 C                     1.39164  -0.23572   0. 
 O                     1.88483  -1.30956   0. 
 I                    -0.80074   0.01873   0. 
 

 GradGradGradGradGradGradGradGradGradGradGradGradGradGradGradGradGradGrad
 Berny optimization.
 Initialization pass.
                           ----------------------------
                           !    Initial Parameters    !
                           ! (Angstroms and Degrees)  !
 --------------------------                            --------------------------
 ! Name  Definition              Value          Derivative Info.                !
 --------------------------------------------------------------------------------
 ! R1    R(1,2)                  1.1052         estimate D2E/DX2                !
 ! R2    R(1,3)                  1.1038         estimate D2E/DX2                !
 ! R3    R(1,4)                  1.1052         estimate D2E/DX2                !
 ! R4    R(1,5)                  1.4787         estimate D2E/DX2                !
 ! R5    R(5,6)                  1.1817         estimate D2E/DX2                !
 ! R6    R(5,7)                  2.2071         estimate D2E/DX2                !
 ! A1    A(2,1,3)              107.4202         estimate D2E/DX2                !
 ! A2    A(2,1,4)              105.8848         estimate D2E/DX2                !
 ! A3    A(2,1,5)              112.1236         estimate D2E/DX2                !
 ! A4    A(3,1,4)              107.4197         estimate D2E/DX2                !
 ! A5    A(3,1,5)              111.5337         estimate D2E/DX2                !
 ! A6    A(4,1,5)              112.1236         estimate D2E/DX2                !
 ! A7    A(1,5,6)              128.7996         estimate D2E/DX2                !
 ! A8    A(1,5,7)              109.9117         estimate D2E/DX2                !
 ! A9    A(6,5,7)              121.2886         estimate D2E/DX2                !
 ! D1    D(2,1,5,6)            120.5198         estimate D2E/DX2                !
 ! D2    D(2,1,5,7)            -59.48           estimate D2E/DX2                !
 ! D3    D(3,1,5,6)              0.0            estimate D2E/DX2                !
 ! D4    D(3,1,5,7)           -179.9999         estimate D2E/DX2                !
 ! D5    D(4,1,5,6)           -120.5192         estimate D2E/DX2                !
 ! D6    D(4,1,5,7)             59.4809         estimate D2E/DX2                !
 --------------------------------------------------------------------------------
 Trust Radius=3.00D-01 FncErr=1.00D-07 GrdErr=1.00D-06
 Number of steps in this run=  31 maximum allowed number of steps= 100.
 GradGradGradGradGradGradGradGradGradGradGradGradGradGradGradGradGradGrad

                          Input orientation:                          
 ---------------------------------------------------------------------
 Center     Atomic      Atomic             Coordinates (Angstroms)
 Number     Number       Type             X           Y           Z
 ---------------------------------------------------------------------
      1          6           0        2.052156    1.087228   -0.000001
      2          1           0        1.772912    1.691848   -0.881945
      3          1           0        3.151785    0.991058   -0.000003
      4          1           0        1.772923    1.691844    0.881950
      5          6           0        1.391638   -0.235720    0.000001
      6          8           0        1.884834   -1.309563    0.000000
      7         53           0       -0.800737    0.018730    0.000000
 ---------------------------------------------------------------------
                    Distance matrix (angstroms):
                    1          2          3          4          5
     1  C    0.000000
     2  H    1.105155   0.000000
     3  H    1.103826   1.780511   0.000000
     4  H    1.105156   1.763895   1.780506   0.000000
     5  C    1.478674   2.153768   2.145484   2.153768   0.000000
     6  O    2.402624   3.130307   2.626409   3.130304   1.181686
     7  I    3.046422   3.193872   4.070363   3.193880   2.207092
                    6          7
     6  O    0.000000
     7  I    2.996106   0.000000
 Stoichiometry    C2H3IO
 Framework group  C1[X(C2H3IO)]
 Deg. of freedom    15
 Full point group                 C1      NOp   1
 Largest Abelian subgroup         C1      NOp   1
 Largest concise Abelian subgroup C1      NOp   1
                         Standard orientation:                         
 ---------------------------------------------------------------------
 Center     Atomic      Atomic             Coordinates (Angstroms)
 Number     Number       Type             X           Y           Z
 ---------------------------------------------------------------------
      1          6           0        2.052156    1.087228   -0.000001
      2          1           0        1.772912    1.691848   -0.881945
      3          1           0        3.151785    0.991058   -0.000003
      4          1           0        1.772923    1.691844    0.881950
      5          6           0        1.391638   -0.235720    0.000000
      6          8           0        1.884834   -1.309563    0.000000
      7         53           0       -0.800737    0.018730    0.000000
 ---------------------------------------------------------------------
 Rotational constants (GHZ):     10.1059402      2.2242341      1.8438616
 General basis read from cards:  (5D, 7F)
 AO basis set in the form of general basis input (Overlap normalization):
      1 0
 S   6 1.00       0.000000000000
      0.3047524880D+04  0.1834737132D-02
      0.4573695180D+03  0.1403732281D-01
      0.1039486850D+03  0.6884262226D-01
      0.2921015530D+02  0.2321844432D+00
      0.9286662960D+01  0.4679413484D+00
      0.3163926960D+01  0.3623119853D+00
 SP   3 1.00       0.000000000000
      0.7868272350D+01 -0.1193324198D+00  0.6899906659D-01
      0.1881288540D+01 -0.1608541517D+00  0.3164239610D+00
      0.5442492580D+00  0.1143456438D+01  0.7443082909D+00
 SP   1 1.00       0.000000000000
      0.1687144782D+00  0.1000000000D+01  0.1000000000D+01
 SP   1 1.00       0.000000000000
      0.4380000000D-01  0.1000000000D+01  0.1000000000D+01
 D   1 1.00       0.000000000000
      0.8000000000D+00  0.1000000000D+01
 ****
      2 0
 S   3 1.00       0.000000000000
      0.1873113696D+02  0.3349460434D-01
      0.2825394365D+01  0.2347269535D+00
      0.6401216923D+00  0.8137573261D+00
 S   1 1.00       0.000000000000
      0.1612777588D+00  0.1000000000D+01
 ****
      3 0
 S   3 1.00       0.000000000000
      0.1873113696D+02  0.3349460434D-01
      0.2825394365D+01  0.2347269535D+00
      0.6401216923D+00  0.8137573261D+00
 S   1 1.00       0.000000000000
      0.1612777588D+00  0.1000000000D+01
 ****
      4 0
 S   3 1.00       0.000000000000
      0.1873113696D+02  0.3349460434D-01
      0.2825394365D+01  0.2347269535D+00
      0.6401216923D+00  0.8137573261D+00
 S   1 1.00       0.000000000000
      0.1612777588D+00  0.1000000000D+01
 ****
      5 0
 S   6 1.00       0.000000000000
      0.3047524880D+04  0.1834737132D-02
      0.4573695180D+03  0.1403732281D-01
      0.1039486850D+03  0.6884262226D-01
      0.2921015530D+02  0.2321844432D+00
      0.9286662960D+01  0.4679413484D+00
      0.3163926960D+01  0.3623119853D+00
 SP   3 1.00       0.000000000000
      0.7868272350D+01 -0.1193324198D+00  0.6899906659D-01
      0.1881288540D+01 -0.1608541517D+00  0.3164239610D+00
      0.5442492580D+00  0.1143456438D+01  0.7443082909D+00
 SP   1 1.00       0.000000000000
      0.1687144782D+00  0.1000000000D+01  0.1000000000D+01
 SP   1 1.00       0.000000000000
      0.4380000000D-01  0.1000000000D+01  0.1000000000D+01
 D   1 1.00       0.000000000000
      0.8000000000D+00  0.1000000000D+01
 ****
      6 0
 S   6 1.00       0.000000000000
      0.5484671660D+04  0.1831074430D-02
      0.8252349460D+03  0.1395017220D-01
      0.1880469580D+03  0.6844507810D-01
      0.5296450000D+02  0.2327143360D+00
      0.1689757040D+02  0.4701928980D+00
      0.5799635340D+01  0.3585208530D+00
 SP   3 1.00       0.000000000000
      0.1553961625D+02 -0.1107775495D+00  0.7087426823D-01
      0.3599933586D+01 -0.1480262627D+00  0.3397528391D+00
      0.1013761750D+01  0.1130767015D+01  0.7271585773D+00
 SP   1 1.00       0.000000000000
      0.2700058226D+00  0.1000000000D+01  0.1000000000D+01
 SP   1 1.00       0.000000000000
      0.8450000000D-01  0.1000000000D+01  0.1000000000D+01
 D   1 1.00       0.000000000000
      0.8000000000D+00  0.1000000000D+01
 ****
      7 0
 S   6 1.00       0.000000000000
      0.2748454600D+06 -0.1620740003D-02
      0.4123318800D+05 -0.1239758002D-01
      0.9366733300D+04 -0.6220073012D-01
      0.2638408100D+04 -0.2162937604D+00
      0.8587744000D+03 -0.4623949009D+00
      0.2963025200D+03 -0.3848416708D+00
 S   3 1.00       0.000000000000
      0.5618372200D+03  0.1142284296D+00
      0.6904014600D+02 -0.6322909279D+00
      0.2998063500D+02 -0.4420178785D+00
 S   3 1.00       0.000000000000
      0.5486968400D+02 -0.2707986079D+00
      0.9995458500D+01  0.8426472035D+00
      0.4588867800D+01  0.3091657076D+00
 S   3 1.00       0.000000000000
      0.9120825600D+01 -0.3410223488D+00
      0.2119678700D+01  0.8100649772D+00
      0.9708925500D+00  0.3967536886D+00
 S   2 1.00       0.000000000000
      0.1587996500D+01  0.4220458839D+00
      0.2953355900D+00 -0.1205356205D+01
 S   1 1.00       0.000000000000
      0.1164015700D+00  0.1000000000D+01
 P   5 1.00       0.000000000000
      0.4089455400D+04 -0.7236549903D-02
      0.9670335900D+03 -0.5583903925D-01
      0.3094421300D+03 -0.2340242369D+00
      0.1124588600D+03 -0.5047018033D+00
      0.4311859000D+02 -0.3659633351D+00
 P   3 1.00       0.000000000000
      0.1646462000D+03 -0.2523303985D-01
      0.2073658300D+02  0.4944191470D+00
      0.8155830400D+01  0.5741461865D+00
 P   3 1.00       0.000000000000
      0.3710487200D+01  0.4299955309D+00
      0.1624999000D+01  0.5262371211D+00
      0.7146215600D+00  0.1234062502D+00
 P   2 1.00       0.000000000000
      0.4628192500D+00  0.4206610585D+00
      0.1864311600D+00  0.6369323111D+00
 P   1 1.00       0.000000000000
      0.7148348000D-01  0.1000000000D+01
 D   5 1.00       0.000000000000
      0.4175032400D+03 -0.1272515010D-01
      0.1236148300D+03 -0.9152118071D-01
      0.4577903900D+02 -0.3070988524D+00
      0.1839166300D+02 -0.4996397539D+00
      0.7421793200D+01 -0.3083066424D+00
 D   3 1.00       0.000000000000
      0.6273858600D+01 -0.2593005400D+00
      0.2359414600D+01 -0.5650764901D+00
      0.8377966000D+00 -0.3523693800D+00
 D   1 1.00       0.000000000000
      0.2440000000D+00  0.1000000000D+01
 ****

 ======================================================================================================
                                       Pseudopotential Parameters
 ======================================================================================================
  Center     Atomic      Valence      Angular      Power
  Number     Number     Electrons     Momentum     of R      Exponent        Coefficient   SO-Coeffient
 ======================================================================================================
    1          6
                                   No pseudopotential on this center.
    2          1
                                   No pseudopotential on this center.
    3          1
                                   No pseudopotential on this center.
    4          1
                                   No pseudopotential on this center.
    5          6
                                   No pseudopotential on this center.
    6          8
                                   No pseudopotential on this center.
    7         53
                                   No pseudopotential on this center.
 ======================================================================================================
 There are    96 symmetry adapted basis functions of A   symmetry.
 Integral buffers will be    262144 words long.
 Raffenetti 2 integral format.
 Two-electron integral symmetry is turned on.
    96 basis functions,   222 primitive gaussians,   102 cartesian basis functions
    38 alpha electrons       38 beta electrons
       nuclear repulsion energy       294.0352139156 Hartrees.
 NAtoms=    7 NActive=    7 NUniq=    7 SFac= 7.50D-01 NAtFMM=   80 NAOKFM=F Big=F
 One-electron integrals computed using PRISM.
   1 Symmetry operations used in ECPInt.
 ECPInt:  NShTT=     630 NPrTT=    4123 LenC2=     620 LenP2D=    3176.
 LDataN:  DoStor=T MaxTD1= 4 Len=   56
 NBasis=    96 RedAO= T  NBF=    96
 NBsUse=    96 1.00D-06 NBFU=    96
 Defaulting to unpruned grid for atomic number  53.
 Harris functional with IExCor=  402 diagonalized for initial guess.
 ExpMin= 4.38D-02 ExpMax= 2.75D+05 ExpMxC= 4.12D+04 IAcc=2 IRadAn=         0 AccDes= 0.00D+00
 HarFok:  IExCor=  402 AccDes= 0.00D+00 IRadAn=         0 IDoV= 1
 ScaDFX=  1.000000  1.000000  1.000000  1.000000
 Defaulting to unpruned grid for atomic number  53.
 FoFCou: FMM=F IPFlag=           0 FMFlag=      100000 FMFlg1=           0
         NFxFlg=           0 DoJE=T BraDBF=F KetDBF=T FulRan=T
         Omega=  0.000000  0.000000  1.000000  0.000000  0.000000 ICntrl=     500 IOpCl=  0
         NMat0=    1 NMatS0=    1 NMatT0=    0 NMatD0=    1 NMtDS0=    0 NMtDT0=    0
         I1Cent=           4 NGrid=           0.
 Petite list used in FoFCou.
 Initial guess orbital symmetries:
       Occupied  (A) (A) (A) (A) (A) (A) (A) (A) (A) (A) (A) (A)
                 (A) (A) (A) (A) (A) (A) (A) (A) (A) (A) (A) (A)
                 (A) (A) (A) (A) (A) (A) (A) (A) (A) (A) (A) (A)
                 (A) (A)
       Virtual   (A) (A) (A) (A) (A) (A) (A) (A) (A) (A) (A) (A)
                 (A) (A) (A) (A) (A) (A) (A) (A) (A) (A) (A) (A)
                 (A) (A) (A) (A) (A) (A) (A) (A) (A) (A) (A) (A)
                 (A) (A) (A) (A) (A) (A) (A) (A) (A) (A) (A) (A)
                 (A) (A) (A) (A) (A) (A) (A) (A) (A) (A)
 The electronic state of the initial guess is 1-A.
 Requested convergence on RMS density matrix=1.00D-08 within 128 cycles.
 Requested convergence on MAX density matrix=1.00D-06.
 Requested convergence on             energy=1.00D-06.
 No special actions if energy rises.
 Keep R1 ints in memory in canonical form, NReq=14836775.
 Defaulting to unpruned grid for atomic number  53.
 SCF Done:  E(RB3LYP) =  -7073.11095365     A.U. after   13 cycles
             Convg  =    0.3449D-08             -V/T =  2.0017

 **********************************************************************

            Population analysis using the SCF density.

 **********************************************************************

 Orbital symmetries:
       Occupied  (A) (A) (A) (A) (A) (A) (A) (A) (A) (A) (A) (A)
                 (A) (A) (A) (A) (A) (A) (A) (A) (A) (A) (A) (A)
                 (A) (A) (A) (A) (A) (A) (A) (A) (A) (A) (A) (A)
                 (A) (A)
       Virtual   (A) (A) (A) (A) (A) (A) (A) (A) (A) (A) (A) (A)
                 (A) (A) (A) (A) (A) (A) (A) (A) (A) (A) (A) (A)
                 (A) (A) (A) (A) (A) (A) (A) (A) (A) (A) (A) (A)
                 (A) (A) (A) (A) (A) (A) (A) (A) (A) (A) (A) (A)
                 (A) (A) (A) (A) (A) (A) (A) (A) (A) (A)
 The electronic state is 1-A.
 Alpha  occ. eigenvalues -- **********-176.36548-165.74759-165.74607-165.74589
 Alpha  occ. eigenvalues --  -35.80930 -31.31981 -31.31542 -31.31490 -22.96102
 Alpha  occ. eigenvalues --  -22.96012 -22.95976 -22.95675 -22.95674 -19.20953
 Alpha  occ. eigenvalues --  -10.34600 -10.22781  -6.34623  -4.76222  -4.75050
 Alpha  occ. eigenvalues --   -4.74924  -2.02903  -2.02537  -2.02440  -2.01418
 Alpha  occ. eigenvalues --   -2.01415  -1.11870  -0.79749  -0.66782  -0.56411
 Alpha  occ. eigenvalues --   -0.49305  -0.48713  -0.48638  -0.41522  -0.41340
 Alpha  occ. eigenvalues --   -0.29445  -0.27733  -0.27024
 Alpha virt. eigenvalues --   -0.06176  -0.05209  -0.00076   0.03509   0.04482
 Alpha virt. eigenvalues --    0.04731   0.07793   0.08190   0.08611   0.10607
 Alpha virt. eigenvalues --    0.15046   0.15769   0.19012   0.20128   0.20519
 Alpha virt. eigenvalues --    0.23321   0.25586   0.26875   0.27174   0.28410
 Alpha virt. eigenvalues --    0.30252   0.31894   0.35678   0.35742   0.39146
 Alpha virt. eigenvalues --    0.47540   0.50324   0.57657   0.62729   0.63277
 Alpha virt. eigenvalues --    0.70022   0.73077   0.77801   0.83995   0.88469
 Alpha virt. eigenvalues --    0.96440   1.04033   1.07582   1.20296   1.23490
 Alpha virt. eigenvalues --    1.26165   1.32523   1.37633   1.51227   1.60951
 Alpha virt. eigenvalues --    1.68384   1.75238   1.78221   1.84851   2.01125
 Alpha virt. eigenvalues --    2.04146   2.13878   2.29695   2.37043   2.55232
 Alpha virt. eigenvalues --    2.58444   2.85137   3.10760
          Condensed to atoms (all electrons):
              1          2          3          4          5          6
     1  C    5.708469   0.371337   0.383897   0.371336   0.112931  -0.049170
     2  H    0.371337   0.455483  -0.024066  -0.023784  -0.029311   0.000374
     3  H    0.383897  -0.024066   0.472306  -0.024067  -0.058614   0.002302
     4  H    0.371336  -0.023784  -0.024067   0.455484  -0.029310   0.000374
     5  C    0.112931  -0.029311  -0.058614  -0.029310   4.870085   0.382985
     6  O   -0.049170   0.000374   0.002302   0.000374   0.382985   8.045894
     7  I   -0.087034  -0.003517   0.008032  -0.003517   0.287943  -0.116177
              7
     1  C   -0.087034
     2  H   -0.003517
     3  H    0.008032
     4  H   -0.003517
     5  C    0.287943
     6  O   -0.116177
     7  I   53.046391
 Mulliken atomic charges:
              1
     1  C   -0.811766
     2  H    0.253485
     3  H    0.240209
     4  H    0.253485
     5  C    0.463290
     6  O   -0.266581
     7  I   -0.132122
 Sum of Mulliken atomic charges =   0.00000
 Mulliken charges with hydrogens summed into heavy atoms:
              1
     1  C   -0.064588
     5  C    0.463290
     6  O   -0.266581
     7  I   -0.132122
 Sum of Mulliken charges with hydrogens summed into heavy atoms =   0.00000
 Electronic spatial extent (au):  <R**2>=            620.3237
 Charge=              0.0000 electrons
 Dipole moment (field-independent basis, Debye):
    X=              1.3802    Y=              2.5643    Z=              0.0000  Tot=              2.9122
 Quadrupole moment (field-independent basis, Debye-Ang):
   XX=            -43.7277   YY=            -48.2085   ZZ=            -46.2532
   XY=              5.4049   XZ=              0.0000   YZ=              0.0000
 Traceless Quadrupole moment (field-independent basis, Debye-Ang):
   XX=              2.3355   YY=             -2.1453   ZZ=             -0.1901
   XY=              5.4049   XZ=              0.0000   YZ=              0.0000
 Octapole moment (field-independent basis, Debye-Ang**2):
  XXX=            -30.1596  YYY=              3.2627  ZZZ=              0.0000  XYY=            -10.4929
  XXY=             11.0041  XXZ=              0.0000  XZZ=             -7.3800  YZZ=             -0.0397
  YYZ=              0.0000  XYZ=              0.0000
 Hexadecapole moment (field-independent basis, Debye-Ang**3):
 XXXX=           -515.3666 YYYY=           -186.3527 ZZZZ=            -66.1443 XXXY=             16.0625
 XXXZ=              0.0001 YYYX=              3.8654 YYYZ=              0.0000 ZZZX=              0.0000
 ZZZY=              0.0000 XXYY=           -126.1195 XXZZ=           -100.0020 YYZZ=            -38.9757
 XXYZ=              0.0001 YYXZ=              0.0000 ZZXY=             -1.1952
 N-N= 2.940352139156D+02 E-N=-1.736342752545D+04  KE= 7.061439355272D+03
   1 Symmetry operations used in ECPInt.
 ECPInt:  NShTT=     630 NPrTT=    4123 LenC2=     620 LenP2D=    3176.
 LDataN:  DoStor=T MaxTD1= 5 Len=  102
 Calling FoFJK, ICntrl=      2127 FMM=F ISym2X=0 I1Cent= 0 IOpClX= 0 NMat=1 NMatS=1 NMatT=0.
 Defaulting to unpruned grid for atomic number  53.
 ***** Axes restored to original set *****
 -------------------------------------------------------------------
 Center     Atomic                   Forces (Hartrees/Bohr)
 Number     Number              X              Y              Z
 -------------------------------------------------------------------
      1        6           0.020892156    0.026187072    0.000000638
      2        1          -0.002230750   -0.006558013    0.004098131
      3        1          -0.004850646   -0.004329694   -0.000000393
      4        1          -0.002231231   -0.006558152   -0.004098392
      5        6          -0.005119568    0.005479340   -0.000000053
      6        8           0.006277167   -0.012192149    0.000000046
      7       53          -0.012737128   -0.002028404    0.000000024
 -------------------------------------------------------------------
 Cartesian Forces:  Max     0.026187072 RMS     0.009009826

 GradGradGradGradGradGradGradGradGradGradGradGradGradGradGradGradGradGrad
 Berny optimization.
 Internal  Forces:  Max     0.013699255 RMS     0.006574946
 Search for a local minimum.
 Step number   1 out of a maximum of   31
 All quantities printed in internal units (Hartrees-Bohrs-Radians)
 Mixed Optimization -- RFO/linear search
 Second derivative matrix not updated -- first step.
     Eigenvalues ---    0.01048   0.01048   0.07211   0.07226   0.10889
     Eigenvalues ---    0.16000   0.16000   0.16000   0.25000   0.25000
     Eigenvalues ---    0.33118   0.33118   0.33262   0.34722   1.14592
     Eigenvalues --- 1000.000001000.000001000.000001000.000001000.00000
     Eigenvalues --- 1000.00000
 RFO step:  Lambda=-3.81815559D-03 EMin= 1.04805561D-02
 Linear search not attempted -- first point.
 Iteration  1 RMS(Cart)=  0.03659441 RMS(Int)=  0.00059846
 Iteration  2 RMS(Cart)=  0.00053983 RMS(Int)=  0.00025560
 Iteration  3 RMS(Cart)=  0.00000018 RMS(Int)=  0.00025560
 Variable       Old X    -DE/DX   Delta X   Delta X   Delta X     New X
                                 (Linear)    (Quad)   (Total)
    R1        2.08844  -0.00629   0.00000  -0.01879  -0.01879   2.06965
    R2        2.08593  -0.00445   0.00000  -0.01324  -0.01324   2.07269
    R3        2.08844  -0.00629   0.00000  -0.01879  -0.01879   2.06965
    R4        2.79429   0.01299   0.00000   0.03701   0.03701   2.83130
    R5        2.23306   0.01370   0.00000   0.01192   0.01192   2.24498
    R6        4.17080   0.01242   0.00000   0.11019   0.11019   4.28099
    A1        1.87484   0.00542   0.00000   0.03625   0.03602   1.91086
    A2        1.84804   0.00416   0.00000   0.01901   0.01827   1.86631
    A3        1.95693  -0.00495   0.00000  -0.03192  -0.03241   1.92452
    A4        1.87483   0.00542   0.00000   0.03626   0.03603   1.91086
    A5        1.94663  -0.00393   0.00000  -0.02056  -0.02080   1.92583
    A6        1.95693  -0.00495   0.00000  -0.03192  -0.03241   1.92451
    A7        2.24798  -0.00576   0.00000  -0.02269  -0.02269   2.22529
    A8        1.91832   0.01014   0.00000   0.03996   0.03996   1.95828
    A9        2.11689  -0.00438   0.00000  -0.01727  -0.01727   2.09961
    D1        2.10347   0.00075   0.00000   0.00984   0.00963   2.11310
    D2       -1.03812   0.00075   0.00000   0.00983   0.00962  -1.02850
    D3        0.00000   0.00000   0.00000   0.00000   0.00000   0.00001
    D4       -3.14159   0.00000   0.00000   0.00000   0.00000  -3.14159
    D5       -2.10346  -0.00075   0.00000  -0.00984  -0.00963  -2.11308
    D6        1.03814  -0.00075   0.00000  -0.00984  -0.00963   1.02851
         Item               Value     Threshold  Converged?
 Maximum Force            0.013699     0.000450     NO 
 RMS     Force            0.006575     0.000300     NO 
 Maximum Displacement     0.125389     0.001800     NO 
 RMS     Displacement     0.036682     0.001200     NO 
 Predicted change in Energy=-1.951268D-03
 GradGradGradGradGradGradGradGradGradGradGradGradGradGradGradGradGradGrad

                          Input orientation:                          
 ---------------------------------------------------------------------
 Center     Atomic      Atomic             Coordinates (Angstroms)
 Number     Number       Type             X           Y           Z
 ---------------------------------------------------------------------
      1          6           0        2.078644    1.109879   -0.000001
      2          1           0        1.782545    1.690751   -0.880002
      3          1           0        3.167133    0.974957   -0.000004
      4          1           0        1.782552    1.690746    0.880007
      5          6           0        1.388963   -0.220205   -0.000001
      6          8           0        1.892764   -1.296080    0.000001
      7         53           0       -0.867090   -0.014624    0.000001
 ---------------------------------------------------------------------
                    Distance matrix (angstroms):
                    1          2          3          4          5
     1  C    0.000000
     2  H    1.095212   0.000000
     3  H    1.096819   1.789928   0.000000
     4  H    1.095212   1.760009   1.789927   0.000000
     5  C    1.498260   2.140341   2.142499   2.140341   0.000000
     6  O    2.413128   3.115720   2.604155   3.115716   1.187991
     7  I    3.153071   3.271586   4.153821   3.271589   2.265400
                    6          7
     6  O    0.000000
     7  I    3.042848   0.000000
 Stoichiometry    C2H3IO
 Framework group  C1[X(C2H3IO)]
 Deg. of freedom    15
 Full point group                 C1      NOp   1
 Largest Abelian subgroup         C1      NOp   1
 Largest concise Abelian subgroup C1      NOp   1
                         Standard orientation:                         
 ---------------------------------------------------------------------
 Center     Atomic      Atomic             Coordinates (Angstroms)
 Number     Number       Type             X           Y           Z
 ---------------------------------------------------------------------
      1          6           0       -2.146375   -1.081390   -0.000001
      2          1           0       -1.863293   -1.668715   -0.880003
      3          1           0       -3.231588   -0.922247   -0.000005
      4          1           0       -1.863300   -1.668710    0.880006
      5          6           0       -1.427228    0.232996   -0.000002
      6          8           0       -1.906931    1.319830    0.000000
      7         53           0        0.823684   -0.022804    0.000000
 ---------------------------------------------------------------------
 Rotational constants (GHZ):     10.1015854      2.1042046      1.7603897
 Basis read from rwf:  (5D, 7F)
 Pseudo-potential data read from rwf file.
 There are    96 symmetry adapted basis functions of A   symmetry.
 Integral buffers will be    262144 words long.
 Raffenetti 2 integral format.
 Two-electron integral symmetry is turned on.
    96 basis functions,   222 primitive gaussians,   102 cartesian basis functions
    38 alpha electrons       38 beta electrons
       nuclear repulsion energy       288.2849945412 Hartrees.
 NAtoms=    7 NActive=    7 NUniq=    7 SFac= 7.50D-01 NAtFMM=   80 NAOKFM=F Big=F
 One-electron integrals computed using PRISM.
   1 Symmetry operations used in ECPInt.
 ECPInt:  NShTT=     630 NPrTT=    4123 LenC2=     619 LenP2D=    3158.
 LDataN:  DoStor=T MaxTD1= 4 Len=   56
 NBasis=    96 RedAO= T  NBF=    96
 NBsUse=    96 1.00D-06 NBFU=    96
 Defaulting to unpruned grid for atomic number  53.
 Initial guess read from the read-write file.
 B after Tr=     0.000000    0.000000    0.000000
         Rot=    1.000000    0.000000    0.000000    0.000000 Ang=   0.00 deg.
 Initial guess orbital symmetries:
       Occupied  (A) (A) (A) (A) (A) (A) (A) (A) (A) (A) (A) (A)
                 (A) (A) (A) (A) (A) (A) (A) (A) (A) (A) (A) (A)
                 (A) (A) (A) (A) (A) (A) (A) (A) (A) (A) (A) (A)
                 (A) (A)
       Virtual   (A) (A) (A) (A) (A) (A) (A) (A) (A) (A) (A) (A)
                 (A) (A) (A) (A) (A) (A) (A) (A) (A) (A) (A) (A)
                 (A) (A) (A) (A) (A) (A) (A) (A) (A) (A) (A) (A)
                 (A) (A) (A) (A) (A) (A) (A) (A) (A) (A) (A) (A)
                 (A) (A) (A) (A) (A) (A) (A) (A) (A) (A)
 Harris functional with IExCor=  402 diagonalized for initial guess.
 ExpMin= 4.38D-02 ExpMax= 2.75D+05 ExpMxC= 4.12D+04 IAcc=2 IRadAn=         0 AccDes= 0.00D+00
 HarFok:  IExCor=  402 AccDes= 0.00D+00 IRadAn=         0 IDoV= 1
 ScaDFX=  1.000000  1.000000  1.000000  1.000000
 Defaulting to unpruned grid for atomic number  53.
 FoFCou: FMM=F IPFlag=           0 FMFlag=      100000 FMFlg1=           0
         NFxFlg=           0 DoJE=T BraDBF=F KetDBF=T FulRan=T
         Omega=  0.000000  0.000000  1.000000  0.000000  0.000000 ICntrl=     500 IOpCl=  0
         NMat0=    1 NMatS0=    1 NMatT0=    0 NMatD0=    1 NMtDS0=    0 NMtDT0=    0
         I1Cent=           4 NGrid=           0.
 Petite list used in FoFCou.
 Requested convergence on RMS density matrix=1.00D-08 within 128 cycles.
 Requested convergence on MAX density matrix=1.00D-06.
 Requested convergence on             energy=1.00D-06.
 No special actions if energy rises.
 Keep R1 ints in memory in canonical form, NReq=14836775.
 Defaulting to unpruned grid for atomic number  53.
 SCF Done:  E(RB3LYP) =  -7073.11297795     A.U. after   13 cycles
             Convg  =    0.5907D-08             -V/T =  2.0017
   1 Symmetry operations used in ECPInt.
 ECPInt:  NShTT=     630 NPrTT=    4123 LenC2=     619 LenP2D=    3158.
 LDataN:  DoStor=T MaxTD1= 5 Len=  102
 Calling FoFJK, ICntrl=      2127 FMM=F ISym2X=0 I1Cent= 0 IOpClX= 0 NMat=1 NMatS=1 NMatT=0.
 Defaulting to unpruned grid for atomic number  53.
 ***** Axes restored to original set *****
 -------------------------------------------------------------------
 Center     Atomic                   Forces (Hartrees/Bohr)
 Number     Number              X              Y              Z
 -------------------------------------------------------------------
      1        6           0.004463142    0.007248326    0.000000123
      2        1          -0.001293847   -0.001153661   -0.000146709
      3        1          -0.001761818   -0.002266545   -0.000000098
      4        1          -0.001293938   -0.001153750    0.000146590
      5        6           0.001939742   -0.004115188    0.000000247
      6        8          -0.002763274    0.001877942   -0.000000108
      7       53           0.000709994   -0.000437124   -0.000000045
 -------------------------------------------------------------------
 Cartesian Forces:  Max     0.007248326 RMS     0.002383549

 GradGradGradGradGradGradGradGradGradGradGradGradGradGradGradGradGradGrad
 Berny optimization.
 Using GEDIIS/GDIIS optimizer.
 Internal  Forces:  Max     0.002872184 RMS     0.001528328
 Search for a local minimum.
 Step number   2 out of a maximum of   31
 All quantities printed in internal units (Hartrees-Bohrs-Radians)
 Mixed Optimization -- RFO/linear search
 Update second derivatives using D2CorX and points    1    2
 DE= -2.02D-03 DEPred=-1.95D-03 R= 1.04D+00
 SS=  1.41D+00  RLast= 1.51D-01 DXNew= 5.0454D-01 4.5277D-01
 Trust test= 1.04D+00 RLast= 1.51D-01 DXMaxT set to 4.53D-01
 Use linear search instead of GDIIS.
     Eigenvalues ---    0.01048   0.01048   0.07465   0.07569   0.11278
     Eigenvalues ---    0.13895   0.16000   0.16075   0.24513   0.26541
     Eigenvalues ---    0.32624   0.33118   0.33495   0.34033   1.17571
     Eigenvalues --- 1000.000001000.000001000.000001000.000001000.00000
     Eigenvalues --- 1000.00000
 RFO step:  Lambda=-2.32646700D-04 EMin= 1.04805561D-02
 Quartic linear search produced a step of  0.10305.
 Iteration  1 RMS(Cart)=  0.00778542 RMS(Int)=  0.00014265
 Iteration  2 RMS(Cart)=  0.00010764 RMS(Int)=  0.00008797
 Iteration  3 RMS(Cart)=  0.00000002 RMS(Int)=  0.00008797
 Variable       Old X    -DE/DX   Delta X   Delta X   Delta X     New X
                                 (Linear)    (Quad)   (Total)
    R1        2.06965  -0.00014  -0.00194   0.00025  -0.00168   2.06797
    R2        2.07269  -0.00147  -0.00136  -0.00435  -0.00572   2.06697
    R3        2.06965  -0.00014  -0.00194   0.00025  -0.00168   2.06797
    R4        2.83130   0.00243   0.00381   0.00625   0.01007   2.84137
    R5        2.24498  -0.00287   0.00123  -0.00326  -0.00203   2.24295
    R6        4.28099  -0.00075   0.01135  -0.01115   0.00020   4.28119
    A1        1.91086   0.00230   0.00371   0.01508   0.01865   1.92951
    A2        1.86631   0.00140   0.00188   0.00799   0.00967   1.87598
    A3        1.92452  -0.00156  -0.00334  -0.00983  -0.01334   1.91117
    A4        1.91086   0.00230   0.00371   0.01508   0.01865   1.92951
    A5        1.92583  -0.00270  -0.00214  -0.01729  -0.01958   1.90625
    A6        1.92451  -0.00156  -0.00334  -0.00983  -0.01334   1.91117
    A7        2.22529   0.00202  -0.00234   0.00977   0.00743   2.23272
    A8        1.95828  -0.00021   0.00412  -0.00245   0.00166   1.95994
    A9        2.09961  -0.00181  -0.00178  -0.00731  -0.00909   2.09052
    D1        2.11310   0.00009   0.00099   0.00111   0.00208   2.11518
    D2       -1.02850   0.00009   0.00099   0.00112   0.00209  -1.02641
    D3        0.00001   0.00000   0.00000  -0.00001  -0.00001   0.00000
    D4       -3.14159   0.00000   0.00000   0.00001   0.00001  -3.14158
    D5       -2.11308  -0.00009  -0.00099  -0.00112  -0.00209  -2.11518
    D6        1.02851  -0.00009  -0.00099  -0.00111  -0.00208   1.02643
         Item               Value     Threshold  Converged?
 Maximum Force            0.002872     0.000450     NO 
 RMS     Force            0.001528     0.000300     NO 
 Maximum Displacement     0.019658     0.001800     NO 
 RMS     Displacement     0.007812     0.001200     NO 
 Predicted change in Energy=-1.301214D-04
 GradGradGradGradGradGradGradGradGradGradGradGradGradGradGradGradGradGrad

                          Input orientation:                          
 ---------------------------------------------------------------------
 Center     Atomic      Atomic             Coordinates (Angstroms)
 Number     Number       Type             X           Y           Z
 ---------------------------------------------------------------------
      1          6           0        2.084128    1.119305    0.000000
      2          1           0        1.777496    1.689253   -0.882426
      3          1           0        3.166919    0.964555   -0.000006
      4          1           0        1.777506    1.689250    0.882432
      5          6           0        1.393260   -0.216165    0.000003
      6          8           0        1.889631   -1.294307   -0.000001
      7         53           0       -0.863429   -0.016465   -0.000002
 ---------------------------------------------------------------------
                    Distance matrix (angstroms):
                    1          2          3          4          5
     1  C    0.000000
     2  H    1.094322   0.000000
     3  H    1.093793   1.798430   0.000000
     4  H    1.094322   1.764858   1.798429   0.000000
     5  C    1.503588   2.134698   2.130719   2.134697   0.000000
     6  O    2.421435   3.113338   2.594980   3.113337   1.186918
     7  I    3.158808   3.265369   4.148025   3.265378   2.265508
                    6          7
     6  O    0.000000
     7  I    3.035164   0.000000
 Stoichiometry    C2H3IO
 Framework group  C1[X(C2H3IO)]
 Deg. of freedom    15
 Full point group                 C1      NOp   1
 Largest Abelian subgroup         C1      NOp   1
 Largest concise Abelian subgroup C1      NOp   1
                         Standard orientation:                         
 ---------------------------------------------------------------------
 Center     Atomic      Atomic             Coordinates (Angstroms)
 Number     Number       Type             X           Y           Z
 ---------------------------------------------------------------------
      1          6           0       -2.152414   -1.084639    0.000001
      2          1           0       -1.860254   -1.662140   -0.882425
      3          1           0       -3.230957   -0.902627   -0.000005
      4          1           0       -1.860265   -1.662136    0.882433
      5          6           0       -1.428081    0.232980    0.000004
      6          8           0       -1.897100    1.323299    0.000000
      7         53           0        0.822854   -0.023576   -0.000001
 ---------------------------------------------------------------------
 Rotational constants (GHZ):     10.0665522      2.1081583      1.7621916
 Basis read from rwf:  (5D, 7F)
 Pseudo-potential data read from rwf file.
 There are    96 symmetry adapted basis functions of A   symmetry.
 Integral buffers will be    262144 words long.
 Raffenetti 2 integral format.
 Two-electron integral symmetry is turned on.
    96 basis functions,   222 primitive gaussians,   102 cartesian basis functions
    38 alpha electrons       38 beta electrons
       nuclear repulsion energy       288.3843893866 Hartrees.
 NAtoms=    7 NActive=    7 NUniq=    7 SFac= 7.50D-01 NAtFMM=   80 NAOKFM=F Big=F
 One-electron integrals computed using PRISM.
   1 Symmetry operations used in ECPInt.
 ECPInt:  NShTT=     630 NPrTT=    4123 LenC2=     619 LenP2D=    3157.
 LDataN:  DoStor=T MaxTD1= 4 Len=   56
 NBasis=    96 RedAO= T  NBF=    96
 NBsUse=    96 1.00D-06 NBFU=    96
 Defaulting to unpruned grid for atomic number  53.
 Initial guess read from the read-write file.
 B after Tr=     0.000000    0.000000    0.000000
         Rot=    1.000000    0.000000    0.000000    0.000000 Ang=   0.00 deg.
 Initial guess orbital symmetries:
       Occupied  (A) (A) (A) (A) (A) (A) (A) (A) (A) (A) (A) (A)
                 (A) (A) (A) (A) (A) (A) (A) (A) (A) (A) (A) (A)
                 (A) (A) (A) (A) (A) (A) (A) (A) (A) (A) (A) (A)
                 (A) (A)
       Virtual   (A) (A) (A) (A) (A) (A) (A) (A) (A) (A) (A) (A)
                 (A) (A) (A) (A) (A) (A) (A) (A) (A) (A) (A) (A)
                 (A) (A) (A) (A) (A) (A) (A) (A) (A) (A) (A) (A)
                 (A) (A) (A) (A) (A) (A) (A) (A) (A) (A) (A) (A)
                 (A) (A) (A) (A) (A) (A) (A) (A) (A) (A)
 Requested convergence on RMS density matrix=1.00D-08 within 128 cycles.
 Requested convergence on MAX density matrix=1.00D-06.
 Requested convergence on             energy=1.00D-06.
 No special actions if energy rises.
 Keep R1 ints in memory in canonical form, NReq=14836775.
 Defaulting to unpruned grid for atomic number  53.
 SCF Done:  E(RB3LYP) =  -7073.11311978     A.U. after   10 cycles
             Convg  =    0.3051D-08             -V/T =  2.0017
   1 Symmetry operations used in ECPInt.
 ECPInt:  NShTT=     630 NPrTT=    4123 LenC2=     619 LenP2D=    3157.
 LDataN:  DoStor=T MaxTD1= 5 Len=  102
 Calling FoFJK, ICntrl=      2127 FMM=F ISym2X=0 I1Cent= 0 IOpClX= 0 NMat=1 NMatS=1 NMatT=0.
 Defaulting to unpruned grid for atomic number  53.
 ***** Axes restored to original set *****
 -------------------------------------------------------------------
 Center     Atomic                   Forces (Hartrees/Bohr)
 Number     Number              X              Y              Z
 -------------------------------------------------------------------
      1        6           0.000106012    0.000833060    0.000000336
      2        1          -0.000076234   -0.000012607   -0.000178141
      3        1           0.000211004   -0.000046336    0.000000027
      4        1          -0.000076166   -0.000012460    0.000178135
      5        6           0.000411636   -0.002086869   -0.000000886
      6        8          -0.000821238    0.001283915    0.000000355
      7       53           0.000244985    0.000041298    0.000000174
 -------------------------------------------------------------------
 Cartesian Forces:  Max     0.002086869 RMS     0.000606958

 GradGradGradGradGradGradGradGradGradGradGradGradGradGradGradGradGradGrad
 Berny optimization.
 Using GEDIIS/GDIIS optimizer.
 Internal  Forces:  Max     0.001509476 RMS     0.000398183
 Search for a local minimum.
 Step number   3 out of a maximum of   31
 All quantities printed in internal units (Hartrees-Bohrs-Radians)
 Mixed Optimization -- En-DIIS/RFO-DIIS
 Update second derivatives using D2CorX and points    1    2    3
 DE= -1.42D-04 DEPred=-1.30D-04 R= 1.09D+00
 SS=  1.41D+00  RLast= 4.28D-02 DXNew= 7.6147D-01 1.2835D-01
 Trust test= 1.09D+00 RLast= 4.28D-02 DXMaxT set to 4.53D-01
 Use linear search instead of GDIIS.
     Eigenvalues ---    0.01048   0.01048   0.07646   0.07706   0.11205
     Eigenvalues ---    0.13394   0.16000   0.16226   0.24459   0.26239
     Eigenvalues ---    0.32360   0.33118   0.33468   0.33920   1.16587
     Eigenvalues --- 1000.000001000.000001000.000001000.000001000.00000
     Eigenvalues --- 1000.00000
 RFO step:  Lambda=-4.79677883D-06 EMin= 1.04805561D-02
 Quartic linear search produced a step of  0.07223.
 Iteration  1 RMS(Cart)=  0.00118389 RMS(Int)=  0.00000504
 Iteration  2 RMS(Cart)=  0.00000092 RMS(Int)=  0.00000495
 Variable       Old X    -DE/DX   Delta X   Delta X   Delta X     New X
                                 (Linear)    (Quad)   (Total)
    R1        2.06797   0.00016  -0.00012   0.00047   0.00035   2.06832
    R2        2.06697   0.00022  -0.00041   0.00095   0.00054   2.06751
    R3        2.06797   0.00016  -0.00012   0.00047   0.00035   2.06832
    R4        2.84137   0.00075   0.00073   0.00193   0.00266   2.84403
    R5        2.24295  -0.00151  -0.00015  -0.00117  -0.00132   2.24163
    R6        4.28119  -0.00024   0.00001  -0.00141  -0.00139   4.27980
    A1        1.92951   0.00005   0.00135  -0.00060   0.00074   1.93024
    A2        1.87598   0.00013   0.00070   0.00042   0.00111   1.87709
    A3        1.91117  -0.00013  -0.00096  -0.00023  -0.00121   1.90997
    A4        1.92951   0.00005   0.00135  -0.00060   0.00074   1.93024
    A5        1.90625   0.00002  -0.00141   0.00122  -0.00020   1.90605
    A6        1.91117  -0.00013  -0.00096  -0.00023  -0.00120   1.90997
    A7        2.23272   0.00040   0.00054   0.00103   0.00157   2.23428
    A8        1.95994  -0.00033   0.00012  -0.00120  -0.00108   1.95887
    A9        2.09052  -0.00007  -0.00066   0.00017  -0.00049   2.09004
    D1        2.11518   0.00000   0.00015  -0.00010   0.00005   2.11523
    D2       -1.02641   0.00000   0.00015  -0.00014   0.00001  -1.02640
    D3        0.00000   0.00000   0.00000   0.00002   0.00002   0.00002
    D4       -3.14158   0.00000   0.00000  -0.00002  -0.00002   3.14158
    D5       -2.11518   0.00000  -0.00015   0.00014  -0.00001  -2.11519
    D6        1.02643   0.00000  -0.00015   0.00010  -0.00005   1.02637
         Item               Value     Threshold  Converged?
 Maximum Force            0.001509     0.000450     NO 
 RMS     Force            0.000398     0.000300     NO 
 Maximum Displacement     0.002269     0.001800     NO 
 RMS     Displacement     0.001184     0.001200     YES
 Predicted change in Energy=-3.054731D-06
 GradGradGradGradGradGradGradGradGradGradGradGradGradGradGradGradGradGrad

                          Input orientation:                          
 ---------------------------------------------------------------------
 Center     Atomic      Atomic             Coordinates (Angstroms)
 Number     Number       Type             X           Y           Z
 ---------------------------------------------------------------------
      1          6           0        2.084520    1.120019   -0.000002
      2          1           0        1.776803    1.688947   -0.882937
      3          1           0        3.167629    0.965475    0.000001
      4          1           0        1.776797    1.688937    0.882938
      5          6           0        1.393578   -0.216994   -0.000012
      6          8           0        1.888430   -1.295065    0.000003
      7         53           0       -0.862247   -0.015893    0.000010
 ---------------------------------------------------------------------
                    Distance matrix (angstroms):
                    1          2          3          4          5
     1  C    0.000000
     2  H    1.094506   0.000000
     3  H    1.094079   1.799275   0.000000
     4  H    1.094506   1.765876   1.799275   0.000000
     5  C    1.504994   2.135188   2.132016   2.135189   0.000000
     6  O    2.423032   3.113900   2.597382   3.113889   1.186219
     7  I    3.158122   3.263535   4.147648   3.263520   2.264771
                    6          7
     6  O    0.000000
     7  I    3.033563   0.000000
 Stoichiometry    C2H3IO
 Framework group  C1[X(C2H3IO)]
 Deg. of freedom    15
 Full point group                 C1      NOp   1
 Largest Abelian subgroup         C1      NOp   1
 Largest concise Abelian subgroup C1      NOp   1
                         Standard orientation:                         
 ---------------------------------------------------------------------
 Center     Atomic      Atomic             Coordinates (Angstroms)
 Number     Number       Type             X           Y           Z
 ---------------------------------------------------------------------
      1          6           0        2.151887   -1.085412    0.000008
      2          1           0        1.858520   -1.661871    0.882944
      3          1           0        3.230784   -0.903781    0.000005
      4          1           0        1.858514   -1.661861   -0.882932
      5          6           0        1.427664    0.233871    0.000018
      6          8           0        1.895352    1.324001    0.000003
      7         53           0       -0.822414   -0.023684   -0.000004
 ---------------------------------------------------------------------
 Rotational constants (GHZ):     10.0551275      2.1103365      1.7633845
 Basis read from rwf:  (5D, 7F)
 Pseudo-potential data read from rwf file.
 There are    96 symmetry adapted basis functions of A   symmetry.
 Integral buffers will be    262144 words long.
 Raffenetti 2 integral format.
 Two-electron integral symmetry is turned on.
    96 basis functions,   222 primitive gaussians,   102 cartesian basis functions
    38 alpha electrons       38 beta electrons
       nuclear repulsion energy       288.4575838443 Hartrees.
 NAtoms=    7 NActive=    7 NUniq=    7 SFac= 7.50D-01 NAtFMM=   80 NAOKFM=F Big=F
 One-electron integrals computed using PRISM.
   1 Symmetry operations used in ECPInt.
 ECPInt:  NShTT=     630 NPrTT=    4123 LenC2=     619 LenP2D=    3158.
 LDataN:  DoStor=T MaxTD1= 4 Len=   56
 NBasis=    96 RedAO= T  NBF=    96
 NBsUse=    96 1.00D-06 NBFU=    96
 Defaulting to unpruned grid for atomic number  53.
 Initial guess read from the read-write file.
 B after Tr=     0.000000    0.000000    0.000000
         Rot=    1.000000    0.000000    0.000000    0.000000 Ang=   0.00 deg.
 Initial guess orbital symmetries:
       Occupied  (A) (A) (A) (A) (A) (A) (A) (A) (A) (A) (A) (A)
                 (A) (A) (A) (A) (A) (A) (A) (A) (A) (A) (A) (A)
                 (A) (A) (A) (A) (A) (A) (A) (A) (A) (A) (A) (A)
                 (A) (A)
       Virtual   (A) (A) (A) (A) (A) (A) (A) (A) (A) (A) (A) (A)
                 (A) (A) (A) (A) (A) (A) (A) (A) (A) (A) (A) (A)
                 (A) (A) (A) (A) (A) (A) (A) (A) (A) (A) (A) (A)
                 (A) (A) (A) (A) (A) (A) (A) (A) (A) (A) (A) (A)
                 (A) (A) (A) (A) (A) (A) (A) (A) (A) (A)
 Requested convergence on RMS density matrix=1.00D-08 within 128 cycles.
 Requested convergence on MAX density matrix=1.00D-06.
 Requested convergence on             energy=1.00D-06.
 No special actions if energy rises.
 Keep R1 ints in memory in canonical form, NReq=14836775.
 Defaulting to unpruned grid for atomic number  53.
 SCF Done:  E(RB3LYP) =  -7073.11312335     A.U. after   14 cycles
             Convg  =    0.7433D-08             -V/T =  2.0017
   1 Symmetry operations used in ECPInt.
 ECPInt:  NShTT=     630 NPrTT=    4123 LenC2=     619 LenP2D=    3158.
 LDataN:  DoStor=T MaxTD1= 5 Len=  102
 Calling FoFJK, ICntrl=      2127 FMM=F ISym2X=0 I1Cent= 0 IOpClX= 0 NMat=1 NMatS=1 NMatT=0.
 Defaulting to unpruned grid for atomic number  53.
 ***** Axes restored to original set *****
 -------------------------------------------------------------------
 Center     Atomic                   Forces (Hartrees/Bohr)
 Number     Number              X              Y              Z
 -------------------------------------------------------------------
      1        6          -0.000064671    0.000152031   -0.000001187
      2        1           0.000019751   -0.000021488   -0.000021333
      3        1           0.000022513    0.000025688   -0.000000070
      4        1           0.000019536   -0.000021979    0.000021292
      5        6           0.000141690   -0.000533420    0.000003258
      6        8          -0.000136854    0.000335623   -0.000001339
      7       53          -0.000001965    0.000063545   -0.000000621
 -------------------------------------------------------------------
 Cartesian Forces:  Max     0.000533420 RMS     0.000149782

 GradGradGradGradGradGradGradGradGradGradGradGradGradGradGradGradGradGrad
 Berny optimization.
 Using GEDIIS/GDIIS optimizer.
 Internal  Forces:  Max     0.000361942 RMS     0.000095571
 Search for a local minimum.
 Step number   4 out of a maximum of   31
 All quantities printed in internal units (Hartrees-Bohrs-Radians)
 Mixed Optimization -- En-DIIS/RFO-DIIS
 Swaping is turned off.
 Update second derivatives using D2CorX and points    1    2    3    4
 DE= -3.58D-06 DEPred=-3.05D-06 R= 1.17D+00
 SS=  1.41D+00  RLast= 4.52D-03 DXNew= 7.6147D-01 1.3549D-02
 Trust test= 1.17D+00 RLast= 4.52D-03 DXMaxT set to 4.53D-01
     Eigenvalues ---    0.01048   0.01048   0.07653   0.07746   0.11053
     Eigenvalues ---    0.13829   0.16000   0.16197   0.23219   0.25739
     Eigenvalues ---    0.31768   0.33118   0.33627   0.33779   1.05900
     Eigenvalues --- 1000.000001000.000001000.000001000.000001000.00000
     Eigenvalues --- 1000.00000
 En-DIIS/RFO-DIIS IScMMF=        0 using points:     4    3
 RFO step:  Lambda=-2.74417298D-07.
 DIIS coeffs:      1.21096     -0.21096
 Iteration  1 RMS(Cart)=  0.00050110 RMS(Int)=  0.00000016
 Iteration  2 RMS(Cart)=  0.00000016 RMS(Int)=  0.00000005
 Variable       Old X    -DE/DX   Delta X   Delta X   Delta X     New X
                                  (DIIS)     (GDIIS)  (Total)
    R1        2.06832   0.00000   0.00007  -0.00008   0.00000   2.06831
    R2        2.06751   0.00002   0.00011  -0.00005   0.00007   2.06758
    R3        2.06832   0.00000   0.00007  -0.00008   0.00000   2.06831
    R4        2.84403   0.00012   0.00056  -0.00001   0.00055   2.84458
    R5        2.24163  -0.00036  -0.00028  -0.00014  -0.00042   2.24121
    R6        4.27980   0.00001  -0.00029   0.00042   0.00012   4.27992
    A1        1.93024  -0.00002   0.00016  -0.00027  -0.00012   1.93012
    A2        1.87709   0.00003   0.00023   0.00021   0.00045   1.87754
    A3        1.90997  -0.00002  -0.00025   0.00006  -0.00019   1.90977
    A4        1.93024  -0.00002   0.00016  -0.00027  -0.00012   1.93012
    A5        1.90605   0.00004  -0.00004   0.00022   0.00018   1.90623
    A6        1.90997  -0.00002  -0.00025   0.00006  -0.00020   1.90977
    A7        2.23428   0.00006   0.00033   0.00003   0.00036   2.23465
    A8        1.95887  -0.00017  -0.00023  -0.00057  -0.00080   1.95807
    A9        2.09004   0.00010  -0.00010   0.00054   0.00044   2.09047
    D1        2.11523  -0.00001   0.00001  -0.00026  -0.00024   2.11498
    D2       -1.02640  -0.00001   0.00000  -0.00006  -0.00006  -1.02646
    D3        0.00002   0.00000   0.00000  -0.00009  -0.00009  -0.00007
    D4        3.14158   0.00000   0.00000   0.00010   0.00009  -3.14151
    D5       -2.11519   0.00001   0.00000   0.00007   0.00007  -2.11512
    D6        1.02637   0.00001  -0.00001   0.00026   0.00025   1.02662
         Item               Value     Threshold  Converged?
 Maximum Force            0.000362     0.000450     YES
 RMS     Force            0.000096     0.000300     YES
 Maximum Displacement     0.001314     0.001800     YES
 RMS     Displacement     0.000501     0.001200     YES
 Predicted change in Energy=-2.308925D-07
 Optimization completed.
    -- Stationary point found.
                           ----------------------------
                           !   Optimized Parameters   !
                           ! (Angstroms and Degrees)  !
 --------------------------                            --------------------------
 ! Name  Definition              Value          Derivative Info.                !
 --------------------------------------------------------------------------------
 ! R1    R(1,2)                  1.0945         -DE/DX =    0.0                 !
 ! R2    R(1,3)                  1.0941         -DE/DX =    0.0                 !
 ! R3    R(1,4)                  1.0945         -DE/DX =    0.0                 !
 ! R4    R(1,5)                  1.505          -DE/DX =    0.0001              !
 ! R5    R(5,6)                  1.1862         -DE/DX =   -0.0004              !
 ! R6    R(5,7)                  2.2648         -DE/DX =    0.0                 !
 ! A1    A(2,1,3)              110.5947         -DE/DX =    0.0                 !
 ! A2    A(2,1,4)              107.5494         -DE/DX =    0.0                 !
 ! A3    A(2,1,5)              109.433          -DE/DX =    0.0                 !
 ! A4    A(3,1,4)              110.5947         -DE/DX =    0.0                 !
 ! A5    A(3,1,5)              109.2086         -DE/DX =    0.0                 !
 ! A6    A(4,1,5)              109.4331         -DE/DX =    0.0                 !
 ! A7    A(1,5,6)              128.0151         -DE/DX =    0.0001              !
 ! A8    A(1,5,7)              112.2347         -DE/DX =   -0.0002              !
 ! A9    A(6,5,7)              119.7502         -DE/DX =    0.0001              !
 ! D1    D(2,1,5,6)            121.1936         -DE/DX =    0.0                 !
 ! D2    D(2,1,5,7)            -58.8084         -DE/DX =    0.0                 !
 ! D3    D(3,1,5,6)              0.0012         -DE/DX =    0.0                 !
 ! D4    D(3,1,5,7)           -180.0008         -DE/DX =    0.0                 !
 ! D5    D(4,1,5,6)           -121.1912         -DE/DX =    0.0                 !
 ! D6    D(4,1,5,7)             58.8068         -DE/DX =    0.0                 !
 --------------------------------------------------------------------------------
 GradGradGradGradGradGradGradGradGradGradGradGradGradGradGradGradGradGrad

                          Input orientation:                          
 ---------------------------------------------------------------------
 Center     Atomic      Atomic             Coordinates (Angstroms)
 Number     Number       Type             X           Y           Z
 ---------------------------------------------------------------------
      1          6           0        2.084520    1.120019   -0.000002
      2          1           0        1.776803    1.688947   -0.882937
      3          1           0        3.167629    0.965475    0.000001
      4          1           0        1.776797    1.688937    0.882938
      5          6           0        1.393578   -0.216994   -0.000012
      6          8           0        1.888430   -1.295065    0.000003
      7         53           0       -0.862247   -0.015893    0.000010
 ---------------------------------------------------------------------
                    Distance matrix (angstroms):
                    1          2          3          4          5
     1  C    0.000000
     2  H    1.094506   0.000000
     3  H    1.094079   1.799275   0.000000
     4  H    1.094506   1.765876   1.799275   0.000000
     5  C    1.504994   2.135188   2.132016   2.135189   0.000000
     6  O    2.423032   3.113900   2.597382   3.113889   1.186219
     7  I    3.158122   3.263535   4.147648   3.263520   2.264771
                    6          7
     6  O    0.000000
     7  I    3.033563   0.000000
 Stoichiometry    C2H3IO
 Framework group  C1[X(C2H3IO)]
 Deg. of freedom    15
 Full point group                 C1      NOp   1
 Largest Abelian subgroup         C1      NOp   1
 Largest concise Abelian subgroup C1      NOp   1
                         Standard orientation:                         
 ---------------------------------------------------------------------
 Center     Atomic      Atomic             Coordinates (Angstroms)
 Number     Number       Type             X           Y           Z
 ---------------------------------------------------------------------
      1          6           0        2.151887   -1.085412    0.000008
      2          1           0        1.858520   -1.661871    0.882944
      3          1           0        3.230784   -0.903781    0.000005
      4          1           0        1.858514   -1.661861   -0.882932
      5          6           0        1.427664    0.233871    0.000018
      6          8           0        1.895352    1.324001    0.000003
      7         53           0       -0.822414   -0.023684   -0.000004
 ---------------------------------------------------------------------
 Rotational constants (GHZ):     10.0551275      2.1103365      1.7633845

 **********************************************************************

            Population analysis using the SCF density.

 **********************************************************************

 Orbital symmetries:
       Occupied  (A) (A) (A) (A) (A) (A) (A) (A) (A) (A) (A) (A)
                 (A) (A) (A) (A) (A) (A) (A) (A) (A) (A) (A) (A)
                 (A) (A) (A) (A) (A) (A) (A) (A) (A) (A) (A) (A)
                 (A) (A)
       Virtual   (A) (A) (A) (A) (A) (A) (A) (A) (A) (A) (A) (A)
                 (A) (A) (A) (A) (A) (A) (A) (A) (A) (A) (A) (A)
                 (A) (A) (A) (A) (A) (A) (A) (A) (A) (A) (A) (A)
                 (A) (A) (A) (A) (A) (A) (A) (A) (A) (A) (A) (A)
                 (A) (A) (A) (A) (A) (A) (A) (A) (A) (A)
 The electronic state is 1-A.
 Alpha  occ. eigenvalues -- **********-176.36410-165.74624-165.74469-165.74453
 Alpha  occ. eigenvalues --  -35.80777 -31.31830 -31.31384 -31.31336 -22.95954
 Alpha  occ. eigenvalues --  -22.95861 -22.95828 -22.95521 -22.95520 -19.21358
 Alpha  occ. eigenvalues --  -10.35007 -10.23050  -6.34423  -4.76014  -4.74841
 Alpha  occ. eigenvalues --   -4.74728  -2.02668  -2.02315  -2.02226  -2.01207
 Alpha  occ. eigenvalues --   -2.01205  -1.11846  -0.79508  -0.66088  -0.56297
 Alpha  occ. eigenvalues --   -0.49121  -0.48871  -0.48852  -0.42006  -0.41755
 Alpha  occ. eigenvalues --   -0.29388  -0.27473  -0.26866
 Alpha virt. eigenvalues --   -0.06238  -0.06201  -0.00013   0.03522   0.04368
 Alpha virt. eigenvalues --    0.04630   0.07695   0.08222   0.08682   0.10618
 Alpha virt. eigenvalues --    0.14686   0.15905   0.18723   0.20043   0.20721
 Alpha virt. eigenvalues --    0.23123   0.24501   0.26660   0.26873   0.28025
 Alpha virt. eigenvalues --    0.30281   0.32129   0.35138   0.35408   0.39238
 Alpha virt. eigenvalues --    0.46663   0.50161   0.57063   0.62214   0.62265
 Alpha virt. eigenvalues --    0.69102   0.71481   0.77013   0.84475   0.89077
 Alpha virt. eigenvalues --    0.96686   1.04207   1.07422   1.19776   1.22871
 Alpha virt. eigenvalues --    1.26002   1.31890   1.37051   1.50869   1.59048
 Alpha virt. eigenvalues --    1.67279   1.74168   1.77382   1.83878   2.02406
 Alpha virt. eigenvalues --    2.03728   2.16157   2.27831   2.36529   2.51927
 Alpha virt. eigenvalues --    2.57181   2.83264   3.08612
          Condensed to atoms (all electrons):
              1          2          3          4          5          6
     1  C    5.650525   0.372884   0.386812   0.372884   0.123841  -0.052240
     2  H    0.372884   0.452345  -0.021816  -0.023249  -0.031756   0.000589
     3  H    0.386812  -0.021816   0.464536  -0.021816  -0.058040   0.001882
     4  H    0.372884  -0.023249  -0.021816   0.452343  -0.031756   0.000588
     5  C    0.123841  -0.031756  -0.058040  -0.031756   4.897509   0.388168
     6  O   -0.052240   0.000589   0.001882   0.000588   0.388168   8.026932
     7  I   -0.069264  -0.001368   0.006664  -0.001368   0.276799  -0.112120
              7
     1  C   -0.069264
     2  H   -0.001368
     3  H    0.006664
     4  H   -0.001368
     5  C    0.276799
     6  O   -0.112120
     7  I   53.043177
 Mulliken atomic charges:
              1
     1  C   -0.785442
     2  H    0.252372
     3  H    0.241780
     4  H    0.252373
     5  C    0.435235
     6  O   -0.253799
     7  I   -0.142519
 Sum of Mulliken atomic charges =   0.00000
 Mulliken charges with hydrogens summed into heavy atoms:
              1
     1  C   -0.038917
     5  C    0.435235
     6  O   -0.253799
     7  I   -0.142519
 Sum of Mulliken charges with hydrogens summed into heavy atoms =   0.00000
 Electronic spatial extent (au):  <R**2>=            642.7256
 Charge=              0.0000 electrons
 Dipole moment (field-independent basis, Debye):
    X=              1.6744    Y=             -2.4890    Z=              0.0000  Tot=              2.9998
 Quadrupole moment (field-independent basis, Debye-Ang):
   XX=            -42.9552   YY=            -48.4763   ZZ=            -46.3535
   XY=             -5.3841   XZ=              0.0001   YZ=              0.0000
 Traceless Quadrupole moment (field-independent basis, Debye-Ang):
   XX=              2.9731   YY=             -2.5480   ZZ=             -0.4252
   XY=             -5.3841   XZ=              0.0001   YZ=              0.0000
 Octapole moment (field-independent basis, Debye-Ang**2):
  XXX=            -28.3203  YYY=             -2.9754  ZZZ=             -0.0002  XYY=            -11.0585
  XXY=            -10.8542  XXZ=             -0.0001  XZZ=             -7.4455  YZZ=             -0.0279
  YYZ=             -0.0001  XYZ=              0.0000
 Hexadecapole moment (field-independent basis, Debye-Ang**3):
 XXXX=           -534.0924 YYYY=           -186.9695 ZZZZ=            -66.5168 XXXY=            -15.6705
 XXXZ=             -0.0009 YYYX=             -2.9474 YYYZ=              0.0000 ZZZX=             -0.0010
 ZZZY=              0.0001 XXYY=           -131.6699 XXZZ=           -104.4393 YYZZ=            -39.0649
 XXYZ=              0.0000 YYXZ=             -0.0004 ZZXY=              1.0938
 N-N= 2.884575838443D+02 E-N=-1.735226521467D+04  KE= 7.061350886452D+03
 1|1|UNPC-LAWALM-PC|FOpt|RB3LYP|Gen|C2H3I1O1|LAWALM|27-Feb-2015|0||# op
 t freq b3lyp/gen geom=connectivity gfinput pseudo=read||gen calculatio
 n-iac C H O=6-31+g(d)/I=DGDZVP||0,1|C,2.0845202699,1.1200189717,-0.000
 0018378|H,1.7768031573,1.6889467813,-0.8829374526|H,3.1676293835,0.965
 4750881,0.0000014404|H,1.7767969605,1.6889368423,0.8829382231|C,1.3935
 779783,-0.2169942045,-0.0000122942|O,1.8884300668,-1.2950652254,0.0000
 030183|I,-0.8622468162,-0.0158932534,0.0000099817||Version=IA32W-G09Re
 vA.02|State=1-A|HF=-7073.1131234|RMSD=7.433e-009|RMSF=1.498e-004|Dipol
 e=0.6340329,0.9954493,-0.0000059|Quadrupole=2.0073756,-1.6912684,-0.31
 61072,4.1006972,-0.0000541,0.0000057|PG=C01 [X(C2H3I1O1)]||@


 "MATHEMATICS IS THE ART OF GIVING THE SAME NAME
 TO DIFFERENT THINGS."
                    - H. POINCARE
 Job cpu time:  0 days  0 hours  2 minutes 10.0 seconds.
 File lengths (MBytes):  RWF=      9 Int=      0 D2E=      0 Chk=      2 Scr=      1
 Normal termination of Gaussian 09 at Fri Feb 27 11:25:05 2015.
 Link1:  Proceeding to internal job step number  2.
 ------------------------------------------------------------------
 #N Geom=AllCheck Guess=TCheck SCRF=Check GenChk RB3LYP/ChkBas Freq
 ------------------------------------------------------------------
 1/10=4,29=7,30=1,38=1,40=1/1,3;
 2/12=2,40=1/2;
 3/5=7,6=2,11=2,14=-4,16=1,17=8,24=10,25=1,30=1,67=1,70=2,71=2,74=-5,82=7,116=1/1,2,3;
 4/5=101/1;
 5/5=2,98=1/2;
 8/6=4,10=90,11=11/1;
 11/6=1,8=1,9=11,15=111,16=1/1,2,10;
 10/6=1/2;
 6/7=2,8=2,9=2,10=2,18=1,28=1/1;
 7/8=1,10=1,25=1/1,2,3,16;
 1/10=4,30=1/3;
 99//99;
 --------------------------------------------
 gen calculation-iac C H O=6-31+g(d)/I=DGDZVP
 --------------------------------------------
 Redundant internal coordinates taken from checkpoint file:
 C:\Users\LawalM\Desktop\RCOI\iaclan.chk
 Charge =  0 Multiplicity = 1
 C,0,2.0845202699,1.1200189717,-0.0000018378
 H,0,1.7768031573,1.6889467813,-0.8829374526
 H,0,3.1676293835,0.9654750881,0.0000014404
 H,0,1.7767969605,1.6889368423,0.8829382231
 C,0,1.3935779783,-0.2169942045,-0.0000122942
 O,0,1.8884300668,-1.2950652254,0.0000030183
 I,0,-0.8622468162,-0.0158932534,0.0000099817
 Recover connectivity data from disk.

 GradGradGradGradGradGradGradGradGradGradGradGradGradGradGradGradGradGrad
 Berny optimization.
 Initialization pass.
                           ----------------------------
                           !    Initial Parameters    !
                           ! (Angstroms and Degrees)  !
 --------------------------                            --------------------------
 ! Name  Definition              Value          Derivative Info.                !
 --------------------------------------------------------------------------------
 ! R1    R(1,2)                  1.0945         calculate D2E/DX2 analytically  !
 ! R2    R(1,3)                  1.0941         calculate D2E/DX2 analytically  !
 ! R3    R(1,4)                  1.0945         calculate D2E/DX2 analytically  !
 ! R4    R(1,5)                  1.505          calculate D2E/DX2 analytically  !
 ! R5    R(5,6)                  1.1862         calculate D2E/DX2 analytically  !
 ! R6    R(5,7)                  2.2648         calculate D2E/DX2 analytically  !
 ! A1    A(2,1,3)              110.5947         calculate D2E/DX2 analytically  !
 ! A2    A(2,1,4)              107.5494         calculate D2E/DX2 analytically  !
 ! A3    A(2,1,5)              109.433          calculate D2E/DX2 analytically  !
 ! A4    A(3,1,4)              110.5947         calculate D2E/DX2 analytically  !
 ! A5    A(3,1,5)              109.2086         calculate D2E/DX2 analytically  !
 ! A6    A(4,1,5)              109.4331         calculate D2E/DX2 analytically  !
 ! A7    A(1,5,6)              128.0151         calculate D2E/DX2 analytically  !
 ! A8    A(1,5,7)              112.2347         calculate D2E/DX2 analytically  !
 ! A9    A(6,5,7)              119.7502         calculate D2E/DX2 analytically  !
 ! D1    D(2,1,5,6)            121.1936         calculate D2E/DX2 analytically  !
 ! D2    D(2,1,5,7)            -58.8084         calculate D2E/DX2 analytically  !
 ! D3    D(3,1,5,6)              0.0012         calculate D2E/DX2 analytically  !
 ! D4    D(3,1,5,7)            179.9992         calculate D2E/DX2 analytically  !
 ! D5    D(4,1,5,6)           -121.1912         calculate D2E/DX2 analytically  !
 ! D6    D(4,1,5,7)             58.8068         calculate D2E/DX2 analytically  !
 --------------------------------------------------------------------------------
 Trust Radius=3.00D-01 FncErr=1.00D-07 GrdErr=1.00D-07
 Number of steps in this run=   2 maximum allowed number of steps=   2.
 GradGradGradGradGradGradGradGradGradGradGradGradGradGradGradGradGradGrad

                          Input orientation:                          
 ---------------------------------------------------------------------
 Center     Atomic      Atomic             Coordinates (Angstroms)
 Number     Number       Type             X           Y           Z
 ---------------------------------------------------------------------
      1          6           0        2.084520    1.120019   -0.000002
      2          1           0        1.776803    1.688947   -0.882937
      3          1           0        3.167629    0.965475    0.000001
      4          1           0        1.776797    1.688937    0.882938
      5          6           0        1.393578   -0.216994   -0.000012
      6          8           0        1.888430   -1.295065    0.000003
      7         53           0       -0.862247   -0.015893    0.000010
 ---------------------------------------------------------------------
                    Distance matrix (angstroms):
                    1          2          3          4          5
     1  C    0.000000
     2  H    1.094506   0.000000
     3  H    1.094079   1.799275   0.000000
     4  H    1.094506   1.765876   1.799275   0.000000
     5  C    1.504994   2.135188   2.132016   2.135189   0.000000
     6  O    2.423032   3.113900   2.597382   3.113889   1.186219
     7  I    3.158122   3.263535   4.147648   3.263520   2.264771
                    6          7
     6  O    0.000000
     7  I    3.033563   0.000000
 Stoichiometry    C2H3IO
 Framework group  C1[X(C2H3IO)]
 Deg. of freedom    15
 Full point group                 C1      NOp   1
 Largest Abelian subgroup         C1      NOp   1
 Largest concise Abelian subgroup C1      NOp   1
                         Standard orientation:                         
 ---------------------------------------------------------------------
 Center     Atomic      Atomic             Coordinates (Angstroms)
 Number     Number       Type             X           Y           Z
 ---------------------------------------------------------------------
      1          6           0        2.151887   -1.085412    0.000008
      2          1           0        1.858520   -1.661871    0.882944
      3          1           0        3.230784   -0.903781    0.000005
      4          1           0        1.858514   -1.661861   -0.882932
      5          6           0        1.427664    0.233871    0.000018
      6          8           0        1.895352    1.324001    0.000003
      7         53           0       -0.822414   -0.023684   -0.000004
 ---------------------------------------------------------------------
 Rotational constants (GHZ):     10.0551275      2.1103365      1.7633845
 Basis read from chk: C:\Users\LawalM\Desktop\RCOI\iaclan.chk (5D, 7F)
 AO basis set in the form of general basis input (Overlap normalization):
      1 0
 S   6 1.00       0.000000000000
      0.3047524880D+04  0.1834737132D-02
      0.4573695180D+03  0.1403732281D-01
      0.1039486850D+03  0.6884262226D-01
      0.2921015530D+02  0.2321844432D+00
      0.9286662960D+01  0.4679413484D+00
      0.3163926960D+01  0.3623119853D+00
 SP   3 1.00       0.000000000000
      0.7868272350D+01 -0.1193324198D+00  0.6899906659D-01
      0.1881288540D+01 -0.1608541517D+00  0.3164239610D+00
      0.5442492580D+00  0.1143456438D+01  0.7443082909D+00
 SP   1 1.00       0.000000000000
      0.1687144782D+00  0.1000000000D+01  0.1000000000D+01
 SP   1 1.00       0.000000000000
      0.4380000000D-01  0.1000000000D+01  0.1000000000D+01
 D   1 1.00       0.000000000000
      0.8000000000D+00  0.1000000000D+01
 ****
      2 0
 S   3 1.00       0.000000000000
      0.1873113696D+02  0.3349460434D-01
      0.2825394365D+01  0.2347269535D+00
      0.6401216923D+00  0.8137573261D+00
 S   1 1.00       0.000000000000
      0.1612777588D+00  0.1000000000D+01
 ****
      3 0
 S   3 1.00       0.000000000000
      0.1873113696D+02  0.3349460434D-01
      0.2825394365D+01  0.2347269535D+00
      0.6401216923D+00  0.8137573261D+00
 S   1 1.00       0.000000000000
      0.1612777588D+00  0.1000000000D+01
 ****
      4 0
 S   3 1.00       0.000000000000
      0.1873113696D+02  0.3349460434D-01
      0.2825394365D+01  0.2347269535D+00
      0.6401216923D+00  0.8137573261D+00
 S   1 1.00       0.000000000000
      0.1612777588D+00  0.1000000000D+01
 ****
      5 0
 S   6 1.00       0.000000000000
      0.3047524880D+04  0.1834737132D-02
      0.4573695180D+03  0.1403732281D-01
      0.1039486850D+03  0.6884262226D-01
      0.2921015530D+02  0.2321844432D+00
      0.9286662960D+01  0.4679413484D+00
      0.3163926960D+01  0.3623119853D+00
 SP   3 1.00       0.000000000000
      0.7868272350D+01 -0.1193324198D+00  0.6899906659D-01
      0.1881288540D+01 -0.1608541517D+00  0.3164239610D+00
      0.5442492580D+00  0.1143456438D+01  0.7443082909D+00
 SP   1 1.00       0.000000000000
      0.1687144782D+00  0.1000000000D+01  0.1000000000D+01
 SP   1 1.00       0.000000000000
      0.4380000000D-01  0.1000000000D+01  0.1000000000D+01
 D   1 1.00       0.000000000000
      0.8000000000D+00  0.1000000000D+01
 ****
      6 0
 S   6 1.00       0.000000000000
      0.5484671660D+04  0.1831074430D-02
      0.8252349460D+03  0.1395017220D-01
      0.1880469580D+03  0.6844507810D-01
      0.5296450000D+02  0.2327143360D+00
      0.1689757040D+02  0.4701928980D+00
      0.5799635340D+01  0.3585208530D+00
 SP   3 1.00       0.000000000000
      0.1553961625D+02 -0.1107775495D+00  0.7087426823D-01
      0.3599933586D+01 -0.1480262627D+00  0.3397528391D+00
      0.1013761750D+01  0.1130767015D+01  0.7271585773D+00
 SP   1 1.00       0.000000000000
      0.2700058226D+00  0.1000000000D+01  0.1000000000D+01
 SP   1 1.00       0.000000000000
      0.8450000000D-01  0.1000000000D+01  0.1000000000D+01
 D   1 1.00       0.000000000000
      0.8000000000D+00  0.1000000000D+01
 ****
      7 0
 S   6 1.00       0.000000000000
      0.2748454600D+06 -0.1620740003D-02
      0.4123318800D+05 -0.1239758002D-01
      0.9366733300D+04 -0.6220073012D-01
      0.2638408100D+04 -0.2162937604D+00
      0.8587744000D+03 -0.4623949009D+00
      0.2963025200D+03 -0.3848416708D+00
 S   3 1.00       0.000000000000
      0.5618372200D+03  0.1142284296D+00
      0.6904014600D+02 -0.6322909279D+00
      0.2998063500D+02 -0.4420178785D+00
 S   3 1.00       0.000000000000
      0.5486968400D+02 -0.2707986079D+00
      0.9995458500D+01  0.8426472035D+00
      0.4588867800D+01  0.3091657076D+00
 S   3 1.00       0.000000000000
      0.9120825600D+01 -0.3410223488D+00
      0.2119678700D+01  0.8100649772D+00
      0.9708925500D+00  0.3967536886D+00
 S   2 1.00       0.000000000000
      0.1587996500D+01  0.4220458839D+00
[...]
  XXX=            -28.3203  YYY=             -2.9754  ZZZ=             -0.0002  XYY=            -11.0585
  XXY=            -10.8542  XXZ=             -0.0001  XZZ=             -7.4455  YZZ=             -0.0279
  YYZ=             -0.0001  XYZ=              0.0000
 Hexadecapole moment (field-independent basis, Debye-Ang**3):
 XXXX=           -534.0924 YYYY=           -186.9695 ZZZZ=            -66.5168 XXXY=            -15.6705
 XXXZ=             -0.0009 YYYX=             -2.9474 YYYZ=              0.0000 ZZZX=             -0.0010
 ZZZY=              0.0001 XXYY=           -131.6699 XXZZ=           -104.4393 YYZZ=            -39.0649
 XXYZ=              0.0000 YYXZ=             -0.0004 ZZXY=              1.0938
 N-N= 2.884575838443D+02 E-N=-1.735226521577D+04  KE= 7.061350886844D+03
  Exact polarizability:  85.781   2.944  53.374   0.000   0.000  42.706
 Approx polarizability: 146.918  18.952  85.424   0.001   0.000  64.571
   1 Symmetry operations used in ECPInt.
 ECPInt:  NShTT=     630 NPrTT=    4123 LenC2=     631 LenP2D=    3887.
 LDataN:  DoStor=T MaxTD1= 6 Len=  172
 Calling FoFJK, ICntrl=    100127 FMM=F ISym2X=0 I1Cent= 0 IOpClX= 0 NMat=1 NMatS=1 NMatT=0.
 Defaulting to unpruned grid for atomic number  53.
 Full mass-weighted force constant matrix:
 Low frequencies ---  -14.8556   -0.0196    0.0434    0.0448    3.4169    5.9981
 Low frequencies ---  128.8165  255.8921  277.5989
 Diagonal vibrational polarizability:
       28.9039915       1.9347083       0.4888237
 Harmonic frequencies (cm**-1), IR intensities (KM/Mole), Raman scattering
 activities (A**4/AMU), depolarization ratios for plane and unpolarized
 incident light, reduced masses (AMU), force constants (mDyne/A),
 and normal coordinates:
                     1                      2                      3
                     A                      A                      A
 Frequencies --   128.8055               255.8917               277.5980
 Red. masses --     1.0402                 4.8148                 6.3571
 Frc consts  --     0.0102                 0.1858                 0.2886
 IR Inten    --     0.1053                18.4766                 3.7627
  Atom  AN      X      Y      Z        X      Y      Z        X      Y      Z
     1   6     0.00   0.00   0.01     0.40   0.02   0.00    -0.22   0.05   0.00
     2   1    -0.42  -0.28  -0.32     0.52  -0.03   0.00    -0.46   0.16  -0.01
     3   1     0.00   0.00   0.54     0.36   0.26   0.00    -0.15  -0.37   0.00
     4   1     0.42   0.28  -0.32     0.52  -0.03   0.00    -0.46   0.16   0.01
     5   6     0.00   0.00   0.01     0.20  -0.07   0.00     0.20   0.26   0.00
     6   8     0.00   0.00  -0.04     0.17  -0.07   0.00     0.43   0.15   0.00
     7  53     0.00   0.00   0.00    -0.09   0.01   0.00    -0.04  -0.05   0.00
                     4                      5                      6
                     A                      A                      A
 Frequencies --   465.3519               545.1285               941.6825
 Red. masses --     3.2931                 4.0356                 3.2683
 Frc consts  --     0.4202                 0.7066                 1.7076
 IR Inten    --     0.5165               128.4049                86.4150
  Atom  AN      X      Y      Z        X      Y      Z        X      Y      Z
     1   6     0.00   0.00   0.03     0.07  -0.24   0.00    -0.04   0.30   0.00
     2   1    -0.33   0.42   0.20    -0.24  -0.10  -0.01    -0.45   0.42  -0.06
     3   1     0.00   0.00   0.40     0.16  -0.77   0.00     0.04  -0.20   0.00
     4   1     0.33  -0.42   0.20    -0.24  -0.10   0.01    -0.45   0.42   0.06
     5   6     0.00   0.00  -0.41     0.32   0.00   0.00     0.22  -0.18   0.00
     6   8     0.00   0.00   0.16    -0.20   0.20   0.00    -0.08  -0.14   0.00
     7  53     0.00   0.00   0.01    -0.01   0.01   0.00     0.00   0.00   0.00
                     7                      8                      9
                     A                      A                      A
 Frequencies --  1039.9738              1099.2592              1402.5754
 Red. masses --     1.5159                 1.7659                 1.2288
 Frc consts  --     0.9660                 1.2572                 1.4242
 IR Inten    --     0.9249               157.6797                24.7332
  Atom  AN      X      Y      Z        X      Y      Z        X      Y      Z
     1   6     0.00   0.00   0.15    -0.17  -0.02   0.00    -0.06   0.13   0.00
     2   1     0.26  -0.57  -0.15     0.34  -0.10   0.11     0.30  -0.46  -0.25
     3   1     0.00   0.00  -0.36    -0.29   0.75   0.00     0.05  -0.50   0.00
     4   1    -0.26   0.57  -0.15     0.34  -0.10  -0.11     0.30  -0.46   0.25
     5   6     0.00   0.00  -0.15     0.18  -0.06   0.00     0.01  -0.01   0.00
     6   8     0.00   0.00   0.03    -0.03   0.03   0.00     0.00   0.00   0.00
     7  53     0.00   0.00   0.00     0.00   0.00   0.00     0.00   0.00   0.00
                    10                     11                     12
                     A                      A                      A
 Frequencies --  1480.2750              1483.0500              1900.7802
 Red. masses --     1.0453                 1.0475                12.0081
 Frc consts  --     1.3495                 1.3575                25.5615
 IR Inten    --    18.7870                11.1658               491.9803
  Atom  AN      X      Y      Z        X      Y      Z        X      Y      Z
     1   6     0.00   0.00  -0.06     0.05   0.00   0.00     0.01  -0.06   0.00
     2   1     0.47  -0.09   0.06    -0.39  -0.34  -0.36     0.05  -0.18  -0.10
     3   1     0.00   0.00   0.72    -0.04   0.46   0.00     0.00   0.12   0.00
     4   1    -0.48   0.09   0.06    -0.39  -0.34   0.36     0.05  -0.18   0.10
     5   6     0.00   0.00  -0.02     0.01  -0.01   0.00     0.23   0.74   0.00
     6   8     0.00   0.00   0.00     0.00   0.02   0.00    -0.21  -0.50   0.00
     7  53     0.00   0.00   0.00     0.00   0.00   0.00     0.00   0.00   0.00
                    13                     14                     15
                     A                      A                      A
 Frequencies --  3066.3466              3145.9030              3159.5245
 Red. masses --     1.0323                 1.1012                 1.1066
 Frc consts  --     5.7185                 6.4210                 6.5087
 IR Inten    --     2.2570                 0.0034                 8.4482
  Atom  AN      X      Y      Z        X      Y      Z        X      Y      Z
     1   6    -0.02   0.04   0.00     0.00   0.00   0.09    -0.08  -0.05   0.00
     2   1    -0.15  -0.29   0.46     0.19   0.38  -0.56     0.10   0.22  -0.35
     3   1     0.59   0.11   0.00     0.00   0.00   0.01     0.78   0.13   0.00
     4   1    -0.15  -0.29  -0.46    -0.19  -0.38  -0.56     0.10   0.22   0.35
     5   6     0.00   0.00   0.00     0.00   0.00   0.00     0.00   0.00   0.00
     6   8     0.00   0.00   0.00     0.00   0.00   0.00     0.00   0.00   0.00
     7  53     0.00   0.00   0.00     0.00   0.00   0.00     0.00   0.00   0.00

 -------------------
 - Thermochemistry -
 -------------------
 Temperature   298.150 Kelvin.  Pressure   1.00000 Atm.
 Atom     1 has atomic number  6 and mass  12.00000
 Atom     2 has atomic number  1 and mass   1.00783
 Atom     3 has atomic number  1 and mass   1.00783
 Atom     4 has atomic number  1 and mass   1.00783
 Atom     5 has atomic number  6 and mass  12.00000
 Atom     6 has atomic number  8 and mass  15.99491
 Atom     7 has atomic number 53 and mass 126.90040
 Molecular mass:   169.91879 amu.
 Principal axes and moments of inertia in atomic units:
                           1         2         3
     Eigenvalues --   179.48467 855.191191023.45301
           X            0.99861  -0.05263   0.00000
           Y            0.05263   0.99861   0.00000
           Z            0.00000   0.00000   1.00000
 This molecule is an asymmetric top.
 Rotational symmetry number  1.
 Rotational temperatures (Kelvin)      0.48257     0.10128     0.08463
 Rotational constants (GHZ):          10.05513     2.11034     1.76338
 Zero-point vibrational energy     121972.1 (Joules/Mol)
                                   29.15204 (Kcal/Mol)
 Warning -- explicit consideration of   5 degrees of freedom as
           vibrations may cause significant error
 Vibrational temperatures:    185.32   368.17   399.40   669.54   784.32
          (Kelvin)           1354.87  1496.29  1581.59  2017.99  2129.78
                             2133.78  2734.80  4411.78  4526.25  4545.85
 
 Zero-point correction=                           0.046457 (Hartree/Particle)
 Thermal correction to Energy=                    0.051463
 Thermal correction to Enthalpy=                  0.052407
 Thermal correction to Gibbs Free Energy=         0.016456
 Sum of electronic and zero-point Energies=          -7073.066667
 Sum of electronic and thermal Energies=             -7073.061661
 Sum of electronic and thermal Enthalpies=           -7073.060716
 Sum of electronic and thermal Free Energies=        -7073.096668
 
                     E (Thermal)             CV                S
                      KCal/Mol        Cal/Mol-Kelvin    Cal/Mol-Kelvin
 Total                   32.293             15.175             75.665
 Electronic               0.000              0.000              0.000
 Translational            0.889              2.981             41.298
 Rotational               0.889              2.981             26.555
 Vibrational             30.516              9.213              7.813
 Vibration     1          0.611              1.924              2.964
 Vibration     2          0.666              1.753              1.690
 Vibration     3          0.679              1.715              1.548
 Vibration     4          0.823              1.327              0.751
 Vibration     5          0.900              1.150              0.554
                       Q            Log10(Q)             Ln(Q)
 Total Bot       0.269686D-07         -7.569142        -17.428593
 Total V=0       0.630121D+14         13.799424         31.774347
 Vib (Bot)       0.218331D-20        -20.660885        -47.573445
 Vib (Bot)    1  0.158321D+01          0.199539          0.459455
 Vib (Bot)    2  0.760562D+00         -0.118865         -0.273697
 Vib (Bot)    3  0.693465D+00         -0.158975         -0.366054
 Vib (Bot)    4  0.363882D+00         -0.439039         -1.010926
 Vib (Bot)    5  0.289226D+00         -0.538762         -1.240546
 Vib (V=0)       0.510130D+01          0.707681          1.629495
 Vib (V=0)    1  0.216029D+01          0.334512          0.770242
 Vib (V=0)    2  0.141020D+01          0.149279          0.343728
 Vib (V=0)    3  0.135492D+01          0.131915          0.303745
 Vib (V=0)    4  0.111839D+01          0.048594          0.111893
 Vib (V=0)    5  0.107763D+01          0.032468          0.074760
 Electronic      0.100000D+01          0.000000          0.000000
 Translational   0.870597D+08          7.939817         18.282105
 Rotational      0.141881D+06          5.151926         11.862747
 ***** Axes restored to original set *****
 -------------------------------------------------------------------
 Center     Atomic                   Forces (Hartrees/Bohr)
 Number     Number              X              Y              Z
 -------------------------------------------------------------------
      1        6          -0.000064671    0.000152030   -0.000001187
      2        1           0.000019751   -0.000021488   -0.000021333
      3        1           0.000022513    0.000025688   -0.000000070
      4        1           0.000019536   -0.000021979    0.000021292
      5        6           0.000141689   -0.000533419    0.000003258
      6        8          -0.000136854    0.000335624   -0.000001339
      7       53          -0.000001963    0.000063544   -0.000000621
 -------------------------------------------------------------------
 Cartesian Forces:  Max     0.000533419 RMS     0.000149782

 GradGradGradGradGradGradGradGradGradGradGradGradGradGradGradGradGradGrad
 Berny optimization.
 Internal  Forces:  Max     0.000361943 RMS     0.000095571
 Search for a local minimum.
 Step number   1 out of a maximum of    2
 All quantities printed in internal units (Hartrees-Bohrs-Radians)
 Second derivative matrix not updated -- analytic derivatives used.
     Eigenvalues ---    0.00103   0.04389   0.05638   0.05682   0.06609
     Eigenvalues ---    0.12657   0.14184   0.14215   0.17074   0.21019
     Eigenvalues ---    0.29422   0.34427   0.34672   0.35107   0.95167
     Eigenvalues --- 1000.000001000.000001000.000001000.000001000.00000
     Eigenvalues --- 1000.00000
 Angle between quadratic step and forces=  46.08 degrees.
 Linear search not attempted -- first point.
 Iteration  1 RMS(Cart)=  0.00072716 RMS(Int)=  0.00000031
 Iteration  2 RMS(Cart)=  0.00000038 RMS(Int)=  0.00000001
 Variable       Old X    -DE/DX   Delta X   Delta X   Delta X     New X
                                 (Linear)    (Quad)   (Total)
    R1        2.06832   0.00000   0.00000  -0.00004  -0.00004   2.06828
    R2        2.06751   0.00002   0.00000   0.00009   0.00009   2.06760
    R3        2.06832   0.00000   0.00000  -0.00004  -0.00004   2.06828
    R4        2.84403   0.00012   0.00000   0.00051   0.00051   2.84454
    R5        2.24163  -0.00036   0.00000  -0.00051  -0.00051   2.24112
    R6        4.27980   0.00001   0.00000   0.00076   0.00076   4.28055
    A1        1.93024  -0.00002   0.00000  -0.00019  -0.00019   1.93005
    A2        1.87709   0.00003   0.00000   0.00053   0.00053   1.87762
    A3        1.90997  -0.00002   0.00000  -0.00020  -0.00020   1.90976
    A4        1.93024  -0.00002   0.00000  -0.00019  -0.00019   1.93005
    A5        1.90605   0.00004   0.00000   0.00025   0.00025   1.90630
    A6        1.90997  -0.00002   0.00000  -0.00020  -0.00020   1.90976
    A7        2.23428   0.00006   0.00000   0.00056   0.00056   2.23484
    A8        1.95887  -0.00017   0.00000  -0.00119  -0.00119   1.95767
    A9        2.09004   0.00010   0.00000   0.00064   0.00064   2.09067
    D1        2.11523  -0.00001   0.00000  -0.00023  -0.00023   2.11500
    D2       -1.02640  -0.00001   0.00000  -0.00019  -0.00019  -1.02659
    D3        0.00002   0.00000   0.00000  -0.00002  -0.00002   0.00000
    D4        3.14158   0.00000   0.00000   0.00001   0.00001   3.14159
    D5       -2.11519   0.00001   0.00000   0.00018   0.00018  -2.11500
    D6        1.02637   0.00001   0.00000   0.00022   0.00022   1.02659
         Item               Value     Threshold  Converged?
 Maximum Force            0.000362     0.000450     YES
 RMS     Force            0.000096     0.000300     YES
 Maximum Displacement     0.002026     0.001800     NO 
 RMS     Displacement     0.000727     0.001200     YES
 Predicted change in Energy=-3.006205D-07
 GradGradGradGradGradGradGradGradGradGradGradGradGradGradGradGradGradGrad

 1|1|UNPC-LAWALM-PC|Freq|RB3LYP|Gen|C2H3I1O1|LAWALM|27-Feb-2015|0||#N G
 eom=AllCheck Guess=TCheck SCRF=Check GenChk RB3LYP/ChkBas Freq||gen ca
 lculation-iac C H O=6-31+g(d)/I=DGDZVP||0,1|C,2.0845202699,1.120018971
 7,-0.0000018378|H,1.7768031573,1.6889467813,-0.8829374526|H,3.16762938
 35,0.9654750881,0.0000014404|H,1.7767969605,1.6889368423,0.8829382231|
 C,1.3935779783,-0.2169942045,-0.0000122942|O,1.8884300668,-1.295065225
 4,0.0000030183|I,-0.8622468162,-0.0158932534,0.0000099817||Version=IA3
 2W-G09RevA.02|State=1-A|HF=-7073.1131234|RMSD=1.433e-009|RMSF=1.498e-0
 04|ZeroPoint=0.0464567|Thermal=0.0514628|Dipole=0.6340329,0.9954492,-0
 .0000059|DipoleDeriv=-0.2108102,-0.1440988,0.000002,0.0292853,-0.23811
 46,-0.0000034,-0.0000046,-0.0000091,0.0483376,0.034658,-0.0037751,-0.0
 651538,-0.0111627,0.0919448,0.0066783,-0.0333632,0.0397645,0.0352862,-
 0.1230431,-0.0278785,0.0000001,-0.0574775,0.039816,0.0000006,-0.000001
 8,-0.0000003,0.1135376,0.034655,-0.0037779,0.0651537,-0.0111635,0.0919
 459,-0.006676,0.0333652,-0.0397607,0.0352882,2.4665508,-0.1508093,-0.0
 000116,-0.9726347,1.0738324,0.0000075,0.0000068,0.,0.0854851,-1.209901
 3,0.2945711,0.0000054,0.9744747,-0.9383803,-0.0000067,-0.0000155,0.000
 0068,-0.1916647,-0.9921091,0.0357685,0.0000041,0.0486786,-0.1210442,-0
 .0000003,0.0000132,-0.0000012,-0.12627|Polar=85.9080685,-2.1282471,53.
 24647,-0.0002113,-0.0000294,42.7058548|PG=C01 [X(C2H3I1O1)]|NImag=0||0
 .56721853,-0.06300034,0.48612429,-0.00000045,-0.00000128,0.54357680,-0
 .07058103,0.03880458,-0.06412440,0.07060359,0.03871688,-0.11470878,0.1
 1845293,-0.04165936,0.12815121,-0.06260166,0.11711202,-0.22301651,0.06
 925189,-0.12578321,0.24042683,-0.31453380,0.03996724,-0.00000074,-0.00
 524229,0.00064819,0.00066642,0.34015355,0.04297621,-0.05606888,0.00000
 012,0.01600440,-0.00189191,-0.00252056,-0.04227294,0.05747062,-0.00000
 077,0.00000013,-0.05089361,-0.02564127,0.00183069,0.00232151,0.0000008
 5,-0.00000008,0.04627043,-0.07058166,0.03880479,0.06412599,0.00187960,
 -0.00491228,-0.00751509,-0.00524255,0.01600401,0.02564139,0.07060462,0
 .03871716,-0.11470582,-0.11845152,-0.00491255,0.01079062,0.01467188,0.
 00064823,-0.00189191,-0.00183075,-0.04165950,0.12814784,0.06260323,-0.
 11711048,-0.22301825,0.00751522,-0.01467146,-0.02114100,-0.00066649,0.
 00252059,0.00232171,-0.06925372,0.12578141,0.24042867,-0.10715289,-0.0
 5196350,-0.00000053,0.00539348,0.01176860,-0.00070442,-0.01779079,-0.0
 3044338,-0.00000023,0.00539352,0.01176865,0.00070455,0.33686450,-0.062
 33284,-0.15151235,-0.00000109,-0.00698808,-0.02099196,-0.00133388,0.00
 127115,0.00088208,-0.00000001,-0.00698815,-0.02099187,0.00133372,-0.19
 900633,0.95577255,-0.00000006,-0.00000010,-0.07776782,0.01534972,0.024
 95747,0.00225786,-0.00000005,-0.00000008,-0.00042908,-0.01534969,-0.02
 495753,0.00225750,0.00000385,-0.00000865,0.14866417,0.01480024,-0.0068
 0789,-0.00000004,-0.00008324,-0.00377673,0.00059705,0.00377727,0.00125
 408,0.00000002,-0.00008331,-0.00377674,-0.00059706,-0.19838788,0.31017
 002,-0.00000417,0.21735597,0.01685142,-0.05104596,0.00000082,-0.001008
 27,-0.00209112,-0.00167496,0.00135232,0.00290311,0.00000001,-0.0010080
 9,-0.00209080,0.00167488,0.26450546,-0.74610407,0.00000902,-0.32087195
 ,0.80237048,-0.00000028,-0.00000011,0.02507830,-0.00207441,-0.00351097
 ,-0.00135988,0.00000002,-0.00000003,-0.00090512,0.00207437,0.00351102,
 -0.00135989,-0.00000367,0.00000958,-0.05243407,0.00000415,-0.00000955,
 0.02140238,-0.01916940,0.00419511,0.00000018,-0.00197012,-0.00078530,0
 .00030581,-0.00112139,-0.00352238,0.00000001,-0.00197023,-0.00078525,-
 0.00030573,-0.02431996,-0.03612579,0.00000039,-0.03737906,0.04017911,-
 0.00000019,0.08593017,-0.01192848,0.00191751,0.00000002,-0.00024072,0.
 00074194,-0.00047129,-0.00161420,-0.00140311,0.,-0.00024078,0.00074195
 ,0.00047133,-0.00662951,-0.01705437,-0.00000013,0.02380921,-0.00394163
 ,0.00000005,-0.00315551,0.01899772,-0.00000002,-0.00000019,0.00604110,
 -0.00027674,-0.00127545,0.00051118,-0.00000001,0.00000003,0.00131416,0
 .00027674,0.00127548,0.00051125,0.00000045,0.00000034,-0.02254856,0.00
 000006,-0.00000022,0.00957828,-0.00000047,0.00000001,0.00459260||0.000
 06467,-0.00015203,0.00000119,-0.00001975,0.00002149,0.00002133,-0.0000
 2251,-0.00002569,0.00000007,-0.00001954,0.00002198,-0.00002129,-0.0001
 4169,0.00053342,-0.00000326,0.00013685,-0.00033562,0.00000134,0.000001
 96,-0.00006354,0.00000062|||@


 IF GOD HAD MEANT MAN TO SEE THE SUN RISE, HE
 WOULD HAVE SCHEDULED IT FOR A LATER HOUR.
 Job cpu time:  0 days  0 hours  1 minutes 57.0 seconds.
 File lengths (MBytes):  RWF=     15 Int=      0 D2E=      0 Chk=      2 Scr=      1
 Normal termination of Gaussian 09 at Fri Feb 27 11:27:02 2015.
