 Entering Gaussian System, Link 0=g09
 Initial command:
 /opt/gridware/applications/gaussian/g09/l1.exe "/lustre/SCRATCH5/gau/Gau-6667.inp" -scrdir="/lustre/SCRATCH5/gau/"
 Entering Link 1 = /opt/gridware/applications/gaussian/g09/l1.exe PID=      6668.
  
 Copyright (c) 1988,1990,1992,1993,1995,1998,2003,2009,2013,
            Gaussian, Inc.  All Rights Reserved.
  
 This is part of the Gaussian(R) 09 program.  It is based on
 the Gaussian(R) 03 system (copyright 2003, Gaussian, Inc.),
 the Gaussian(R) 98 system (copyright 1998, Gaussian, Inc.),
 the Gaussian(R) 94 system (copyright 1995, Gaussian, Inc.),
 the Gaussian 92(TM) system (copyright 1992, Gaussian, Inc.),
 the Gaussian 90(TM) system (copyright 1990, Gaussian, Inc.),
 the Gaussian 88(TM) system (copyright 1988, Gaussian, Inc.),
 the Gaussian 86(TM) system (copyright 1986, Carnegie Mellon
 University), and the Gaussian 82(TM) system (copyright 1983,
 Carnegie Mellon University). Gaussian is a federally registered
 trademark of Gaussian, Inc.
  
 This software contains proprietary and confidential information,
 including trade secrets, belonging to Gaussian, Inc.
  
 This software is provided under written license and may be
 used, copied, transmitted, or stored only in accord with that
 written license.
  
 The following legend is applicable only to US Government
 contracts under FAR:
  
                    RESTRICTED RIGHTS LEGEND
  
 Use, reproduction and disclosure by the US Government is
 subject to restrictions as set forth in subparagraphs (a)
 and (c) of the Commercial Computer Software - Restricted
 Rights clause in FAR 52.227-19.
  
 Gaussian, Inc.
 340 Quinnipiac St., Bldg. 40, Wallingford CT 06492
  
  
 ---------------------------------------------------------------
 Warning -- This program may not be used in any manner that
 competes with the business of Gaussian, Inc. or will provide
 assistance to any competitor of Gaussian, Inc.  The licensee
 of this program is prohibited from giving any competitor of
 Gaussian, Inc. access to this program.  By using this program,
 the user acknowledges that Gaussian, Inc. is engaged in the
 business of creating and licensing software in the field of
 computational chemistry and represents and warrants to the
 licensee that it is not a competitor of Gaussian, Inc. and that
 it will not use this program in any manner prohibited above.
 ---------------------------------------------------------------
  

 Cite this work as:
 Gaussian 09, Revision D.01,
 M. J. Frisch, G. W. Trucks, H. B. Schlegel, G. E. Scuseria, 
 M. A. Robb, J. R. Cheeseman, G. Scalmani, V. Barone, B. Mennucci, 
 G. A. Petersson, H. Nakatsuji, M. Caricato, X. Li, H. P. Hratchian, 
 A. F. Izmaylov, J. Bloino, G. Zheng, J. L. Sonnenberg, M. Hada, 
 M. Ehara, K. Toyota, R. Fukuda, J. Hasegawa, M. Ishida, T. Nakajima, 
 Y. Honda, O. Kitao, H. Nakai, T. Vreven, J. A. Montgomery, Jr., 
 J. E. Peralta, F. Ogliaro, M. Bearpark, J. J. Heyd, E. Brothers, 
 K. N. Kudin, V. N. Staroverov, T. Keith, R. Kobayashi, J. Normand, 
 K. Raghavachari, A. Rendell, J. C. Burant, S. S. Iyengar, J. Tomasi, 
 M. Cossi, N. Rega, J. M. Millam, M. Klene, J. E. Knox, J. B. Cross, 
 V. Bakken, C. Adamo, J. Jaramillo, R. Gomperts, R. E. Stratmann, 
 O. Yazyev, A. J. Austin, R. Cammi, C. Pomelli, J. W. Ochterski, 
 R. L. Martin, K. Morokuma, V. G. Zakrzewski, G. A. Voth, 
 P. Salvador, J. J. Dannenberg, S. Dapprich, A. D. Daniels, 
 O. Farkas, J. B. Foresman, J. V. Ortiz, J. Cioslowski, 
 and D. J. Fox, Gaussian, Inc., Wallingford CT, 2013.
 
 ******************************************
 Gaussian 09:  EM64L-G09RevD.01 24-Apr-2013
                27-Feb-2015 
 ******************************************
 %nprocshared=8
 Will use up to    8 processors via shared memory.
 %nprocl=1
 Will use up to    1 processors via Linda.
 ----------------------------------------------------------
 # opt freq b3lyp/gen geom=connectivity gfinput pseudo=read
 ----------------------------------------------------------
 1/14=-1,18=20,19=15,26=3,38=1,57=2/1,3;
 2/9=110,12=2,17=6,18=5,40=1/2;
 3/5=7,11=2,16=1,17=8,24=10,25=1,30=1,71=1,74=-5/1,2,3;
 4//1;
 5/5=2,38=5/2;
 6/7=2,8=2,9=2,10=2,28=1/1;
 7//1,2,3,16;
 1/14=-1,18=20,19=15,26=3/3(2);
 2/9=110/2;
 99//99;
 2/9=110/2;
 3/5=7,6=1,11=2,16=1,17=8,25=1,30=1,71=1,74=-5,82=7/1,2,3;
 4/5=5,16=3,69=1/1;
 5/5=2,38=5/2;
 7//1,2,3,16;
 1/14=-1,18=20,19=15,26=3/3(-5);
 2/9=110/2;
 6/7=2,8=2,9=2,10=2,19=2,28=1/1;
 99/9=1/99;
 ----------------------------------------------
 gen calculation-iac C H O=6-31+g(d)/I=Def2TZVP
 ----------------------------------------------
 Symbolic Z-matrix:
 Charge =  0 Multiplicity = 1
 C                     2.05216   1.08723  0. 
 H                     1.77291   1.69185  -0.88195 
 H                     3.15179   0.99106  0. 
 H                     1.77292   1.69184   0.88195 
 C                     1.39164  -0.23572   0. 
 O                     1.88483  -1.30956   0. 
 I                    -0.80074   0.01873   0. 
 

 GradGradGradGradGradGradGradGradGradGradGradGradGradGradGradGradGradGrad
 Berny optimization.
 Initialization pass.
                           ----------------------------
                           !    Initial Parameters    !
                           ! (Angstroms and Degrees)  !
 --------------------------                            --------------------------
 ! Name  Definition              Value          Derivative Info.                !
 --------------------------------------------------------------------------------
 ! R1    R(1,2)                  1.1052         estimate D2E/DX2                !
 ! R2    R(1,3)                  1.1038         estimate D2E/DX2                !
 ! R3    R(1,4)                  1.1052         estimate D2E/DX2                !
 ! R4    R(1,5)                  1.4787         estimate D2E/DX2                !
 ! R5    R(5,6)                  1.1817         estimate D2E/DX2                !
 ! R6    R(5,7)                  2.2071         estimate D2E/DX2                !
 ! A1    A(2,1,3)              107.4202         estimate D2E/DX2                !
 ! A2    A(2,1,4)              105.8848         estimate D2E/DX2                !
 ! A3    A(2,1,5)              112.1236         estimate D2E/DX2                !
 ! A4    A(3,1,4)              107.4197         estimate D2E/DX2                !
 ! A5    A(3,1,5)              111.5337         estimate D2E/DX2                !
 ! A6    A(4,1,5)              112.1236         estimate D2E/DX2                !
 ! A7    A(1,5,6)              128.7996         estimate D2E/DX2                !
 ! A8    A(1,5,7)              109.9117         estimate D2E/DX2                !
 ! A9    A(6,5,7)              121.2886         estimate D2E/DX2                !
 ! D1    D(2,1,5,6)            120.5198         estimate D2E/DX2                !
 ! D2    D(2,1,5,7)            -59.48           estimate D2E/DX2                !
 ! D3    D(3,1,5,6)              0.0            estimate D2E/DX2                !
 ! D4    D(3,1,5,7)           -179.9999         estimate D2E/DX2                !
 ! D5    D(4,1,5,6)           -120.5192         estimate D2E/DX2                !
 ! D6    D(4,1,5,7)             59.4809         estimate D2E/DX2                !
 --------------------------------------------------------------------------------
 Trust Radius=3.00D-01 FncErr=1.00D-07 GrdErr=1.00D-06
 Number of steps in this run=     31 maximum allowed number of steps=    100.
 GradGradGradGradGradGradGradGradGradGradGradGradGradGradGradGradGradGrad

                          Input orientation:                          
 ---------------------------------------------------------------------
 Center     Atomic      Atomic             Coordinates (Angstroms)
 Number     Number       Type             X           Y           Z
 ---------------------------------------------------------------------
      1          6           0        2.052156    1.087228   -0.000001
      2          1           0        1.772912    1.691848   -0.881945
      3          1           0        3.151785    0.991058   -0.000003
      4          1           0        1.772923    1.691844    0.881950
      5          6           0        1.391638   -0.235720    0.000001
      6          8           0        1.884834   -1.309563    0.000000
      7         53           0       -0.800737    0.018730    0.000000
 ---------------------------------------------------------------------
                    Distance matrix (angstroms):
                    1          2          3          4          5
     1  C    0.000000
     2  H    1.105155   0.000000
     3  H    1.103826   1.780511   0.000000
     4  H    1.105156   1.763895   1.780506   0.000000
     5  C    1.478674   2.153768   2.145484   2.153768   0.000000
     6  O    2.402624   3.130307   2.626409   3.130304   1.181686
     7  I    3.046422   3.193872   4.070363   3.193880   2.207092
                    6          7
     6  O    0.000000
     7  I    2.996106   0.000000
 Stoichiometry    C2H3IO
 Framework group  C1[X(C2H3IO)]
 Deg. of freedom    15
 Full point group                 C1      NOp   1
 Largest Abelian subgroup         C1      NOp   1
 Largest concise Abelian subgroup C1      NOp   1
                         Standard orientation:                         
 ---------------------------------------------------------------------
 Center     Atomic      Atomic             Coordinates (Angstroms)
 Number     Number       Type             X           Y           Z
 ---------------------------------------------------------------------
      1          6           0        2.052156    1.087228   -0.000001
      2          1           0        1.772912    1.691848   -0.881945
      3          1           0        3.151785    0.991058   -0.000003
      4          1           0        1.772923    1.691844    0.881950
      5          6           0        1.391638   -0.235720    0.000001
      6          8           0        1.884834   -1.309563    0.000000
      7         53           0       -0.800737    0.018730    0.000000
 ---------------------------------------------------------------------
 Rotational constants (GHZ):     10.1059402      2.2242341      1.8438616
 General basis read from cards:  (5D, 7F)
 ======================================================================================================
                                       Pseudopotential Parameters
 ======================================================================================================
  Center     Atomic      Valence      Angular      Power
  Number     Number     Electrons     Momentum     of R      Exponent        Coefficient   SO-Coeffient
 ======================================================================================================
    1          6
                                   No pseudopotential on this center.
    2          1
                                   No pseudopotential on this center.
    3          1
                                   No pseudopotential on this center.
    4          1
                                   No pseudopotential on this center.
    5          6
                                   No pseudopotential on this center.
    6          8
                                   No pseudopotential on this center.
    7         53           25
                                      G and up 
                                                     2        1.0000000        0.00000000    0.00000000
                                      S - G
                                                     2       40.0158350       49.99429300    0.00000000
                                                     2       17.4297470      281.02531700    0.00000000
                                                     2        9.0054840       61.57332600    0.00000000
                                      P - G
                                                     2       15.3554660       67.44284100 -134.88568300
                                                     2       14.9718330      134.88113700  134.88113700
                                                     2        8.9601640       14.67505100  -29.35010100
                                                     2        8.2590960       29.37566600   29.37566600
                                      D - G
                                                     2       15.0689080       35.43952900  -35.43952900
                                                     2       14.5553220       53.17605700   35.45070400
                                                     2        6.7186470        9.06719500   -9.06719500
                                                     2        6.4563930       13.20693700    8.80462400
                                                     2        1.1917790        0.08933500   -0.08933500
                                                     2        1.2911570        0.05238000    0.03492000
                                      F - G
                                                     2       19.4586090      -21.84204000   14.56136000
                                                     2       19.3492600      -28.46819100  -14.23409500
                                                     2        4.8237670       -0.24371300    0.16247500
                                                     2        4.8843150       -0.32080400   -0.16040200
 ======================================================================================================
 AO basis set in the form of general basis input (Overlap normalization):
      1 0
 S   6 1.00       0.000000000000
      0.3047524880D+04  0.1834737132D-02
      0.4573695180D+03  0.1403732281D-01
      0.1039486850D+03  0.6884262226D-01
      0.2921015530D+02  0.2321844432D+00
      0.9286662960D+01  0.4679413484D+00
      0.3163926960D+01  0.3623119853D+00
 SP   3 1.00       0.000000000000
      0.7868272350D+01 -0.1193324198D+00  0.6899906659D-01
      0.1881288540D+01 -0.1608541517D+00  0.3164239610D+00
      0.5442492580D+00  0.1143456438D+01  0.7443082909D+00
 SP   1 1.00       0.000000000000
      0.1687144782D+00  0.1000000000D+01  0.1000000000D+01
 SP   1 1.00       0.000000000000
      0.4380000000D-01  0.1000000000D+01  0.1000000000D+01
 D   1 1.00       0.000000000000
      0.8000000000D+00  0.1000000000D+01
 ****
      2 0
 S   3 1.00       0.000000000000
      0.1873113696D+02  0.3349460434D-01
      0.2825394365D+01  0.2347269535D+00
      0.6401216923D+00  0.8137573261D+00
 S   1 1.00       0.000000000000
      0.1612777588D+00  0.1000000000D+01
 ****
      3 0
 S   3 1.00       0.000000000000
      0.1873113696D+02  0.3349460434D-01
      0.2825394365D+01  0.2347269535D+00
      0.6401216923D+00  0.8137573261D+00
 S   1 1.00       0.000000000000
      0.1612777588D+00  0.1000000000D+01
 ****
      4 0
 S   3 1.00       0.000000000000
      0.1873113696D+02  0.3349460434D-01
      0.2825394365D+01  0.2347269535D+00
      0.6401216923D+00  0.8137573261D+00
 S   1 1.00       0.000000000000
      0.1612777588D+00  0.1000000000D+01
 ****
      5 0
 S   6 1.00       0.000000000000
      0.3047524880D+04  0.1834737132D-02
      0.4573695180D+03  0.1403732281D-01
      0.1039486850D+03  0.6884262226D-01
      0.2921015530D+02  0.2321844432D+00
      0.9286662960D+01  0.4679413484D+00
      0.3163926960D+01  0.3623119853D+00
 SP   3 1.00       0.000000000000
      0.7868272350D+01 -0.1193324198D+00  0.6899906659D-01
      0.1881288540D+01 -0.1608541517D+00  0.3164239610D+00
      0.5442492580D+00  0.1143456438D+01  0.7443082909D+00
 SP   1 1.00       0.000000000000
      0.1687144782D+00  0.1000000000D+01  0.1000000000D+01
 SP   1 1.00       0.000000000000
      0.4380000000D-01  0.1000000000D+01  0.1000000000D+01
 D   1 1.00       0.000000000000
      0.8000000000D+00  0.1000000000D+01
 ****
      6 0
 S   6 1.00       0.000000000000
      0.5484671660D+04  0.1831074430D-02
      0.8252349460D+03  0.1395017220D-01
      0.1880469580D+03  0.6844507810D-01
      0.5296450000D+02  0.2327143360D+00
      0.1689757040D+02  0.4701928980D+00
      0.5799635340D+01  0.3585208530D+00
 SP   3 1.00       0.000000000000
      0.1553961625D+02 -0.1107775495D+00  0.7087426823D-01
      0.3599933586D+01 -0.1480262627D+00  0.3397528391D+00
      0.1013761750D+01  0.1130767015D+01  0.7271585773D+00
 SP   1 1.00       0.000000000000
      0.2700058226D+00  0.1000000000D+01  0.1000000000D+01
 SP   1 1.00       0.000000000000
      0.8450000000D-01  0.1000000000D+01  0.1000000000D+01
 D   1 1.00       0.000000000000
      0.8000000000D+00  0.1000000000D+01
 ****
      7 0
 S   5 1.00       0.000000000000
      0.5899579153D+04  0.2610056321D-03
      0.8985423877D+03  0.1669739989D-02
      0.2003723791D+03  0.4622329849D-02
      0.3141805384D+02 -0.4253426840D-01
      0.1564598784D+02  0.1036831842D+01
 S   2 1.00       0.000000000000
      0.1181574186D+02  0.6510798928D+00
      0.6461445829D+01  0.3642365936D+00
 S   1 1.00       0.000000000000
      0.2383806758D+01  0.1000000000D+01
 S   1 1.00       0.000000000000
      0.1171208966D+01  0.1000000000D+01
 S   1 1.00       0.000000000000
      0.3211587576D+00  0.1000000000D+01
 S   1 1.00       0.000000000000
      0.1238791936D+00  0.1000000000D+01
 P   4 1.00       0.000000000000
      0.1298431690D+02 -0.3868165906D-01
      0.3619950301D+01  0.3065970959D+00
      0.2023227309D+01  0.5169312450D+00
      0.1036749056D+01  0.2505722415D+00
 P   3 1.00       0.000000000000
      0.1973003055D+03  0.3192774173D-02
      0.2006141135D+02  0.2856760153D+00
      0.9763146048D+01 -0.1232820499D+01
 P   1 1.00       0.000000000000
      0.4593781600D+00  0.1000000000D+01
 P   1 1.00       0.000000000000
      0.1911653293D+00  0.1000000000D+01
 P   1 1.00       0.000000000000
      0.7487881302D-01  0.1000000000D+01
 D   6 1.00       0.000000000000
      0.1191267175D+03  0.8836386893D-03
      0.3340424013D+02  0.7315261132D-02
      0.1780591820D+02 -0.1102799620D-01
      0.4899051035D+01  0.2425357632D+00
      0.2451675311D+01  0.4726529041D+00
      0.1182069343D+01  0.3934356931D+00
 D   1 1.00       0.000000000000
      0.5292311007D+00  0.1000000000D+01
 D   1 1.00       0.000000000000
      0.1700000000D+00  0.1000000000D+01
 F   1 1.00       0.000000000000
      0.4414180800D+00  0.1000000000D+01
 F   1 1.00       0.000000000000
      0.2180000000D+01  0.1000000000D+01
 ****

 There are   122 symmetry adapted cartesian basis functions of A   symmetry.
 There are   110 symmetry adapted basis functions of A   symmetry.
   110 basis functions,   217 primitive gaussians,   122 cartesian basis functions
    24 alpha electrons       24 beta electrons
       nuclear repulsion energy       172.0909917225 Hartrees.
 NAtoms=    7 NActive=    7 NUniq=    7 SFac= 1.00D+00 NAtFMM=   60 NAOKFM=F Big=F
 Integral buffers will be    131072 words long.
 Raffenetti 2 integral format.
 Two-electron integral symmetry is turned on.
 One-electron integrals computed using PRISM.
 PrsmSu:  requested number of processors reduced to:   2 ShMem   1 Linda.
   1 Symmetry operations used in ECPInt.
 ECPInt:  NShTT=     703 NPrTT=    3258 LenC2=     698 LenP2D=    2594.
 LDataN:  DoStor=T MaxTD1= 7 Len=  274
 NBasis=   110 RedAO= T EigKep=  2.11D-04  NBF=   110
 NBsUse=   110 1.00D-06 EigRej= -1.00D+00 NBFU=   110
 Defaulting to unpruned grid for atomic number  53.
 ExpMin= 4.38D-02 ExpMax= 5.90D+03 ExpMxC= 8.25D+02 IAcc=2 IRadAn=         4 AccDes= 0.00D+00
 Harris functional with IExCor=  402 and IRadAn=       4 diagonalized for initial guess.
 HarFok:  IExCor=  402 AccDes= 0.00D+00 IRadAn=         4 IDoV= 1 UseB2=F ITyADJ=14
 ICtDFT=  3500011 ScaDFX=  1.000000  1.000000  1.000000  1.000000
 Defaulting to unpruned grid for atomic number  53.
 Defaulting to unpruned grid for atomic number  53.
 Defaulting to unpruned grid for atomic number  53.
 Defaulting to unpruned grid for atomic number  53.
 Defaulting to unpruned grid for atomic number  53.
 Defaulting to unpruned grid for atomic number  53.
 Defaulting to unpruned grid for atomic number  53.
 Defaulting to unpruned grid for atomic number  53.
 FoFCou: FMM=F IPFlag=           0 FMFlag=      100000 FMFlg1=           0
         NFxFlg=           0 DoJE=T BraDBF=F KetDBF=T FulRan=T
         wScrn=  0.000000 ICntrl=     500 IOpCl=  0 I1Cent=   200000004 NGrid=           0
         NMat0=    1 NMatS0=      1 NMatT0=    0 NMatD0=    1 NMtDS0=    0 NMtDT0=    0
 Petite list used in FoFCou.
 Keep R1 ints in memory in canonical form, NReq=20695408.
 Requested convergence on RMS density matrix=1.00D-08 within 128 cycles.
 Requested convergence on MAX density matrix=1.00D-06.
 Requested convergence on             energy=1.00D-06.
 No special actions if energy rises.
 CoulSu:  requested number of processors reduced to:   7 ShMem   1 Linda.
 Defaulting to unpruned grid for atomic number  53.
 Defaulting to unpruned grid for atomic number  53.
 Defaulting to unpruned grid for atomic number  53.
 Defaulting to unpruned grid for atomic number  53.
 Defaulting to unpruned grid for atomic number  53.
 Defaulting to unpruned grid for atomic number  53.
 Defaulting to unpruned grid for atomic number  53.
 Defaulting to unpruned grid for atomic number  53.
 SCF Done:  E(RB3LYP) =  -451.052496892     A.U. after   13 cycles
            NFock= 13  Conv=0.20D-08     -V/T= 2.6975

 **********************************************************************

            Population analysis using the SCF density.

 **********************************************************************

 Orbital symmetries:
       Occupied  (A) (A) (A) (A) (A) (A) (A) (A) (A) (A) (A) (A)
                 (A) (A) (A) (A) (A) (A) (A) (A) (A) (A) (A) (A)
       Virtual   (A) (A) (A) (A) (A) (A) (A) (A) (A) (A) (A) (A)
                 (A) (A) (A) (A) (A) (A) (A) (A) (A) (A) (A) (A)
                 (A) (A) (A) (A) (A) (A) (A) (A) (A) (A) (A) (A)
                 (A) (A) (A) (A) (A) (A) (A) (A) (A) (A) (A) (A)
                 (A) (A) (A) (A) (A) (A) (A) (A) (A) (A) (A) (A)
                 (A) (A) (A) (A) (A) (A) (A) (A) (A) (A) (A) (A)
                 (A) (A) (A) (A) (A) (A) (A) (A) (A) (A) (A) (A)
                 (A) (A)
 The electronic state is 1-A.
 Alpha  occ. eigenvalues --  -19.20809 -10.34307 -10.22663  -6.84351  -4.86654
 Alpha  occ. eigenvalues --   -4.85741  -4.85629  -1.91480  -1.91197  -1.91112
 Alpha  occ. eigenvalues --   -1.90317  -1.90313  -1.11680  -0.79683  -0.70356
 Alpha  occ. eigenvalues --   -0.56901  -0.49253  -0.48859  -0.48528  -0.41395
 Alpha  occ. eigenvalues --   -0.41191  -0.29132  -0.27551  -0.26873
 Alpha virt. eigenvalues --   -0.05975  -0.05155  -0.00088   0.03341   0.04545
 Alpha virt. eigenvalues --    0.04646   0.07796   0.08044   0.08607   0.10533
 Alpha virt. eigenvalues --    0.14595   0.15596   0.17325   0.18113   0.18914
 Alpha virt. eigenvalues --    0.22573   0.22805   0.25496   0.26682   0.27019
 Alpha virt. eigenvalues --    0.27472   0.27774   0.30418   0.31570   0.35761
 Alpha virt. eigenvalues --    0.40874   0.46731   0.55137   0.61658   0.62475
 Alpha virt. eigenvalues --    0.68716   0.69973   0.73693   0.79023   0.84411
 Alpha virt. eigenvalues --    0.86609   0.86782   0.87209   0.87370   0.91184
 Alpha virt. eigenvalues --    0.91792   0.94084   1.02464   1.04680   1.07571
 Alpha virt. eigenvalues --    1.13702   1.15584   1.20651   1.22924   1.27338
 Alpha virt. eigenvalues --    1.28665   1.34258   1.34375   1.39279   1.40569
 Alpha virt. eigenvalues --    1.40581   1.45503   1.55041   1.57325   1.69603
 Alpha virt. eigenvalues --    1.75699   1.79480   1.85752   1.90308   2.01602
 Alpha virt. eigenvalues --    2.10704   2.15192   2.30143   2.38515   2.55675
 Alpha virt. eigenvalues --    2.58701   2.85297   3.03913   3.04099   3.04529
 Alpha virt. eigenvalues --    3.05363   3.08216   3.09812   3.21139   3.26727
 Alpha virt. eigenvalues --    4.23887  34.49688  34.51615  34.60583  42.72047
 Alpha virt. eigenvalues --  117.79634
          Condensed to atoms (all electrons):
               1          2          3          4          5          6
     1  C    5.695965   0.373670   0.379605   0.373670   0.152274  -0.057086
     2  H    0.373670   0.455818  -0.024376  -0.023419  -0.032250   0.000683
     3  H    0.379605  -0.024376   0.474201  -0.024377  -0.054135   0.001966
     4  H    0.373670  -0.023419  -0.024377   0.455819  -0.032250   0.000683
     5  C    0.152274  -0.032250  -0.054135  -0.032250   4.763238   0.412484
     6  O   -0.057086   0.000683   0.001966   0.000683   0.412484   8.043212
     7  I   -0.097563  -0.004347   0.008146  -0.004347   0.275072  -0.113573
               7
     1  C   -0.097563
     2  H   -0.004347
     3  H    0.008146
     4  H   -0.004347
     5  C    0.275072
     6  O   -0.113573
     7  I   25.090685
 Mulliken charges:
               1
     1  C   -0.820536
     2  H    0.254221
     3  H    0.238970
     4  H    0.254221
     5  C    0.515566
     6  O   -0.288369
     7  I   -0.154075
 Sum of Mulliken charges =   0.00000
 Mulliken charges with hydrogens summed into heavy atoms:
               1
     1  C   -0.073123
     5  C    0.515566
     6  O   -0.288369
     7  I   -0.154075
 Electronic spatial extent (au):  <R**2>=            552.6225
 Charge=              0.0000 electrons
 Dipole moment (field-independent basis, Debye):
    X=              1.2665    Y=              2.5367    Z=              0.0000  Tot=              2.8353
 Quadrupole moment (field-independent basis, Debye-Ang):
   XX=            -42.1792   YY=            -46.6043   ZZ=            -44.6247
   XY=              5.4370   XZ=              0.0000   YZ=              0.0000
 Traceless Quadrupole moment (field-independent basis, Debye-Ang):
   XX=              2.2901   YY=             -2.1349   ZZ=             -0.1553
   XY=              5.4370   XZ=              0.0000   YZ=              0.0000
 Octapole moment (field-independent basis, Debye-Ang**2):
  XXX=            -34.0328  YYY=              3.2492  ZZZ=              0.0000  XYY=            -11.9416
  XXY=             10.8801  XXZ=              0.0000  XZZ=             -8.8000  YZZ=             -0.0492
  YYZ=              0.0000  XYZ=              0.0000
 Hexadecapole moment (field-independent basis, Debye-Ang**3):
 XXXX=           -508.5415 YYYY=           -184.9982 ZZZZ=            -64.5172 XXXY=             15.9500
 XXXZ=              0.0001 YYYX=              3.7759 YYYZ=              0.0000 ZZZX=              0.0000
 ZZZY=              0.0000 XXYY=           -124.6544 XXZZ=            -98.2883 YYZZ=            -38.4784
 XXYZ=              0.0001 YYXZ=              0.0000 ZZXY=             -1.1885
 N-N= 1.720909917225D+02 E-N=-1.333245988416D+03  KE= 2.657199621349D+02
 PrsmSu:  requested number of processors reduced to:   2 ShMem   1 Linda.
 PrsmSu:  requested number of processors reduced to:   5 ShMem   1 Linda.
   1 Symmetry operations used in ECPInt.
 ECPInt:  NShTT=     703 NPrTT=    3258 LenC2=     698 LenP2D=    2594.
 LDataN:  DoStor=T MaxTD1= 8 Len=  415
 Calling FoFJK, ICntrl=      2127 FMM=F ISym2X=0 I1Cent= 0 IOpClX= 0 NMat=1 NMatS=1 NMatT=0.
 CoulSu:  requested number of processors reduced to:   5 ShMem   1 Linda.
 Defaulting to unpruned grid for atomic number  53.
 Defaulting to unpruned grid for atomic number  53.
 Defaulting to unpruned grid for atomic number  53.
 Defaulting to unpruned grid for atomic number  53.
 Defaulting to unpruned grid for atomic number  53.
 Defaulting to unpruned grid for atomic number  53.
 Defaulting to unpruned grid for atomic number  53.
 Defaulting to unpruned grid for atomic number  53.
 ***** Axes restored to original set *****
 -------------------------------------------------------------------
 Center     Atomic                   Forces (Hartrees/Bohr)
 Number     Number              X              Y              Z
 -------------------------------------------------------------------
      1        6           0.020380242    0.026325756    0.000000779
      2        1          -0.002264711   -0.006544871    0.004087193
      3        1          -0.004778330   -0.004298821   -0.000000393
      4        1          -0.002265139   -0.006544922   -0.004087465
      5        6          -0.011487211    0.006470614   -0.000000315
      6        8           0.006121814   -0.012762776    0.000000134
      7       53          -0.005706664   -0.002644980    0.000000067
 -------------------------------------------------------------------
 Cartesian Forces:  Max     0.026325756 RMS     0.008978300

 GradGradGradGradGradGradGradGradGradGradGradGradGradGradGradGradGradGrad
 Berny optimization.
 FormGI is forming the generalized inverse of G from B-inverse, IUseBI=4.
 Internal  Forces:  Max     0.014153295 RMS     0.006045885
 Search for a local minimum.
 Step number   1 out of a maximum of   31
 All quantities printed in internal units (Hartrees-Bohrs-Radians)
 Mixed Optimization -- RFO/linear search
 Second derivative matrix not updated -- first step.
 ITU=  0
     Eigenvalues ---    0.01048   0.01048   0.07211   0.07226   0.10889
     Eigenvalues ---    0.16000   0.16000   0.16000   0.25000   0.25000
     Eigenvalues ---    0.33118   0.33118   0.33262   0.34722   1.14592
 RFO step:  Lambda=-2.62779233D-03 EMin= 1.04805561D-02
 Linear search not attempted -- first point.
 Iteration  1 RMS(Cart)=  0.02644260 RMS(Int)=  0.00054356
 Iteration  2 RMS(Cart)=  0.00042009 RMS(Int)=  0.00026499
 Iteration  3 RMS(Cart)=  0.00000016 RMS(Int)=  0.00026499
 Variable       Old X    -DE/DX   Delta X   Delta X   Delta X     New X
                                 (Linear)    (Quad)   (Total)
    R1        2.08844  -0.00627   0.00000  -0.01878  -0.01878   2.06966
    R2        2.08593  -0.00439   0.00000  -0.01308  -0.01308   2.07285
    R3        2.08844  -0.00627   0.00000  -0.01878  -0.01878   2.06966
    R4        2.79429   0.01294   0.00000   0.03699   0.03699   2.83128
    R5        2.23306   0.01415   0.00000   0.01232   0.01232   2.24539
    R6        4.17080   0.00536   0.00000   0.04810   0.04810   4.21889
    A1        1.87484   0.00542   0.00000   0.03665   0.03643   1.91126
    A2        1.84804   0.00415   0.00000   0.01880   0.01803   1.86607
    A3        1.95693  -0.00498   0.00000  -0.03245  -0.03295   1.92398
    A4        1.87483   0.00542   0.00000   0.03666   0.03643   1.91126
    A5        1.94663  -0.00386   0.00000  -0.02008  -0.02031   1.92632
    A6        1.95693  -0.00498   0.00000  -0.03245  -0.03295   1.92398
    A7        2.24798  -0.00492   0.00000  -0.01948  -0.01948   2.22850
    A8        1.91832   0.00931   0.00000   0.03687   0.03687   1.95519
    A9        2.11689  -0.00439   0.00000  -0.01739  -0.01739   2.09950
    D1        2.10347   0.00077   0.00000   0.01034   0.01011   2.11358
    D2       -1.03812   0.00077   0.00000   0.01032   0.01010  -1.02803
    D3        0.00000   0.00000   0.00000   0.00001   0.00001   0.00001
    D4       -3.14159   0.00000   0.00000   0.00000   0.00000   3.14159
    D5       -2.10346  -0.00077   0.00000  -0.01033  -0.01010  -2.11356
    D6        1.03814  -0.00077   0.00000  -0.01034  -0.01011   1.02803
         Item               Value     Threshold  Converged?
 Maximum Force            0.014153     0.000450     NO 
 RMS     Force            0.006046     0.000300     NO 
 Maximum Displacement     0.070379     0.001800     NO 
 RMS     Displacement     0.026437     0.001200     NO 
 Predicted change in Energy=-1.329154D-03
 GradGradGradGradGradGradGradGradGradGradGradGradGradGradGradGradGradGrad

                          Input orientation:                          
 ---------------------------------------------------------------------
 Center     Atomic      Atomic             Coordinates (Angstroms)
 Number     Number       Type             X           Y           Z
 ---------------------------------------------------------------------
      1          6           0        2.074685    1.109449   -0.000001
      2          1           0        1.778018    1.690153   -0.879927
      3          1           0        3.163289    0.974766   -0.000003
      4          1           0        1.778022    1.690146    0.879931
      5          6           0        1.384659   -0.220444   -0.000003
      6          8           0        1.884818   -1.298255    0.000001
      7         53           0       -0.837980   -0.010391    0.000003
 ---------------------------------------------------------------------
                    Distance matrix (angstroms):
                    1          2          3          4          5
     1  C    0.000000
     2  H    1.095216   0.000000
     3  H    1.096903   1.790257   0.000000
     4  H    1.095216   1.759857   1.790256   0.000000
     5  C    1.498250   2.139947   2.142907   2.139947   0.000000
     6  O    2.415178   3.117091   2.607894   3.117085   1.188207
     7  I    3.120523   3.241846   4.120763   3.241846   2.232543
                    6          7
     6  O    0.000000
     7  I    3.012013   0.000000
 Stoichiometry    C2H3IO
 Framework group  C1[X(C2H3IO)]
 Deg. of freedom    15
 Full point group                 C1      NOp   1
 Largest Abelian subgroup         C1      NOp   1
 Largest concise Abelian subgroup C1      NOp   1
                         Standard orientation:                         
 ---------------------------------------------------------------------
 Center     Atomic      Atomic             Coordinates (Angstroms)
 Number     Number       Type             X           Y           Z
 ---------------------------------------------------------------------
      1          6           0        2.122402    1.081386   -0.000003
      2          1           0        1.838036    1.668211   -0.879929
      3          1           0        3.207926    0.923795   -0.000005
      4          1           0        1.838040    1.668205    0.879928
      5          6           0        1.404508   -0.233673   -0.000006
      6          8           0        1.881846   -1.321783   -0.000001
      7         53           0       -0.813212    0.023165    0.000001
 ---------------------------------------------------------------------
 Rotational constants (GHZ):     10.0850261      2.1576527      1.7971154
 Basis read from rwf:  (5D, 7F)
 Pseudo-potential data read from rwf file.
 There are   122 symmetry adapted cartesian basis functions of A   symmetry.
 There are   110 symmetry adapted basis functions of A   symmetry.
   110 basis functions,   217 primitive gaussians,   122 cartesian basis functions
    24 alpha electrons       24 beta electrons
       nuclear repulsion energy       170.4836145914 Hartrees.
 NAtoms=    7 NActive=    7 NUniq=    7 SFac= 1.00D+00 NAtFMM=   60 NAOKFM=F Big=F
 Integral buffers will be    131072 words long.
 Raffenetti 2 integral format.
 Two-electron integral symmetry is turned on.
 One-electron integrals computed using PRISM.
 PrsmSu:  requested number of processors reduced to:   2 ShMem   1 Linda.
   1 Symmetry operations used in ECPInt.
 ECPInt:  NShTT=     703 NPrTT=    3258 LenC2=     698 LenP2D=    2590.
 LDataN:  DoStor=T MaxTD1= 7 Len=  274
 NBasis=   110 RedAO= T EigKep=  2.25D-04  NBF=   110
 NBsUse=   110 1.00D-06 EigRej= -1.00D+00 NBFU=   110
 Defaulting to unpruned grid for atomic number  53.
 Initial guess from the checkpoint file:  "/lustre/SCRATCH5/gau/Gau-6668.chk"
 B after Tr=     0.000000    0.000000    0.000000
         Rot=    0.999987    0.000000   -0.000001    0.005021 Ang=   0.58 deg.
 ExpMin= 4.38D-02 ExpMax= 5.90D+03 ExpMxC= 8.25D+02 IAcc=2 IRadAn=         4 AccDes= 0.00D+00
 Harris functional with IExCor=  402 and IRadAn=       4 diagonalized for initial guess.
 HarFok:  IExCor=  402 AccDes= 0.00D+00 IRadAn=         4 IDoV= 1 UseB2=F ITyADJ=14
 ICtDFT=  3500011 ScaDFX=  1.000000  1.000000  1.000000  1.000000
 Defaulting to unpruned grid for atomic number  53.
 Defaulting to unpruned grid for atomic number  53.
 Defaulting to unpruned grid for atomic number  53.
 Defaulting to unpruned grid for atomic number  53.
 Defaulting to unpruned grid for atomic number  53.
 Defaulting to unpruned grid for atomic number  53.
 Defaulting to unpruned grid for atomic number  53.
 Defaulting to unpruned grid for atomic number  53.
 FoFCou: FMM=F IPFlag=           0 FMFlag=      100000 FMFlg1=           0
         NFxFlg=           0 DoJE=T BraDBF=F KetDBF=T FulRan=T
         wScrn=  0.000000 ICntrl=     500 IOpCl=  0 I1Cent=   200000004 NGrid=           0
         NMat0=    1 NMatS0=      1 NMatT0=    0 NMatD0=    1 NMtDS0=    0 NMtDT0=    0
 Petite list used in FoFCou.
 Keep R1 ints in memory in canonical form, NReq=20695380.
 Requested convergence on RMS density matrix=1.00D-08 within 128 cycles.
 Requested convergence on MAX density matrix=1.00D-06.
 Requested convergence on             energy=1.00D-06.
 No special actions if energy rises.
 CoulSu:  requested number of processors reduced to:   7 ShMem   1 Linda.
 Defaulting to unpruned grid for atomic number  53.
 Defaulting to unpruned grid for atomic number  53.
 Defaulting to unpruned grid for atomic number  53.
 Defaulting to unpruned grid for atomic number  53.
 Defaulting to unpruned grid for atomic number  53.
 Defaulting to unpruned grid for atomic number  53.
 Defaulting to unpruned grid for atomic number  53.
 Defaulting to unpruned grid for atomic number  53.
 SCF Done:  E(RB3LYP) =  -451.054036123     A.U. after   11 cycles
            NFock= 11  Conv=0.28D-08     -V/T= 2.6977
 PrsmSu:  requested number of processors reduced to:   2 ShMem   1 Linda.
 PrsmSu:  requested number of processors reduced to:   5 ShMem   1 Linda.
   1 Symmetry operations used in ECPInt.
 ECPInt:  NShTT=     703 NPrTT=    3258 LenC2=     698 LenP2D=    2590.
 LDataN:  DoStor=T MaxTD1= 8 Len=  415
 Calling FoFJK, ICntrl=      2127 FMM=F ISym2X=0 I1Cent= 0 IOpClX= 0 NMat=1 NMatS=1 NMatT=0.
 CoulSu:  requested number of processors reduced to:   5 ShMem   1 Linda.
 Defaulting to unpruned grid for atomic number  53.
 Defaulting to unpruned grid for atomic number  53.
 Defaulting to unpruned grid for atomic number  53.
 Defaulting to unpruned grid for atomic number  53.
 Defaulting to unpruned grid for atomic number  53.
 Defaulting to unpruned grid for atomic number  53.
 Defaulting to unpruned grid for atomic number  53.
 Defaulting to unpruned grid for atomic number  53.
 ***** Axes restored to original set *****
 -------------------------------------------------------------------
 Center     Atomic                   Forces (Hartrees/Bohr)
 Number     Number              X              Y              Z
 -------------------------------------------------------------------
      1        6           0.005610882    0.006962350   -0.000000094
      2        1          -0.001144861   -0.001116038   -0.000177567
      3        1          -0.001655359   -0.001984236   -0.000000114
      4        1          -0.001144979   -0.001116227    0.000177421
      5        6          -0.002642046   -0.001395101    0.000000912
      6        8          -0.000388595   -0.000583267   -0.000000378
      7       53           0.001364957   -0.000767481   -0.000000179
 -------------------------------------------------------------------
 Cartesian Forces:  Max     0.006962350 RMS     0.002221968

 GradGradGradGradGradGradGradGradGradGradGradGradGradGradGradGradGradGrad
 Berny optimization.
 Using GEDIIS/GDIIS optimizer.
 FormGI is forming the generalized inverse of G from B-inverse, IUseBI=4.
 Internal  Forces:  Max     0.003204554 RMS     0.001351024
 Search for a local minimum.
 Step number   2 out of a maximum of   31
 All quantities printed in internal units (Hartrees-Bohrs-Radians)
 Mixed Optimization -- RFO/linear search
 Update second derivatives using D2CorX and points    1    2
 DE= -1.54D-03 DEPred=-1.33D-03 R= 1.16D+00
 TightC=F SS=  1.41D+00  RLast= 1.13D-01 DXNew= 5.0454D-01 3.3839D-01
 Trust test= 1.16D+00 RLast= 1.13D-01 DXMaxT set to 3.38D-01
 ITU=  1  0
 Use linear search instead of GDIIS.
     Eigenvalues ---    0.01048   0.01048   0.07462   0.07577   0.11787
     Eigenvalues ---    0.12624   0.16000   0.16091   0.24435   0.25358
     Eigenvalues ---    0.32391   0.33118   0.33708   0.33869   1.15807
 RFO step:  Lambda=-1.64753870D-04 EMin= 1.04805561D-02
 Quartic linear search produced a step of  0.22822.
 Iteration  1 RMS(Cart)=  0.00913029 RMS(Int)=  0.00018277
 Iteration  2 RMS(Cart)=  0.00012643 RMS(Int)=  0.00012387
 Iteration  3 RMS(Cart)=  0.00000002 RMS(Int)=  0.00012387
 Variable       Old X    -DE/DX   Delta X   Delta X   Delta X     New X
                                 (Linear)    (Quad)   (Total)
    R1        2.06966  -0.00014  -0.00429   0.00255  -0.00174   2.06792
    R2        2.07285  -0.00140  -0.00299  -0.00303  -0.00602   2.06683
    R3        2.06966  -0.00014  -0.00429   0.00255  -0.00174   2.06792
    R4        2.83128   0.00320   0.00844   0.00529   0.01374   2.84502
    R5        2.24539   0.00037   0.00281  -0.00164   0.00117   2.24656
    R6        4.21889  -0.00143   0.01098  -0.02370  -0.01273   4.20617
    A1        1.91126   0.00206   0.00831   0.01045   0.01859   1.92985
    A2        1.86607   0.00137   0.00411   0.00679   0.01060   1.87666
    A3        1.92398  -0.00148  -0.00752  -0.00628  -0.01404   1.90993
    A4        1.91126   0.00206   0.00832   0.01045   0.01859   1.92985
    A5        1.92632  -0.00235  -0.00464  -0.01420  -0.01902   1.90730
    A6        1.92398  -0.00148  -0.00752  -0.00628  -0.01404   1.90993
    A7        2.22850   0.00000  -0.00445   0.00316  -0.00129   2.22721
    A8        1.95519   0.00134   0.00841   0.00061   0.00902   1.96421
    A9        2.09950  -0.00134  -0.00397  -0.00377  -0.00774   2.09176
    D1        2.11358   0.00006   0.00231  -0.00036   0.00189   2.11547
    D2       -1.02803   0.00006   0.00230  -0.00030   0.00195  -1.02608
    D3        0.00001   0.00000   0.00000  -0.00003  -0.00002  -0.00002
    D4        3.14159   0.00000   0.00000   0.00003   0.00003  -3.14157
    D5       -2.11356  -0.00006  -0.00230   0.00030  -0.00195  -2.11550
    D6        1.02803  -0.00006  -0.00231   0.00036  -0.00189   1.02613
         Item               Value     Threshold  Converged?
 Maximum Force            0.003205     0.000450     NO 
 RMS     Force            0.001351     0.000300     NO 
 Maximum Displacement     0.025169     0.001800     NO 
 RMS     Displacement     0.009140     0.001200     NO 
 Predicted change in Energy=-1.335747D-04
 GradGradGradGradGradGradGradGradGradGradGradGradGradGradGradGradGradGrad

                          Input orientation:                          
 ---------------------------------------------------------------------
 Center     Atomic      Atomic             Coordinates (Angstroms)
 Number     Number       Type             X           Y           Z
 ---------------------------------------------------------------------
      1          6           0        2.080732    1.119768    0.000002
      2          1           0        1.775547    1.690133   -0.882624
      3          1           0        3.162932    0.961447   -0.000011
      4          1           0        1.775569    1.690135    0.882634
      5          6           0        1.383150   -0.214386    0.000015
      6          8           0        1.881557   -1.293691   -0.000004
      7         53           0       -0.833976   -0.017980   -0.000010
 ---------------------------------------------------------------------
                    Distance matrix (angstroms):
                    1          2          3          4          5
     1  C    0.000000
     2  H    1.094295   0.000000
     3  H    1.093719   1.798562   0.000000
     4  H    1.094295   1.765257   1.798562   0.000000
     5  C    1.505519   2.135467   2.133122   2.135465   0.000000
     6  O    2.421664   3.113432   2.593756   3.113439   1.188827
     7  I    3.128896   3.241337   4.115161   3.241364   2.225808
                    6          7
     6  O    0.000000
     7  I    3.000260   0.000000
 Stoichiometry    C2H3IO
 Framework group  C1[X(C2H3IO)]
 Deg. of freedom    15
 Full point group                 C1      NOp   1
 Largest Abelian subgroup         C1      NOp   1
 Largest concise Abelian subgroup C1      NOp   1
                         Standard orientation:                         
 ---------------------------------------------------------------------
 Center     Atomic      Atomic             Coordinates (Angstroms)
 Number     Number       Type             X           Y           Z
 ---------------------------------------------------------------------
      1          6           0        2.133284    1.081083    0.000008
      2          1           0        1.844048    1.659699   -0.882618
      3          1           0        3.210672    0.892785   -0.000005
      4          1           0        1.844070    1.659701    0.882639
      5          6           0        1.398939   -0.233195    0.000020
      6          8           0        1.867196   -1.325918    0.000002
      7         53           0       -0.811881    0.024676   -0.000004
 ---------------------------------------------------------------------
 Rotational constants (GHZ):     10.0687985      2.1642748      1.8013115
 Basis read from rwf:  (5D, 7F)
 Pseudo-potential data read from rwf file.
 There are   122 symmetry adapted cartesian basis functions of A   symmetry.
 There are   110 symmetry adapted basis functions of A   symmetry.
   110 basis functions,   217 primitive gaussians,   122 cartesian basis functions
    24 alpha electrons       24 beta electrons
       nuclear repulsion energy       170.6003892009 Hartrees.
 NAtoms=    7 NActive=    7 NUniq=    7 SFac= 1.00D+00 NAtFMM=   60 NAOKFM=F Big=F
 Integral buffers will be    131072 words long.
 Raffenetti 2 integral format.
 Two-electron integral symmetry is turned on.
 One-electron integrals computed using PRISM.
 PrsmSu:  requested number of processors reduced to:   2 ShMem   1 Linda.
   1 Symmetry operations used in ECPInt.
 ECPInt:  NShTT=     703 NPrTT=    3258 LenC2=     698 LenP2D=    2591.
 LDataN:  DoStor=T MaxTD1= 7 Len=  274
 NBasis=   110 RedAO= T EigKep=  2.29D-04  NBF=   110
 NBsUse=   110 1.00D-06 EigRej= -1.00D+00 NBFU=   110
 Defaulting to unpruned grid for atomic number  53.
 Initial guess from the checkpoint file:  "/lustre/SCRATCH5/gau/Gau-6668.chk"
 B after Tr=     0.000000    0.000000    0.000000
         Rot=    0.999998    0.000000    0.000003    0.001755 Ang=  -0.20 deg.
 ExpMin= 4.38D-02 ExpMax= 5.90D+03 ExpMxC= 8.25D+02 IAcc=2 IRadAn=         4 AccDes= 0.00D+00
 Harris functional with IExCor=  402 and IRadAn=       4 diagonalized for initial guess.
 HarFok:  IExCor=  402 AccDes= 0.00D+00 IRadAn=         4 IDoV= 1 UseB2=F ITyADJ=14
 ICtDFT=  3500011 ScaDFX=  1.000000  1.000000  1.000000  1.000000
 Defaulting to unpruned grid for atomic number  53.
 Defaulting to unpruned grid for atomic number  53.
 Defaulting to unpruned grid for atomic number  53.
 Defaulting to unpruned grid for atomic number  53.
 Defaulting to unpruned grid for atomic number  53.
 Defaulting to unpruned grid for atomic number  53.
 Defaulting to unpruned grid for atomic number  53.
 Defaulting to unpruned grid for atomic number  53.
 FoFCou: FMM=F IPFlag=           0 FMFlag=      100000 FMFlg1=           0
         NFxFlg=           0 DoJE=T BraDBF=F KetDBF=T FulRan=T
         wScrn=  0.000000 ICntrl=     500 IOpCl=  0 I1Cent=   200000004 NGrid=           0
         NMat0=    1 NMatS0=      1 NMatT0=    0 NMatD0=    1 NMtDS0=    0 NMtDT0=    0
 Petite list used in FoFCou.
 Keep R1 ints in memory in canonical form, NReq=20695366.
 Requested convergence on RMS density matrix=1.00D-08 within 128 cycles.
 Requested convergence on MAX density matrix=1.00D-06.
 Requested convergence on             energy=1.00D-06.
 No special actions if energy rises.
 CoulSu:  requested number of processors reduced to:   7 ShMem   1 Linda.
 Defaulting to unpruned grid for atomic number  53.
 Defaulting to unpruned grid for atomic number  53.
 Defaulting to unpruned grid for atomic number  53.
 Defaulting to unpruned grid for atomic number  53.
 Defaulting to unpruned grid for atomic number  53.
 Defaulting to unpruned grid for atomic number  53.
 Defaulting to unpruned grid for atomic number  53.
 Defaulting to unpruned grid for atomic number  53.
 SCF Done:  E(RB3LYP) =  -451.054173985     A.U. after   10 cycles
            NFock= 10  Conv=0.29D-08     -V/T= 2.6977
 PrsmSu:  requested number of processors reduced to:   2 ShMem   1 Linda.
 PrsmSu:  requested number of processors reduced to:   5 ShMem   1 Linda.
   1 Symmetry operations used in ECPInt.
 ECPInt:  NShTT=     703 NPrTT=    3258 LenC2=     698 LenP2D=    2591.
 LDataN:  DoStor=T MaxTD1= 8 Len=  415
 Calling FoFJK, ICntrl=      2127 FMM=F ISym2X=0 I1Cent= 0 IOpClX= 0 NMat=1 NMatS=1 NMatT=0.
 CoulSu:  requested number of processors reduced to:   5 ShMem   1 Linda.
 Defaulting to unpruned grid for atomic number  53.
 Defaulting to unpruned grid for atomic number  53.
 Defaulting to unpruned grid for atomic number  53.
 Defaulting to unpruned grid for atomic number  53.
 Defaulting to unpruned grid for atomic number  53.
 Defaulting to unpruned grid for atomic number  53.
 Defaulting to unpruned grid for atomic number  53.
 Defaulting to unpruned grid for atomic number  53.
 ***** Axes restored to original set *****
 -------------------------------------------------------------------
 Center     Atomic                   Forces (Hartrees/Bohr)
 Number     Number              X              Y              Z
 -------------------------------------------------------------------
      1        6           0.000155654    0.000167325    0.000001422
      2        1           0.000066837    0.000172892   -0.000203299
      3        1           0.000265752    0.000071759    0.000000098
      4        1           0.000067107    0.000173497    0.000203330
      5        6          -0.001248837   -0.000808785   -0.000003889
      6        8           0.000250363    0.000260135    0.000001576
      7       53           0.000443125   -0.000036822    0.000000762
 -------------------------------------------------------------------
 Cartesian Forces:  Max     0.001248837 RMS     0.000366544

 GradGradGradGradGradGradGradGradGradGradGradGradGradGradGradGradGradGrad
 Berny optimization.
 Using GEDIIS/GDIIS optimizer.
 FormGI is forming the generalized inverse of G from B-inverse, IUseBI=4.
 Internal  Forces:  Max     0.000776168 RMS     0.000264052
 Search for a local minimum.
 Step number   3 out of a maximum of   31
 All quantities printed in internal units (Hartrees-Bohrs-Radians)
 Mixed Optimization -- En-DIIS/RFO-DIIS
 Update second derivatives using D2CorX and points    1    2    3
 DE= -1.38D-04 DEPred=-1.34D-04 R= 1.03D+00
 TightC=F SS=  1.41D+00  RLast= 4.59D-02 DXNew= 5.6911D-01 1.3785D-01
 Trust test= 1.03D+00 RLast= 4.59D-02 DXMaxT set to 3.38D-01
 ITU=  1  1  0
 Use linear search instead of GDIIS.
     Eigenvalues ---    0.01048   0.01048   0.07645   0.07766   0.11072
     Eigenvalues ---    0.13401   0.16000   0.16082   0.24182   0.25587
     Eigenvalues ---    0.31669   0.33118   0.33613   0.34005   1.15959
 RFO step:  Lambda=-6.25608314D-06 EMin= 1.04805561D-02
 Quartic linear search produced a step of  0.01154.
 Iteration  1 RMS(Cart)=  0.00138896 RMS(Int)=  0.00000126
 Iteration  2 RMS(Cart)=  0.00000106 RMS(Int)=  0.00000088
 Iteration  3 RMS(Cart)=  0.00000000 RMS(Int)=  0.00000088
 Variable       Old X    -DE/DX   Delta X   Delta X   Delta X     New X
                                 (Linear)    (Quad)   (Total)
    R1        2.06792   0.00024  -0.00002   0.00062   0.00060   2.06852
    R2        2.06683   0.00025  -0.00007   0.00069   0.00062   2.06745
    R3        2.06792   0.00024  -0.00002   0.00062   0.00060   2.06852
    R4        2.84502   0.00078   0.00016   0.00244   0.00260   2.84762
    R5        2.24656  -0.00013   0.00001  -0.00005  -0.00004   2.24652
    R6        4.20617  -0.00044  -0.00015  -0.00387  -0.00402   4.20215
    A1        1.92985  -0.00015   0.00021  -0.00092  -0.00071   1.92914
    A2        1.87666  -0.00005   0.00012   0.00020   0.00032   1.87698
    A3        1.90993   0.00013  -0.00016   0.00076   0.00059   1.91053
    A4        1.92985  -0.00015   0.00021  -0.00092  -0.00071   1.92914
    A5        1.90730   0.00008  -0.00022   0.00016  -0.00006   1.90724
    A6        1.90993   0.00013  -0.00016   0.00076   0.00060   1.91053
    A7        2.22721  -0.00050  -0.00001  -0.00211  -0.00213   2.22508
    A8        1.96421   0.00025   0.00010   0.00118   0.00128   1.96550
    A9        2.09176   0.00026  -0.00009   0.00093   0.00084   2.09261
    D1        2.11547  -0.00005   0.00002  -0.00047  -0.00045   2.11502
    D2       -1.02608  -0.00005   0.00002  -0.00066  -0.00063  -1.02671
    D3       -0.00002   0.00000   0.00000   0.00009   0.00009   0.00007
    D4       -3.14157   0.00000   0.00000  -0.00009  -0.00009   3.14152
    D5       -2.11550   0.00005  -0.00002   0.00065   0.00063  -2.11487
    D6        1.02613   0.00005  -0.00002   0.00046   0.00044   1.02657
         Item               Value     Threshold  Converged?
 Maximum Force            0.000776     0.000450     NO 
 RMS     Force            0.000264     0.000300     YES
 Maximum Displacement     0.003379     0.001800     NO 
 RMS     Displacement     0.001389     0.001200     NO 
 Predicted change in Energy=-3.146536D-06
 GradGradGradGradGradGradGradGradGradGradGradGradGradGradGradGradGradGrad

                          Input orientation:                          
 ---------------------------------------------------------------------
 Center     Atomic      Atomic             Coordinates (Angstroms)
 Number     Number       Type             X           Y           Z
 ---------------------------------------------------------------------
      1          6           0        2.080579    1.120105   -0.000007
      2          1           0        1.776572    1.691150   -0.882993
      3          1           0        3.162977    0.960859    0.000019
      4          1           0        1.776527    1.691122    0.882981
      5          6           0        1.381361   -0.214748   -0.000050
      6          8           0        1.881248   -1.293345    0.000014
      7         53           0       -0.833753   -0.019718    0.000038
 ---------------------------------------------------------------------
                    Distance matrix (angstroms):
                    1          2          3          4          5
     1  C    0.000000
     2  H    1.094613   0.000000
     3  H    1.094049   1.798653   0.000000
     4  H    1.094613   1.765974   1.798652   0.000000
     5  C    1.506897   2.137341   2.134527   2.137345   0.000000
     6  O    2.421668   3.114140   2.593119   3.114104   1.188806
     7  I    3.129302   3.243548   4.115262   3.243474   2.223683
                    6          7
     6  O    0.000000
     7  I    2.998892   0.000000
 Stoichiometry    C2H3IO
 Framework group  C1[X(C2H3IO)]
 Deg. of freedom    15
 Full point group                 C1      NOp   1
 Largest Abelian subgroup         C1      NOp   1
 Largest concise Abelian subgroup C1      NOp   1
                         Standard orientation:                         
 ---------------------------------------------------------------------
 Center     Atomic      Atomic             Coordinates (Angstroms)
 Number     Number       Type             X           Y           Z
 ---------------------------------------------------------------------
      1          6           0        2.134269    1.080426   -0.000030
      2          1           0        1.846815    1.659980   -0.883016
      3          1           0        3.211638    0.890109   -0.000005
      4          1           0        1.846769    1.659954    0.882958
      5          6           0        1.396941   -0.233760   -0.000073
      6          8           0        1.865593   -1.326291   -0.000010
      7         53           0       -0.811646    0.024911    0.000014
 ---------------------------------------------------------------------
 Rotational constants (GHZ):     10.0685867      2.1655022      1.8021712
 Basis read from rwf:  (5D, 7F)
 Pseudo-potential data read from rwf file.
 There are   122 symmetry adapted cartesian basis functions of A   symmetry.
 There are   110 symmetry adapted basis functions of A   symmetry.
   110 basis functions,   217 primitive gaussians,   122 cartesian basis functions
    24 alpha electrons       24 beta electrons
       nuclear repulsion energy       170.6240443639 Hartrees.
 NAtoms=    7 NActive=    7 NUniq=    7 SFac= 1.00D+00 NAtFMM=   60 NAOKFM=F Big=F
 Integral buffers will be    131072 words long.
 Raffenetti 2 integral format.
 Two-electron integral symmetry is turned on.
 One-electron integrals computed using PRISM.
 PrsmSu:  requested number of processors reduced to:   2 ShMem   1 Linda.
   1 Symmetry operations used in ECPInt.
 ECPInt:  NShTT=     703 NPrTT=    3258 LenC2=     698 LenP2D=    2591.
 LDataN:  DoStor=T MaxTD1= 7 Len=  274
 NBasis=   110 RedAO= T EigKep=  2.30D-04  NBF=   110
 NBsUse=   110 1.00D-06 EigRej= -1.00D+00 NBFU=   110
 Defaulting to unpruned grid for atomic number  53.
 Initial guess from the checkpoint file:  "/lustre/SCRATCH5/gau/Gau-6668.chk"
 B after Tr=     0.000000    0.000000    0.000000
         Rot=    1.000000    0.000001   -0.000010    0.000248 Ang=   0.03 deg.
 Keep R1 ints in memory in canonical form, NReq=20695366.
 Requested convergence on RMS density matrix=1.00D-08 within 128 cycles.
 Requested convergence on MAX density matrix=1.00D-06.
 Requested convergence on             energy=1.00D-06.
 No special actions if energy rises.
 CoulSu:  requested number of processors reduced to:   7 ShMem   1 Linda.
 Defaulting to unpruned grid for atomic number  53.
 Defaulting to unpruned grid for atomic number  53.
 Defaulting to unpruned grid for atomic number  53.
 Defaulting to unpruned grid for atomic number  53.
 Defaulting to unpruned grid for atomic number  53.
 Defaulting to unpruned grid for atomic number  53.
 Defaulting to unpruned grid for atomic number  53.
 Defaulting to unpruned grid for atomic number  53.
 SCF Done:  E(RB3LYP) =  -451.054178289     A.U. after    9 cycles
            NFock=  9  Conv=0.26D-08     -V/T= 2.6977
 PrsmSu:  requested number of processors reduced to:   2 ShMem   1 Linda.
 PrsmSu:  requested number of processors reduced to:   5 ShMem   1 Linda.
   1 Symmetry operations used in ECPInt.
 ECPInt:  NShTT=     703 NPrTT=    3258 LenC2=     698 LenP2D=    2591.
 LDataN:  DoStor=T MaxTD1= 8 Len=  415
 Calling FoFJK, ICntrl=      2127 FMM=F ISym2X=0 I1Cent= 0 IOpClX= 0 NMat=1 NMatS=1 NMatT=0.
 CoulSu:  requested number of processors reduced to:   5 ShMem   1 Linda.
 Defaulting to unpruned grid for atomic number  53.
 Defaulting to unpruned grid for atomic number  53.
 Defaulting to unpruned grid for atomic number  53.
 Defaulting to unpruned grid for atomic number  53.
 Defaulting to unpruned grid for atomic number  53.
 Defaulting to unpruned grid for atomic number  53.
 Defaulting to unpruned grid for atomic number  53.
 Defaulting to unpruned grid for atomic number  53.
 ***** Axes restored to original set *****
 -------------------------------------------------------------------
 Center     Atomic                   Forces (Hartrees/Bohr)
 Number     Number              X              Y              Z
 -------------------------------------------------------------------
      1        6           0.000024426   -0.000018964   -0.000004977
      2        1           0.000049536    0.000032182   -0.000028842
      3        1           0.000026303    0.000025063   -0.000000275
      4        1           0.000048659    0.000030152    0.000028728
      5        6          -0.000617661   -0.000027805    0.000013449
      6        8           0.000245983   -0.000043928   -0.000005476
      7       53           0.000222756    0.000003300   -0.000002607
 -------------------------------------------------------------------
 Cartesian Forces:  Max     0.000617661 RMS     0.000155117

 GradGradGradGradGradGradGradGradGradGradGradGradGradGradGradGradGradGrad
 Berny optimization.
 Using GEDIIS/GDIIS optimizer.
 FormGI is forming the generalized inverse of G from B-inverse, IUseBI=4.
 Internal  Forces:  Max     0.000275375 RMS     0.000102663
 Search for a local minimum.
 Step number   4 out of a maximum of   31
 All quantities printed in internal units (Hartrees-Bohrs-Radians)
 Mixed Optimization -- En-DIIS/RFO-DIIS
 Swapping is turned off.
 Update second derivatives using D2CorX and points    1    2    3    4
 DE= -4.30D-06 DEPred=-3.15D-06 R= 1.37D+00
 TightC=F SS=  1.41D+00  RLast= 5.82D-03 DXNew= 5.6911D-01 1.7470D-02
 Trust test= 1.37D+00 RLast= 5.82D-03 DXMaxT set to 3.38D-01
 ITU=  1  1  1  0
     Eigenvalues ---    0.01048   0.01049   0.07175   0.07644   0.08483
     Eigenvalues ---    0.12997   0.15972   0.16000   0.21713   0.24656
     Eigenvalues ---    0.32095   0.33118   0.33732   0.35978   1.17539
 En-DIIS/RFO-DIIS IScMMF=        0 using points:     4    3
 RFO step:  Lambda=-6.29035123D-07.
 DidBck=F Rises=F RFO-DIIS coefs:    1.58056   -0.58056
 Iteration  1 RMS(Cart)=  0.00101013 RMS(Int)=  0.00000099
 Iteration  2 RMS(Cart)=  0.00000099 RMS(Int)=  0.00000022
 Variable       Old X    -DE/DX   Delta X   Delta X   Delta X     New X
                                 (Linear)    (Quad)   (Total)
    R1        2.06852   0.00003   0.00035  -0.00023   0.00012   2.06863
    R2        2.06745   0.00002   0.00036  -0.00027   0.00009   2.06754
    R3        2.06852   0.00003   0.00035  -0.00024   0.00011   2.06863
    R4        2.84762   0.00013   0.00151  -0.00046   0.00105   2.84867
    R5        2.24652   0.00014  -0.00002   0.00026   0.00024   2.24675
    R6        4.20215  -0.00022  -0.00233  -0.00120  -0.00354   4.19862
    A1        1.92914  -0.00005  -0.00041  -0.00011  -0.00052   1.92863
    A2        1.87698  -0.00002   0.00018   0.00015   0.00033   1.87731
    A3        1.91053   0.00006   0.00034   0.00019   0.00053   1.91106
    A4        1.92914  -0.00005  -0.00041  -0.00010  -0.00051   1.92863
    A5        1.90724   0.00001  -0.00004  -0.00026  -0.00030   1.90694
    A6        1.91053   0.00006   0.00035   0.00014   0.00049   1.91102
    A7        2.22508  -0.00028  -0.00123  -0.00078  -0.00201   2.22307
    A8        1.96550   0.00009   0.00075   0.00012   0.00087   1.96636
    A9        2.09261   0.00019   0.00049   0.00066   0.00115   2.09375
    D1        2.11502  -0.00003  -0.00026  -0.00071  -0.00098   2.11404
    D2       -1.02671  -0.00002  -0.00037   0.00038   0.00001  -1.02671
    D3        0.00007   0.00000   0.00005  -0.00054  -0.00049  -0.00041
    D4        3.14152   0.00000  -0.00005   0.00055   0.00050  -3.14116
    D5       -2.11487   0.00002   0.00036  -0.00034   0.00002  -2.11485
    D6        1.02657   0.00003   0.00026   0.00075   0.00101   1.02758
         Item               Value     Threshold  Converged?
 Maximum Force            0.000275     0.000450     YES
 RMS     Force            0.000103     0.000300     YES
 Maximum Displacement     0.002510     0.001800     NO 
 RMS     Displacement     0.001010     0.001200     YES
 Predicted change in Energy=-9.845324D-07
 GradGradGradGradGradGradGradGradGradGradGradGradGradGradGradGradGradGrad

                          Input orientation:                          
 ---------------------------------------------------------------------
 Center     Atomic      Atomic             Coordinates (Angstroms)
 Number     Number       Type             X           Y           Z
 ---------------------------------------------------------------------
      1          6           0        2.080231    1.120203    0.000041
      2          1           0        1.777061    1.691580   -0.883095
      3          1           0        3.162541    0.960044   -0.000136
      4          1           0        1.777367    1.691714    0.883193
      5          6           0        1.380033   -0.214762    0.000294
      6          8           0        1.881558   -1.292737   -0.000081
      7         53           0       -0.833280   -0.020616   -0.000213
 ---------------------------------------------------------------------
                    Distance matrix (angstroms):
                    1          2          3          4          5
     1  C    0.000000
     2  H    1.094674   0.000000
     3  H    1.094095   1.798420   0.000000
     4  H    1.094672   1.766287   1.798420   0.000000
     5  C    1.507451   2.138257   2.134830   2.138232   0.000000
     6  O    2.421105   3.113965   2.591512   3.114157   1.188931
     7  I    3.128900   3.244222   4.114399   3.244682   2.221812
                    6          7
     6  O    0.000000
     7  I    2.998106   0.000000
 Stoichiometry    C2H3IO
 Framework group  C1[X(C2H3IO)]
 Deg. of freedom    15
 Full point group                 C1      NOp   1
 Largest Abelian subgroup         C1      NOp   1
 Largest concise Abelian subgroup C1      NOp   1
                         Standard orientation:                         
 ---------------------------------------------------------------------
 Center     Atomic      Atomic             Coordinates (Angstroms)
 Number     Number       Type             X           Y           Z
 ---------------------------------------------------------------------
      1          6           0        2.134262    1.079981    0.000172
      2          1           0        1.847957    1.659992   -0.882963
      3          1           0        3.211416    0.888191   -0.000005
      4          1           0        1.848267    1.660117    0.883324
      5          6           0        1.395266   -0.233904    0.000425
      6          8           0        1.865004   -1.326105    0.000051
      7         53           0       -0.811412    0.024983   -0.000082
 ---------------------------------------------------------------------
 Rotational constants (GHZ):     10.0727093      2.1667088      1.8031462
 Basis read from rwf:  (5D, 7F)
 Pseudo-potential data read from rwf file.
 There are   122 symmetry adapted cartesian basis functions of A   symmetry.
 There are   110 symmetry adapted basis functions of A   symmetry.
   110 basis functions,   217 primitive gaussians,   122 cartesian basis functions
    24 alpha electrons       24 beta electrons
       nuclear repulsion energy       170.6596400009 Hartrees.
 NAtoms=    7 NActive=    7 NUniq=    7 SFac= 1.00D+00 NAtFMM=   60 NAOKFM=F Big=F
 Integral buffers will be    131072 words long.
 Raffenetti 2 integral format.
 Two-electron integral symmetry is turned on.
 One-electron integrals computed using PRISM.
 PrsmSu:  requested number of processors reduced to:   2 ShMem   1 Linda.
   1 Symmetry operations used in ECPInt.
 ECPInt:  NShTT=     703 NPrTT=    3258 LenC2=     698 LenP2D=    2591.
 LDataN:  DoStor=T MaxTD1= 7 Len=  274
 NBasis=   110 RedAO= T EigKep=  2.31D-04  NBF=   110
 NBsUse=   110 1.00D-06 EigRej= -1.00D+00 NBFU=   110
 Defaulting to unpruned grid for atomic number  53.
 Initial guess from the checkpoint file:  "/lustre/SCRATCH5/gau/Gau-6668.chk"
 B after Tr=     0.000000    0.000000    0.000000
         Rot=    1.000000   -0.000007    0.000051    0.000089 Ang=  -0.01 deg.
 Keep R1 ints in memory in canonical form, NReq=20695366.
 Requested convergence on RMS density matrix=1.00D-08 within 128 cycles.
 Requested convergence on MAX density matrix=1.00D-06.
 Requested convergence on             energy=1.00D-06.
 No special actions if energy rises.
 CoulSu:  requested number of processors reduced to:   7 ShMem   1 Linda.
 Defaulting to unpruned grid for atomic number  53.
 Defaulting to unpruned grid for atomic number  53.
 Defaulting to unpruned grid for atomic number  53.
 Defaulting to unpruned grid for atomic number  53.
 Defaulting to unpruned grid for atomic number  53.
 Defaulting to unpruned grid for atomic number  53.
 Defaulting to unpruned grid for atomic number  53.
 Defaulting to unpruned grid for atomic number  53.
 SCF Done:  E(RB3LYP) =  -451.054179322     A.U. after    8 cycles
            NFock=  8  Conv=0.84D-08     -V/T= 2.6977
 PrsmSu:  requested number of processors reduced to:   2 ShMem   1 Linda.
 PrsmSu:  requested number of processors reduced to:   5 ShMem   1 Linda.
   1 Symmetry operations used in ECPInt.
 ECPInt:  NShTT=     703 NPrTT=    3258 LenC2=     698 LenP2D=    2591.
 LDataN:  DoStor=T MaxTD1= 8 Len=  415
 Calling FoFJK, ICntrl=      2127 FMM=F ISym2X=0 I1Cent= 0 IOpClX= 0 NMat=1 NMatS=1 NMatT=0.
 CoulSu:  requested number of processors reduced to:   5 ShMem   1 Linda.
 Defaulting to unpruned grid for atomic number  53.
 Defaulting to unpruned grid for atomic number  53.
 Defaulting to unpruned grid for atomic number  53.
 Defaulting to unpruned grid for atomic number  53.
 Defaulting to unpruned grid for atomic number  53.
 Defaulting to unpruned grid for atomic number  53.
 Defaulting to unpruned grid for atomic number  53.
 Defaulting to unpruned grid for atomic number  53.
 ***** Axes restored to original set *****
 -------------------------------------------------------------------
 Center     Atomic                   Forces (Hartrees/Bohr)
 Number     Number              X              Y              Z
 -------------------------------------------------------------------
      1        6          -0.000021846   -0.000078051    0.000029395
      2        1           0.000002248   -0.000003981    0.000012768
      3        1          -0.000014193   -0.000000446    0.000001660
      4        1           0.000007420    0.000008003   -0.000012149
      5        6          -0.000088678    0.000214961   -0.000079243
      6        8           0.000091994   -0.000140618    0.000032218
      7       53           0.000023055    0.000000130    0.000015351
 -------------------------------------------------------------------
 Cartesian Forces:  Max     0.000214961 RMS     0.000068480

 GradGradGradGradGradGradGradGradGradGradGradGradGradGradGradGradGradGrad
 Berny optimization.
 Using GEDIIS/GDIIS optimizer.
 FormGI is forming the generalized inverse of G from B-inverse, IUseBI=4.
 Internal  Forces:  Max     0.000166374 RMS     0.000043349
 Search for a local minimum.
 Step number   5 out of a maximum of   31
 All quantities printed in internal units (Hartrees-Bohrs-Radians)
 Mixed Optimization -- En-DIIS/RFO-DIIS
 Swapping is turned off.
 Update second derivatives using D2CorX and points    1    2    3    4    5
 DE= -1.03D-06 DEPred=-9.85D-07 R= 1.05D+00
 TightC=F SS=  1.41D+00  RLast= 4.85D-03 DXNew= 5.6911D-01 1.4546D-02
 Trust test= 1.05D+00 RLast= 4.85D-03 DXMaxT set to 3.38D-01
 ITU=  1  1  1  1  0
     Eigenvalues ---    0.01048   0.01084   0.06821   0.07648   0.08167
     Eigenvalues ---    0.12781   0.15903   0.16022   0.21581   0.24542
     Eigenvalues ---    0.32270   0.33120   0.33816   0.37296   1.18704
 En-DIIS/RFO-DIIS IScMMF=        0 using points:     5    4    3
 RFO step:  Lambda=-6.75947374D-08.
 DidBck=F Rises=F RFO-DIIS coefs:    0.82780    0.35164   -0.17944
 Iteration  1 RMS(Cart)=  0.00068464 RMS(Int)=  0.00000073
 Iteration  2 RMS(Cart)=  0.00000066 RMS(Int)=  0.00000044
 Variable       Old X    -DE/DX   Delta X   Delta X   Delta X     New X
                                 (Linear)    (Quad)   (Total)
    R1        2.06863  -0.00001   0.00009  -0.00009   0.00000   2.06864
    R2        2.06754  -0.00001   0.00010  -0.00010   0.00000   2.06754
    R3        2.06863  -0.00001   0.00009  -0.00007   0.00001   2.06865
    R4        2.84867  -0.00008   0.00029  -0.00028   0.00000   2.84867
    R5        2.24675   0.00017  -0.00005   0.00018   0.00014   2.24689
    R6        4.19862  -0.00002  -0.00011  -0.00054  -0.00066   4.19796
    A1        1.92863   0.00000  -0.00004  -0.00005  -0.00008   1.92854
    A2        1.87731  -0.00001   0.00000  -0.00001  -0.00001   1.87730
    A3        1.91106   0.00000   0.00002   0.00006   0.00007   1.91113
    A4        1.92863  -0.00001  -0.00004  -0.00006  -0.00010   1.92853
    A5        1.90694  -0.00001   0.00004  -0.00010  -0.00006   1.90689
    A6        1.91102   0.00002   0.00002   0.00016   0.00018   1.91121
    A7        2.22307  -0.00003  -0.00003  -0.00034  -0.00038   2.22269
    A8        1.96636   0.00001   0.00008   0.00008   0.00016   1.96653
    A9        2.09375   0.00002  -0.00005   0.00026   0.00021   2.09396
    D1        2.11404   0.00002   0.00009   0.00124   0.00133   2.11537
    D2       -1.02671  -0.00002  -0.00012  -0.00145  -0.00156  -1.02827
    D3       -0.00041   0.00002   0.00010   0.00132   0.00142   0.00101
    D4       -3.14116  -0.00002  -0.00010  -0.00136  -0.00147   3.14056
    D5       -2.11485   0.00002   0.00011   0.00135   0.00146  -2.11339
    D6        1.02758  -0.00002  -0.00009  -0.00133  -0.00143   1.02616
         Item               Value     Threshold  Converged?
 Maximum Force            0.000166     0.000450     YES
 RMS     Force            0.000043     0.000300     YES
 Maximum Displacement     0.001903     0.001800     NO 
 RMS     Displacement     0.000685     0.001200     YES
 Predicted change in Energy=-1.426013D-07
 GradGradGradGradGradGradGradGradGradGradGradGradGradGradGradGradGradGrad

                          Input orientation:                          
 ---------------------------------------------------------------------
 Center     Atomic      Atomic             Coordinates (Angstroms)
 Number     Number       Type             X           Y           Z
 ---------------------------------------------------------------------
      1          6           0        2.080143    1.120181   -0.000099
      2          1           0        1.777680    1.691905   -0.883254
      3          1           0        3.162426    0.959850    0.000318
      4          1           0        1.776957    1.691566    0.883032
      5          6           0        1.379810   -0.214716   -0.000713
      6          8           0        1.881665   -1.292617    0.000195
      7         53           0       -0.833170   -0.020744    0.000524
 ---------------------------------------------------------------------
                    Distance matrix (angstroms):
                    1          2          3          4          5
     1  C    0.000000
     2  H    1.094675   0.000000
     3  H    1.094094   1.798367   0.000000
     4  H    1.094680   1.766287   1.798365   0.000000
     5  C    1.507453   2.138312   2.134789   2.138373   0.000000
     6  O    2.420947   3.114267   2.591130   3.113794   1.189004
     7  I    3.128754   3.245114   4.114164   3.244008   2.221465
                    6          7
     6  O    0.000000
     7  I    2.997997   0.000000
 Stoichiometry    C2H3IO
 Framework group  C1[X(C2H3IO)]
 Deg. of freedom    15
 Full point group                 C1      NOp   1
 Largest Abelian subgroup         C1      NOp   1
 Largest concise Abelian subgroup C1      NOp   1
                         Standard orientation:                         
 ---------------------------------------------------------------------
 Center     Atomic      Atomic             Coordinates (Angstroms)
 Number     Number       Type             X           Y           Z
 ---------------------------------------------------------------------
      1          6           0        2.134184    1.079892    0.000124
      2          1           0        1.848839    1.660295   -0.883066
      3          1           0        3.211294    0.887858    0.000779
      4          1           0        1.847700    1.659885    0.883221
      5          6           0        1.394966   -0.233870   -0.000729
      6          8           0        1.864960   -1.326039    0.000229
      7         53           0       -0.811366    0.024984    0.000016
 ---------------------------------------------------------------------
 Rotational constants (GHZ):     10.0738384      2.1669453      1.8033462
 Basis read from rwf:  (5D, 7F)
 Pseudo-potential data read from rwf file.
 There are   122 symmetry adapted cartesian basis functions of A   symmetry.
 There are   110 symmetry adapted basis functions of A   symmetry.
   110 basis functions,   217 primitive gaussians,   122 cartesian basis functions
    24 alpha electrons       24 beta electrons
       nuclear repulsion energy       170.6671303304 Hartrees.
 NAtoms=    7 NActive=    7 NUniq=    7 SFac= 1.00D+00 NAtFMM=   60 NAOKFM=F Big=F
 Integral buffers will be    131072 words long.
 Raffenetti 2 integral format.
 Two-electron integral symmetry is turned on.
 One-electron integrals computed using PRISM.
 PrsmSu:  requested number of processors reduced to:   2 ShMem   1 Linda.
   1 Symmetry operations used in ECPInt.
 ECPInt:  NShTT=     703 NPrTT=    3258 LenC2=     698 LenP2D=    2591.
 LDataN:  DoStor=T MaxTD1= 7 Len=  274
 NBasis=   110 RedAO= T EigKep=  2.31D-04  NBF=   110
 NBsUse=   110 1.00D-06 EigRej= -1.00D+00 NBFU=   110
 Defaulting to unpruned grid for atomic number  53.
 Initial guess from the checkpoint file:  "/lustre/SCRATCH5/gau/Gau-6668.chk"
 B after Tr=     0.000000    0.000000    0.000000
         Rot=    1.000000   -0.000006   -0.000035    0.000006 Ang=   0.00 deg.
 Keep R1 ints in memory in canonical form, NReq=20695366.
 Requested convergence on RMS density matrix=1.00D-08 within 128 cycles.
 Requested convergence on MAX density matrix=1.00D-06.
 Requested convergence on             energy=1.00D-06.
 No special actions if energy rises.
 CoulSu:  requested number of processors reduced to:   7 ShMem   1 Linda.
 Defaulting to unpruned grid for atomic number  53.
 Defaulting to unpruned grid for atomic number  53.
 Defaulting to unpruned grid for atomic number  53.
 Defaulting to unpruned grid for atomic number  53.
 Defaulting to unpruned grid for atomic number  53.
 Defaulting to unpruned grid for atomic number  53.
 Defaulting to unpruned grid for atomic number  53.
 Defaulting to unpruned grid for atomic number  53.
 SCF Done:  E(RB3LYP) =  -451.054179227     A.U. after    8 cycles
            NFock=  8  Conv=0.45D-08     -V/T= 2.6977
 PrsmSu:  requested number of processors reduced to:   2 ShMem   1 Linda.
 PrsmSu:  requested number of processors reduced to:   5 ShMem   1 Linda.
   1 Symmetry operations used in ECPInt.
 ECPInt:  NShTT=     703 NPrTT=    3258 LenC2=     698 LenP2D=    2591.
 LDataN:  DoStor=T MaxTD1= 8 Len=  415
 Calling FoFJK, ICntrl=      2127 FMM=F ISym2X=0 I1Cent= 0 IOpClX= 0 NMat=1 NMatS=1 NMatT=0.
 CoulSu:  requested number of processors reduced to:   5 ShMem   1 Linda.
 Defaulting to unpruned grid for atomic number  53.
 Defaulting to unpruned grid for atomic number  53.
 Defaulting to unpruned grid for atomic number  53.
 Defaulting to unpruned grid for atomic number  53.
 Defaulting to unpruned grid for atomic number  53.
 Defaulting to unpruned grid for atomic number  53.
 Defaulting to unpruned grid for atomic number  53.
 Defaulting to unpruned grid for atomic number  53.
 ***** Axes restored to original set *****
 -------------------------------------------------------------------
 Center     Atomic                   Forces (Hartrees/Bohr)
 Number     Number              X              Y              Z
 -------------------------------------------------------------------
      1        6          -0.000013256   -0.000052395   -0.000071344
      2        1           0.000002909    0.000011775    0.000011961
      3        1          -0.000014301   -0.000002998   -0.000004036
      4        1          -0.000009751   -0.000017332   -0.000013531
      5        6           0.000017900    0.000151166    0.000193162
      6        8           0.000027886   -0.000087620   -0.000078287
[...]
 IR Inten    --      0.0881                13.9146                 4.4379
  Atom  AN      X      Y      Z        X      Y      Z        X      Y      Z
     1   6     0.00   0.00   0.01     0.40  -0.02   0.00    -0.18  -0.06   0.00
     2   1     0.41  -0.29  -0.32     0.54   0.04   0.00    -0.42  -0.18   0.01
     3   1     0.00   0.00   0.54     0.35  -0.29   0.00    -0.10   0.35   0.00
     4   1    -0.41   0.29  -0.32     0.54   0.04   0.01    -0.42  -0.17  -0.01
     5   6     0.00   0.00   0.01     0.16   0.09   0.00     0.25  -0.28   0.00
     6   8     0.00   0.00  -0.04     0.11   0.08   0.00     0.51  -0.15   0.00
     7  53     0.00   0.00   0.00    -0.08  -0.02   0.00    -0.06   0.05   0.00
                      4                      5                      6
                      A                      A                      A
 Frequencies --    466.6205               549.4611               940.1385
 Red. masses --      3.2928                 3.9847                 3.2047
 Frc consts  --      0.4224                 0.7088                 1.6689
 IR Inten    --      0.3807               118.5950                83.1298
  Atom  AN      X      Y      Z        X      Y      Z        X      Y      Z
     1   6     0.00   0.00   0.03     0.07   0.24   0.00     0.04   0.29   0.00
     2   1     0.33   0.41   0.20    -0.24   0.11   0.01     0.46   0.41  -0.06
     3   1     0.00   0.00   0.40     0.17   0.77   0.00    -0.05  -0.21   0.00
     4   1    -0.33  -0.41   0.20    -0.24   0.11  -0.01     0.46   0.41   0.06
     5   6     0.00   0.00  -0.42     0.31   0.00   0.00    -0.22  -0.18   0.00
     6   8     0.00   0.00   0.16    -0.19  -0.20   0.00     0.07  -0.14   0.00
     7  53     0.00   0.00   0.01    -0.01   0.00   0.00     0.00   0.00   0.00
                      7                      8                      9
                      A                      A                      A
 Frequencies --   1038.1412              1101.2758              1401.9909
 Red. masses --      1.5160                 1.7954                 1.2297
 Frc consts  --      0.9626                 1.2829                 1.4241
 IR Inten    --      0.6174               152.8296                24.0924
  Atom  AN      X      Y      Z        X      Y      Z        X      Y      Z
     1   6     0.00   0.00   0.15     0.18  -0.02   0.00     0.07   0.12   0.00
     2   1    -0.26  -0.57  -0.15    -0.34  -0.10   0.11    -0.31  -0.46  -0.25
     3   1     0.00   0.00  -0.36     0.30   0.75   0.00    -0.05  -0.50   0.00
     4   1     0.26   0.57  -0.15    -0.34  -0.10  -0.11    -0.31  -0.46   0.25
     5   6     0.00   0.00  -0.15    -0.19  -0.06   0.00    -0.01  -0.01   0.00
     6   8     0.00   0.00   0.03     0.03   0.03   0.00     0.00   0.00   0.00
     7  53     0.00   0.00   0.00     0.00   0.00   0.00     0.00   0.00   0.00
                     10                     11                     12
                      A                      A                      A
 Frequencies --   1481.8861              1483.7496              1884.0617
 Red. masses --      1.0455                 1.0479                11.9448
 Frc consts  --      1.3528                 1.3592                24.9815
 IR Inten    --     19.2257                11.0662               468.9223
  Atom  AN      X      Y      Z        X      Y      Z        X      Y      Z
     1   6     0.00   0.00  -0.06    -0.05   0.01   0.00    -0.01  -0.05   0.00
     2   1    -0.47  -0.09   0.05     0.39  -0.34  -0.36    -0.05  -0.19  -0.10
     3   1     0.00   0.00   0.72     0.04   0.46  -0.01     0.00   0.13   0.00
     4   1     0.48   0.08   0.06     0.38  -0.35   0.36    -0.05  -0.19   0.10
     5   6     0.00   0.00  -0.02    -0.01  -0.01   0.00    -0.23   0.74   0.00
     6   8     0.00   0.00   0.00     0.00   0.02   0.00     0.21  -0.50   0.00
     7  53     0.00   0.00   0.00     0.00   0.00   0.00     0.00   0.00   0.00
                     13                     14                     15
                      A                      A                      A
 Frequencies --   3064.9701              3143.4121              3157.7343
 Red. masses --      1.0323                 1.1011                 1.1065
 Frc consts  --      5.7138                 6.4104                 6.5006
 IR Inten    --      2.2359                 0.0195                 9.4028
  Atom  AN      X      Y      Z        X      Y      Z        X      Y      Z
     1   6    -0.02  -0.04   0.00     0.00   0.00   0.09    -0.08   0.05   0.00
     2   1    -0.15   0.29  -0.46    -0.19   0.38  -0.56     0.10  -0.21   0.34
     3   1     0.58  -0.11   0.00     0.00   0.00   0.01     0.79  -0.14   0.00
     4   1    -0.15   0.29   0.46     0.19  -0.38  -0.56     0.10  -0.21  -0.34
     5   6     0.00   0.00   0.00     0.00   0.00   0.00     0.00   0.00   0.00
     6   8     0.00   0.00   0.00     0.00   0.00   0.00     0.00   0.00   0.00
     7  53     0.00   0.00   0.00     0.00   0.00   0.00     0.00   0.00   0.00

 -------------------
 - Thermochemistry -
 -------------------
 Temperature   298.150 Kelvin.  Pressure   1.00000 Atm.
 Atom     1 has atomic number  6 and mass  12.00000
 Atom     2 has atomic number  1 and mass   1.00783
 Atom     3 has atomic number  1 and mass   1.00783
 Atom     4 has atomic number  1 and mass   1.00783
 Atom     5 has atomic number  6 and mass  12.00000
 Atom     6 has atomic number  8 and mass  15.99491
 Atom     7 has atomic number 53 and mass 126.90040
 Molecular mass:   169.91879 amu.
 Principal axes and moments of inertia in atomic units:
                           1         2         3
     Eigenvalues --   179.15130 832.850381000.77355
           X            0.99855   0.05383   0.00001
           Y           -0.05383   0.99855   0.00001
           Z           -0.00001  -0.00001   1.00000
 This molecule is an asymmetric top.
 Rotational symmetry number  1.
 Rotational temperatures (Kelvin)      0.48347     0.10400     0.08655
 Rotational constants (GHZ):          10.07384     2.16695     1.80335
 Zero-point vibrational energy     121934.8 (Joules/Mol)
                                   29.14313 (Kcal/Mol)
 Warning -- explicit consideration of   5 degrees of freedom as
           vibrations may cause significant error
 Vibrational temperatures:    183.45   375.83   408.25   671.36   790.55
          (Kelvin)           1352.65  1493.65  1584.49  2017.15  2132.10
                             2134.78  2710.74  4409.80  4522.66  4543.27
 
 Zero-point correction=                           0.046443 (Hartree/Particle)
 Thermal correction to Energy=                    0.051432
 Thermal correction to Enthalpy=                  0.052376
 Thermal correction to Gibbs Free Energy=         0.016480
 Sum of electronic and zero-point Energies=           -451.007737
 Sum of electronic and thermal Energies=              -451.002747
 Sum of electronic and thermal Enthalpies=            -451.001803
 Sum of electronic and thermal Free Energies=         -451.037699
 
                     E (Thermal)             CV                S
                      KCal/Mol        Cal/Mol-Kelvin    Cal/Mol-Kelvin
 Total                   32.274             15.147             75.549
 Electronic               0.000              0.000              0.000
 Translational            0.889              2.981             41.298
 Rotational               0.889              2.981             26.504
 Vibrational             30.497              9.185              7.747
 Vibration     1          0.611              1.926              2.983
 Vibration     2          0.669              1.744              1.654
 Vibration     3          0.682              1.704              1.511
 Vibration     4          0.824              1.324              0.747
 Vibration     5          0.905              1.141              0.545
                       Q            Log10(Q)             Ln(Q)
 Total Bot       0.262787D-07         -7.580396        -17.454508
 Total V=0       0.604839D+14         13.781640         31.733398
 Vib (Bot)       0.218212D-20        -20.661121        -47.573990
 Vib (Bot)    1  0.159989D+01          0.204090          0.469935
 Vib (Bot)    2  0.743115D+00         -0.128944         -0.296905
 Vib (Bot)    3  0.676224D+00         -0.169909         -0.391231
 Vib (Bot)    4  0.362508D+00         -0.440683         -1.014709
 Vib (Bot)    5  0.285759D+00         -0.543999         -1.252605
 Vib (V=0)       0.502244D+01          0.700914          1.613915
 Vib (V=0)    1  0.217620D+01          0.337699          0.777580
 Vib (V=0)    2  0.139567D+01          0.144782          0.333372
 Vib (V=0)    3  0.134100D+01          0.127428          0.293415
 Vib (V=0)    4  0.111759D+01          0.048281          0.111171
 Vib (V=0)    5  0.107590D+01          0.031771          0.073156
 Electronic      0.100000D+01          0.000000          0.000000
 Translational   0.870597D+08          7.939817         18.282105
 Rotational      0.138327D+06          5.140908         11.837378
 ***** Axes restored to original set *****
 -------------------------------------------------------------------
 Center     Atomic                   Forces (Hartrees/Bohr)
 Number     Number              X              Y              Z
 -------------------------------------------------------------------
      1        6          -0.000013245   -0.000052378   -0.000071315
      2        1           0.000002903    0.000011777    0.000011949
      3        1          -0.000014300   -0.000003001   -0.000004039
      4        1          -0.000009750   -0.000017339   -0.000013540
      5        6           0.000017869    0.000151206    0.000193161
      6        8           0.000027910   -0.000087669   -0.000078289
      7       53          -0.000011387   -0.000002597   -0.000037926
 -------------------------------------------------------------------
 Cartesian Forces:  Max     0.000193161 RMS     0.000063907
 FormGI is forming the generalized inverse of G from B-inverse, IUseBI=4.

 GradGradGradGradGradGradGradGradGradGradGradGradGradGradGradGradGradGrad
 Berny optimization.
 Internal  Forces:  Max     0.000091285 RMS     0.000037651
 Search for a local minimum.
 Step number   1 out of a maximum of    2
 All quantities printed in internal units (Hartrees-Bohrs-Radians)
 Second derivative matrix not updated -- analytic derivatives used.
 ITU=  0
     Eigenvalues ---    0.00088   0.04423   0.05656   0.05703   0.07129
     Eigenvalues ---    0.12617   0.14140   0.14200   0.17169   0.21353
     Eigenvalues ---    0.29201   0.34373   0.34644   0.35068   0.93894
 Angle between quadratic step and forces=  40.88 degrees.
 Linear search not attempted -- first point.
 Iteration  1 RMS(Cart)=  0.00052384 RMS(Int)=  0.00000033
 Iteration  2 RMS(Cart)=  0.00000030 RMS(Int)=  0.00000022
 Variable       Old X    -DE/DX   Delta X   Delta X   Delta X     New X
                                 (Linear)    (Quad)   (Total)
    R1        2.06864   0.00000   0.00000  -0.00002  -0.00002   2.06862
    R2        2.06754  -0.00001   0.00000  -0.00004  -0.00004   2.06750
    R3        2.06865  -0.00002   0.00000  -0.00003  -0.00003   2.06862
    R4        2.84867  -0.00007   0.00000  -0.00030  -0.00030   2.84837
    R5        2.24689   0.00009   0.00000   0.00010   0.00010   2.24699
    R6        4.19796   0.00001   0.00000   0.00014   0.00014   4.19810
    A1        1.92854   0.00000   0.00000   0.00005   0.00005   1.92859
    A2        1.87730  -0.00001   0.00000  -0.00013  -0.00013   1.87717
    A3        1.91113   0.00003   0.00000   0.00006   0.00006   1.91118
    A4        1.92853   0.00001   0.00000   0.00004   0.00004   1.92857
    A5        1.90689   0.00000   0.00000   0.00003   0.00003   1.90691
    A6        1.91121  -0.00003   0.00000  -0.00005  -0.00005   1.91116
    A7        2.22269   0.00001   0.00000   0.00009   0.00009   2.22279
    A8        1.96653   0.00000   0.00000   0.00003   0.00003   1.96656
    A9        2.09396  -0.00001   0.00000  -0.00012  -0.00012   2.09384
    D1        2.11537  -0.00004   0.00000  -0.00075  -0.00075   2.11462
    D2       -1.02827   0.00006   0.00000   0.00129   0.00129  -1.02697
    D3        0.00101  -0.00005   0.00000  -0.00086  -0.00086   0.00015
    D4        3.14056   0.00005   0.00000   0.00118   0.00118  -3.14144
    D5       -2.11339  -0.00005   0.00000  -0.00090  -0.00090  -2.11429
    D6        1.02616   0.00005   0.00000   0.00114   0.00114   1.02730
         Item               Value     Threshold  Converged?
 Maximum Force            0.000091     0.000450     YES
 RMS     Force            0.000038     0.000300     YES
 Maximum Displacement     0.001382     0.001800     YES
 RMS     Displacement     0.000524     0.001200     YES
 Predicted change in Energy=-1.683160D-07
 Optimization completed.
    -- Stationary point found.
                           ----------------------------
                           !   Optimized Parameters   !
                           ! (Angstroms and Degrees)  !
 --------------------------                            --------------------------
 ! Name  Definition              Value          Derivative Info.                !
 --------------------------------------------------------------------------------
 ! R1    R(1,2)                  1.0947         -DE/DX =    0.0                 !
 ! R2    R(1,3)                  1.0941         -DE/DX =    0.0                 !
 ! R3    R(1,4)                  1.0947         -DE/DX =    0.0                 !
 ! R4    R(1,5)                  1.5075         -DE/DX =   -0.0001              !
 ! R5    R(5,6)                  1.189          -DE/DX =    0.0001              !
 ! R6    R(5,7)                  2.2215         -DE/DX =    0.0                 !
 ! A1    A(2,1,3)              110.4973         -DE/DX =    0.0                 !
 ! A2    A(2,1,4)              107.5614         -DE/DX =    0.0                 !
 ! A3    A(2,1,5)              109.4995         -DE/DX =    0.0                 !
 ! A4    A(3,1,4)              110.4968         -DE/DX =    0.0                 !
 ! A5    A(3,1,5)              109.2565         -DE/DX =    0.0                 !
 ! A6    A(4,1,5)              109.5041         -DE/DX =    0.0                 !
 ! A7    A(1,5,6)              127.3509         -DE/DX =    0.0                 !
 ! A8    A(1,5,7)              112.6738         -DE/DX =    0.0                 !
 ! A9    A(6,5,7)              119.9752         -DE/DX =    0.0                 !
 ! D1    D(2,1,5,6)            121.2018         -DE/DX =    0.0                 !
 ! D2    D(2,1,5,7)            -58.9154         -DE/DX =    0.0001              !
 ! D3    D(3,1,5,6)              0.0578         -DE/DX =   -0.0001              !
 ! D4    D(3,1,5,7)           -180.0594         -DE/DX =    0.0                 !
 ! D5    D(4,1,5,6)           -121.0883         -DE/DX =    0.0                 !
 ! D6    D(4,1,5,7)             58.7945         -DE/DX =    0.0                 !
 --------------------------------------------------------------------------------
 GradGradGradGradGradGradGradGradGradGradGradGradGradGradGradGradGradGrad

 1\1\GINC-CNODE-5-12\Freq\RB3LYP\Gen\C2H3I1O1\MLAWAL\27-Feb-2015\0\\#N 
 Geom=AllCheck Guess=TCheck SCRF=Check GenChk RB3LYP/ChkBas Freq\\gen c
 alculation-iac C H O=6-31+g(d)/I=Def2TZVP\\0,1\C,2.0801427706,1.120180
 6184,-0.000099473\H,1.7776804027,1.691904504,-0.8832543066\H,3.1624256
 728,0.9598502337,0.0003181794\H,1.7769569047,1.6915658456,0.8830321742
 \C,1.3798103403,-0.2147156021,-0.0007133762\O,1.881664586,-1.292616723
 9,0.0001946147\I,-0.8331696771,-0.0207438757,0.0005241874\\Version=EM6
 4L-G09RevD.01\State=1-A\HF=-451.0541792\RMSD=2.152e-09\RMSF=6.391e-05\
 ZeroPoint=0.0464425\Thermal=0.0514321\Dipole=0.4894318,0.9884073,-0.00
 02945\DipoleDeriv=-0.1987325,-0.152512,0.0001388,0.0164778,-0.235942,-
 0.000187,-0.0002372,-0.0004726,0.0527257,0.0347473,-0.0004534,-0.06754
 39,-0.01012,0.0876758,0.0072705,-0.0336596,0.0414762,0.0305185,-0.1271
 81,-0.0305554,-0.0000234,-0.0513564,0.0398201,0.0000462,-0.0001275,-0.
 0000245,0.1130943,0.0345411,-0.0005629,0.0675485,-0.0101293,0.0877434,
 -0.0071424,0.0337768,-0.0412895,0.0306813,2.4023882,-0.148477,-0.00064
 72,-0.9287765,1.0438173,0.0003889,0.000367,-0.0000255,0.0635424,-1.196
 1824,0.2996337,0.0002919,0.9445573,-0.9350771,-0.0003553,-0.000881,0.0
 004058,-0.1937743,-0.9495806,0.0329269,0.0002353,0.0393472,-0.0880375,
 -0.0000208,0.0007613,-0.00007,-0.0967879\Polar=85.6836849,-1.7907367,5
 6.2567642,-0.0095468,-0.0027793,45.4513384\PG=C01 [X(C2H3I1O1)]\NImag=
 0\\0.56617347,-0.06371914,0.48531443,-0.00002405,-0.00005912,0.5426809
 9,-0.06983939,0.03820444,-0.06268412,0.06983680,0.03824147,-0.11536778
 ,0.11885906,-0.04111794,0.12865535,-0.06138550,0.11728852,-0.22266665,
 0.06797067,-0.12614392,0.24016611,-0.31387837,0.04134381,-0.00009928,-
 0.00515844,0.00066772,0.00061565,0.33949454,0.04439754,-0.05642015,0.0
 0001446,0.01606603,-0.00203551,-0.00246676,-0.04386641,0.05785194,-0.0
 0010040,0.00001409,-0.05086867,-0.02573430,0.00205954,0.00223623,0.000
 11119,-0.00001418,0.04635899,-0.06993145,0.03828789,0.06283469,0.00181
 750,-0.00487041,-0.00741907,-0.00518311,0.01604811,0.02573332,0.069956
 67,0.03832431,-0.11526049,-0.11879313,-0.00488988,0.01085628,0.0147410
 4,0.00067048,-0.00203487,-0.00206116,-0.04119870,0.12852987,0.06153068
 ,-0.11721935,-0.22266221,0.00743740,-0.01472685,-0.02115564,-0.0006228
 1,0.00247655,0.00225840,-0.06813921,0.12605725,0.24015717,-0.10856984,
 -0.05128791,-0.00003312,0.00544971,0.01180714,-0.00075770,-0.01799811,
 -0.03052458,-0.00001250,0.00545744,0.01182167,0.00076560,0.34497541,-0
 .06185089,-0.14853377,-0.00007038,-0.00693332,-0.02053275,-0.00140232,
 0.00151246,0.00117374,0.00000104,-0.00694193,-0.02053230,0.00139813,-0
 .19628451,0.93589777,-0.00000037,-0.00001022,-0.07774528,0.01533304,0.
 02471908,0.00224755,-0.00000569,-0.00001102,-0.00034461,-0.01533101,-0
 .02471307,0.00222575,0.00023344,-0.00049871,0.14890137,0.01527918,-0.0
 0670312,-0.00000396,-0.00010422,-0.00379610,0.00062779,0.00386613,0.00
 137517,0.00000168,-0.00010830,-0.00379867,-0.00062748,-0.20002058,0.30
 747237,-0.00024629,0.21958797,0.01679958,-0.05177651,0.00004906,-0.001
 05393,-0.00227061,-0.00159649,0.00134718,0.00295040,0.00000016,-0.0010
 4512,-0.00225396,0.00159137,0.26113936,-0.72984439,0.00052184,-0.31916
 107,0.78749855,-0.00001889,-0.00000278,0.02489477,-0.00203358,-0.00348
 969,-0.00131227,0.00000186,-0.00000093,-0.00092873,0.00203326,0.003490
 37,-0.00131179,-0.00021516,0.00055237,-0.05228895,0.00024603,-0.000553
 42,0.02108490,-0.01923360,0.00387401,0.00000983,-0.00200196,-0.0009318
 8,0.00034816,-0.00114264,-0.00349586,0.00000101,-0.00200875,-0.0009292
 1,-0.00034419,-0.02929402,-0.03697419,0.00001689,-0.03850018,0.0419739
 8,-0.00001352,0.09218115,-0.01219288,0.00204426,0.00000004,-0.00027540
 ,0.00069502,-0.00042006,-0.00167526,-0.00148554,0.00000052,-0.00027985
 ,0.00069546,0.00042290,-0.00667118,-0.01762829,-0.00000789,0.02461142,
 -0.00430348,0.00000408,-0.00351686,0.01998257,-0.00000146,-0.00001113,
 0.00636705,-0.00028912,-0.00127722,0.00048466,-0.00000092,0.00000188,0
 .00128839,0.00028801,0.00127869,0.00048831,0.00001944,0.00001987,-0.02
 299583,0.00000222,-0.00001252,0.00986207,-0.00001817,0.00000041,0.0045
 0535\\0.00001324,0.00005238,0.00007132,-0.00000290,-0.00001178,-0.0000
 1195,0.00001430,0.00000300,0.00000404,0.00000975,0.00001734,0.00001354
 ,-0.00001787,-0.00015121,-0.00019316,-0.00002791,0.00008767,0.00007829
 ,0.00001139,0.00000260,0.00003793\\\@


 LENDING MONEY TO FRIENDS CAUSES THEM TO LOSE THEIR MEMORIES.

    --  PETER'S THEORY OF RECIPROCAL INHIBITION OF FISCAL RECALL
 Job cpu time:       0 days  0 hours  3 minutes  2.6 seconds.
 File lengths (MBytes):  RWF=     15 Int=      0 D2E=      0 Chk=      2 Scr=      1
 Normal termination of Gaussian 09 at Fri Feb 27 11:26:49 2015.
