 Entering Link 1 = C:\G09W\l1.exe PID=      3688.
  
 Copyright (c) 1988,1990,1992,1993,1995,1998,2003,2009, Gaussian, Inc.
                  All Rights Reserved.
  
 This is part of the Gaussian(R) 09 program.  It is based on
 the Gaussian(R) 03 system (copyright 2003, Gaussian, Inc.),
 the Gaussian(R) 98 system (copyright 1998, Gaussian, Inc.),
 the Gaussian(R) 94 system (copyright 1995, Gaussian, Inc.),
 the Gaussian 92(TM) system (copyright 1992, Gaussian, Inc.),
 the Gaussian 90(TM) system (copyright 1990, Gaussian, Inc.),
 the Gaussian 88(TM) system (copyright 1988, Gaussian, Inc.),
 the Gaussian 86(TM) system (copyright 1986, Carnegie Mellon
 University), and the Gaussian 82(TM) system (copyright 1983,
 Carnegie Mellon University). Gaussian is a federally registered
 trademark of Gaussian, Inc.
  
 This software contains proprietary and confidential information,
 including trade secrets, belonging to Gaussian, Inc.
  
 This software is provided under written license and may be
 used, copied, transmitted, or stored only in accord with that
 written license.
  
 The following legend is applicable only to US Government
 contracts under FAR:
  
                    RESTRICTED RIGHTS LEGEND
  
 Use, reproduction and disclosure by the US Government is
 subject to restrictions as set forth in subparagraphs (a)
 and (c) of the Commercial Computer Software - Restricted
 Rights clause in FAR 52.227-19.
  
 Gaussian, Inc.
 340 Quinnipiac St., Bldg. 40, Wallingford CT 06492
  
  
 ---------------------------------------------------------------
 Warning -- This program may not be used in any manner that
 competes with the business of Gaussian, Inc. or will provide
 assistance to any competitor of Gaussian, Inc.  The licensee
 of this program is prohibited from giving any competitor of
 Gaussian, Inc. access to this program.  By using this program,
 the user acknowledges that Gaussian, Inc. is engaged in the
 business of creating and licensing software in the field of
 computational chemistry and represents and warrants to the
 licensee that it is not a competitor of Gaussian, Inc. and that
 it will not use this program in any manner prohibited above.
 ---------------------------------------------------------------
  

 Cite this work as:
 Gaussian 09, Revision A.02,
 M. J. Frisch, G. W. Trucks, H. B. Schlegel, G. E. Scuseria, 
 M. A. Robb, J. R. Cheeseman, G. Scalmani, V. Barone, B. Mennucci, 
 G. A. Petersson, H. Nakatsuji, M. Caricato, X. Li, H. P. Hratchian, 
 A. F. Izmaylov, J. Bloino, G. Zheng, J. L. Sonnenberg, M. Hada, 
 M. Ehara, K. Toyota, R. Fukuda, J. Hasegawa, M. Ishida, T. Nakajima, 
 Y. Honda, O. Kitao, H. Nakai, T. Vreven, J. A. Montgomery, Jr., 
 J. E. Peralta, F. Ogliaro, M. Bearpark, J. J. Heyd, E. Brothers, 
 K. N. Kudin, V. N. Staroverov, R. Kobayashi, J. Normand, 
 K. Raghavachari, A. Rendell, J. C. Burant, S. S. Iyengar, J. Tomasi, 
 M. Cossi, N. Rega, J. M. Millam, M. Klene, J. E. Knox, J. B. Cross, 
 V. Bakken, C. Adamo, J. Jaramillo, R. Gomperts, R. E. Stratmann, 
 O. Yazyev, A. J. Austin, R. Cammi, C. Pomelli, J. W. Ochterski, 
 R. L. Martin, K. Morokuma, V. G. Zakrzewski, G. A. Voth, 
 P. Salvador, J. J. Dannenberg, S. Dapprich, A. D. Daniels, 
 O. Farkas, J. B. Foresman, J. V. Ortiz, J. Cioslowski, 
 and D. J. Fox, Gaussian, Inc., Wallingford CT, 2009.
 
 ******************************************
 Gaussian 09:  IA32W-G09RevA.02 11-Jun-2009
                27-Feb-2015 
 ******************************************
 %chk=C:\Users\LawalM\Desktop\RCOI\iaclan.chk
 ----------------------------------------------------------
 # opt freq b3lyp/gen geom=connectivity gfinput pseudo=read
 ----------------------------------------------------------
 1/14=-1,18=20,19=15,26=3,38=1,57=2/1,3;
 2/9=110,12=2,17=6,18=5,40=1/2;
 3/5=7,11=2,16=1,17=8,24=10,25=1,30=1,71=1,74=-5/1,2,3;
 4//1;
 5/5=2,38=5/2;
 6/7=2,8=2,9=2,10=2,28=1/1;
 7//1,2,3,16;
 1/14=-1,18=20,19=15/3(2);
 2/9=110/2;
 99//99;
 2/9=110/2;
 3/5=7,6=1,11=2,16=1,17=8,25=1,30=1,71=1,74=-5,82=7/1,2,3;
 4/5=5,16=3/1;
 5/5=2,38=5/2;
 7//1,2,3,16;
 1/14=-1,18=20,19=15/3(-5);
 2/9=110/2;
 6/7=2,8=2,9=2,10=2,19=2,28=1/1;
 99/9=1/99;
 -------------------------------------------
 gen calculation-iac C H O=6-31+g(d)/I=midix
 -------------------------------------------
 Symbolic Z-matrix:
 Charge =  0 Multiplicity = 1
 C                     2.05216   1.08723  0. 
 H                     1.77291   1.69185  -0.88195 
 H                     3.15179   0.99106  0. 
 H                     1.77292   1.69184   0.88195 
 C                     1.39164  -0.23572   0. 
 O                     1.88483  -1.30956   0. 
 I                    -0.80074   0.01873   0. 
 

 GradGradGradGradGradGradGradGradGradGradGradGradGradGradGradGradGradGrad
 Berny optimization.
 Initialization pass.
                           ----------------------------
                           !    Initial Parameters    !
                           ! (Angstroms and Degrees)  !
 --------------------------                            --------------------------
 ! Name  Definition              Value          Derivative Info.                !
 --------------------------------------------------------------------------------
 ! R1    R(1,2)                  1.1052         estimate D2E/DX2                !
 ! R2    R(1,3)                  1.1038         estimate D2E/DX2                !
 ! R3    R(1,4)                  1.1052         estimate D2E/DX2                !
 ! R4    R(1,5)                  1.4787         estimate D2E/DX2                !
 ! R5    R(5,6)                  1.1817         estimate D2E/DX2                !
 ! R6    R(5,7)                  2.2071         estimate D2E/DX2                !
 ! A1    A(2,1,3)              107.4202         estimate D2E/DX2                !
 ! A2    A(2,1,4)              105.8848         estimate D2E/DX2                !
 ! A3    A(2,1,5)              112.1236         estimate D2E/DX2                !
 ! A4    A(3,1,4)              107.4197         estimate D2E/DX2                !
 ! A5    A(3,1,5)              111.5337         estimate D2E/DX2                !
 ! A6    A(4,1,5)              112.1236         estimate D2E/DX2                !
 ! A7    A(1,5,6)              128.7996         estimate D2E/DX2                !
 ! A8    A(1,5,7)              109.9117         estimate D2E/DX2                !
 ! A9    A(6,5,7)              121.2886         estimate D2E/DX2                !
 ! D1    D(2,1,5,6)            120.5198         estimate D2E/DX2                !
 ! D2    D(2,1,5,7)            -59.48           estimate D2E/DX2                !
 ! D3    D(3,1,5,6)              0.0            estimate D2E/DX2                !
 ! D4    D(3,1,5,7)           -179.9999         estimate D2E/DX2                !
 ! D5    D(4,1,5,6)           -120.5192         estimate D2E/DX2                !
 ! D6    D(4,1,5,7)             59.4809         estimate D2E/DX2                !
 --------------------------------------------------------------------------------
 Trust Radius=3.00D-01 FncErr=1.00D-07 GrdErr=1.00D-06
 Number of steps in this run=  31 maximum allowed number of steps= 100.
 GradGradGradGradGradGradGradGradGradGradGradGradGradGradGradGradGradGrad

                          Input orientation:                          
 ---------------------------------------------------------------------
 Center     Atomic      Atomic             Coordinates (Angstroms)
 Number     Number       Type             X           Y           Z
 ---------------------------------------------------------------------
      1          6           0        2.052156    1.087228   -0.000001
      2          1           0        1.772912    1.691848   -0.881945
      3          1           0        3.151785    0.991058   -0.000003
      4          1           0        1.772923    1.691844    0.881950
      5          6           0        1.391638   -0.235720    0.000001
      6          8           0        1.884834   -1.309563    0.000000
      7         53           0       -0.800737    0.018730    0.000000
 ---------------------------------------------------------------------
                    Distance matrix (angstroms):
                    1          2          3          4          5
     1  C    0.000000
     2  H    1.105155   0.000000
     3  H    1.103826   1.780511   0.000000
     4  H    1.105156   1.763895   1.780506   0.000000
     5  C    1.478674   2.153768   2.145484   2.153768   0.000000
     6  O    2.402624   3.130307   2.626409   3.130304   1.181686
     7  I    3.046422   3.193872   4.070363   3.193880   2.207092
                    6          7
     6  O    0.000000
     7  I    2.996106   0.000000
 Stoichiometry    C2H3IO
 Framework group  C1[X(C2H3IO)]
 Deg. of freedom    15
 Full point group                 C1      NOp   1
 Largest Abelian subgroup         C1      NOp   1
 Largest concise Abelian subgroup C1      NOp   1
                         Standard orientation:                         
 ---------------------------------------------------------------------
 Center     Atomic      Atomic             Coordinates (Angstroms)
 Number     Number       Type             X           Y           Z
 ---------------------------------------------------------------------
      1          6           0        2.052156    1.087228   -0.000001
      2          1           0        1.772912    1.691848   -0.881945
      3          1           0        3.151785    0.991058   -0.000003
      4          1           0        1.772923    1.691844    0.881950
      5          6           0        1.391638   -0.235720    0.000000
      6          8           0        1.884834   -1.309563    0.000000
      7         53           0       -0.800737    0.018730    0.000000
 ---------------------------------------------------------------------
 Rotational constants (GHZ):     10.1059402      2.2242341      1.8438616
 General basis read from cards:  (5D, 7F)
 AO basis set in the form of general basis input (Overlap normalization):
      1 0
 S   6 1.00       0.000000000000
      0.3047524880D+04  0.1834737132D-02
      0.4573695180D+03  0.1403732281D-01
      0.1039486850D+03  0.6884262226D-01
      0.2921015530D+02  0.2321844432D+00
      0.9286662960D+01  0.4679413484D+00
      0.3163926960D+01  0.3623119853D+00
 SP   3 1.00       0.000000000000
      0.7868272350D+01 -0.1193324198D+00  0.6899906659D-01
      0.1881288540D+01 -0.1608541517D+00  0.3164239610D+00
      0.5442492580D+00  0.1143456438D+01  0.7443082909D+00
 SP   1 1.00       0.000000000000
      0.1687144782D+00  0.1000000000D+01  0.1000000000D+01
 SP   1 1.00       0.000000000000
      0.4380000000D-01  0.1000000000D+01  0.1000000000D+01
 D   1 1.00       0.000000000000
      0.8000000000D+00  0.1000000000D+01
 ****
      2 0
 S   3 1.00       0.000000000000
      0.1873113696D+02  0.3349460434D-01
      0.2825394365D+01  0.2347269535D+00
      0.6401216923D+00  0.8137573261D+00
 S   1 1.00       0.000000000000
      0.1612777588D+00  0.1000000000D+01
 ****
      3 0
 S   3 1.00       0.000000000000
      0.1873113696D+02  0.3349460434D-01
      0.2825394365D+01  0.2347269535D+00
      0.6401216923D+00  0.8137573261D+00
 S   1 1.00       0.000000000000
      0.1612777588D+00  0.1000000000D+01
 ****
      4 0
 S   3 1.00       0.000000000000
      0.1873113696D+02  0.3349460434D-01
      0.2825394365D+01  0.2347269535D+00
      0.6401216923D+00  0.8137573261D+00
 S   1 1.00       0.000000000000
      0.1612777588D+00  0.1000000000D+01
 ****
      5 0
 S   6 1.00       0.000000000000
      0.3047524880D+04  0.1834737132D-02
      0.4573695180D+03  0.1403732281D-01
      0.1039486850D+03  0.6884262226D-01
      0.2921015530D+02  0.2321844432D+00
      0.9286662960D+01  0.4679413484D+00
      0.3163926960D+01  0.3623119853D+00
 SP   3 1.00       0.000000000000
      0.7868272350D+01 -0.1193324198D+00  0.6899906659D-01
      0.1881288540D+01 -0.1608541517D+00  0.3164239610D+00
      0.5442492580D+00  0.1143456438D+01  0.7443082909D+00
 SP   1 1.00       0.000000000000
      0.1687144782D+00  0.1000000000D+01  0.1000000000D+01
 SP   1 1.00       0.000000000000
      0.4380000000D-01  0.1000000000D+01  0.1000000000D+01
 D   1 1.00       0.000000000000
      0.8000000000D+00  0.1000000000D+01
 ****
      6 0
 S   6 1.00       0.000000000000
      0.5484671660D+04  0.1831074430D-02
      0.8252349460D+03  0.1395017220D-01
      0.1880469580D+03  0.6844507810D-01
      0.5296450000D+02  0.2327143360D+00
      0.1689757040D+02  0.4701928980D+00
      0.5799635340D+01  0.3585208530D+00
 SP   3 1.00       0.000000000000
      0.1553961625D+02 -0.1107775495D+00  0.7087426823D-01
      0.3599933586D+01 -0.1480262627D+00  0.3397528391D+00
      0.1013761750D+01  0.1130767015D+01  0.7271585773D+00
 SP   1 1.00       0.000000000000
      0.2700058226D+00  0.1000000000D+01  0.1000000000D+01
 SP   1 1.00       0.000000000000
      0.8450000000D-01  0.1000000000D+01  0.1000000000D+01
 D   1 1.00       0.000000000000
      0.8000000000D+00  0.1000000000D+01
 ****
      7 0
 S   3 1.00       0.000000000000
      0.1435118600D+05  0.6100296243D-01
      0.2173074100D+04  0.3666397742D+00
      0.4778720500D+03  0.6911305744D+00
 S   3 1.00       0.000000000000
      0.6481887000D+03 -0.1128509932D+00
      0.1403064000D+03  0.8322799497D-01
      0.4569880000D+02  0.9697519414D+00
 S   3 1.00       0.000000000000
      0.5669469000D+02 -0.2736970086D+00
      0.2748875000D+02  0.4650000147D-01
      0.8209096000D+01  0.1091576034D+01
 S   3 1.00       0.000000000000
      0.8191679000D+01 -0.4508282032D+00
      0.3244596000D+01  0.4632092088D+00
      0.1300489000D+01  0.8386363779D+00
 S   2 1.00       0.000000000000
      0.1451380000D+01 -0.6658518470D+00
      0.3281030000D+00  0.1328583695D+01
 S   1 1.00       0.000000000000
      0.1150760000D+00  0.1000000000D+01
 P   3 1.00       0.000000000000
      0.6481887000D+03  0.1541140437D+00
      0.1403064000D+03  0.6194621756D+00
      0.4569880000D+02  0.3837581088D+00
 P   3 1.00       0.000000000000
      0.5669469000D+02 -0.1523219476D+00
      0.2748875000D+02  0.5437688128D+00
      0.8209096000D+01  0.6561677741D+00
 P   3 1.00       0.000000000000
      0.8191679000D+01  0.1186999031D-01
      0.3244596000D+01  0.5265245700D+00
      0.1300489000D+01  0.5266075699D+00
 P   2 1.00       0.000000000000
      0.1451380000D+01  0.2754100034D-01
      0.3281030000D+00  0.9851370121D+00
 P   1 1.00       0.000000000000
      0.1150760000D+00  0.1000000000D+01
 D   3 1.00       0.000000000000
      0.1280902600D+03  0.1158640046D+00
      0.3598237800D+02  0.4820490193D+00
      0.1155111600D+02  0.5894450236D+00
 D   3 1.00       0.000000000000
      0.6146152000D+01  0.2681821130D+00
      0.2220937000D+01  0.5800612445D+00
      0.8099120000D+00  0.3262261375D+00
 D   1 1.00       0.000000000000
      0.4000000000D+00  0.1000000000D+01
 ****

 ======================================================================================================
                                       Pseudopotential Parameters
 ======================================================================================================
  Center     Atomic      Valence      Angular      Power
  Number     Number     Electrons     Momentum     of R      Exponent        Coefficient   SO-Coeffient
 ======================================================================================================
    1          6
                                   No pseudopotential on this center.
    2          1
                                   No pseudopotential on this center.
    3          1
                                   No pseudopotential on this center.
    4          1
                                   No pseudopotential on this center.
    5          6
                                   No pseudopotential on this center.
    6          8
                                   No pseudopotential on this center.
    7         53
                                   No pseudopotential on this center.
 ======================================================================================================
 There are    96 symmetry adapted basis functions of A   symmetry.
 Integral buffers will be    262144 words long.
 Raffenetti 2 integral format.
 Two-electron integral symmetry is turned on.
    96 basis functions,   201 primitive gaussians,   102 cartesian basis functions
    38 alpha electrons       38 beta electrons
       nuclear repulsion energy       294.0352139156 Hartrees.
 NAtoms=    7 NActive=    7 NUniq=    7 SFac= 7.50D-01 NAtFMM=   80 NAOKFM=F Big=F
 One-electron integrals computed using PRISM.
   1 Symmetry operations used in ECPInt.
 ECPInt:  NShTT=     630 NPrTT=    3495 LenC2=     619 LenP2D=    2709.
 LDataN:  DoStor=T MaxTD1= 4 Len=   56
 NBasis=    96 RedAO= T  NBF=    96
 NBsUse=    96 1.00D-06 NBFU=    96
 Defaulting to unpruned grid for atomic number  53.
 Harris functional with IExCor=  402 diagonalized for initial guess.
 ExpMin= 4.38D-02 ExpMax= 1.44D+04 ExpMxC= 1.44D+04 IAcc=2 IRadAn=         0 AccDes= 0.00D+00
 HarFok:  IExCor=  402 AccDes= 0.00D+00 IRadAn=         0 IDoV= 1
 ScaDFX=  1.000000  1.000000  1.000000  1.000000
 Defaulting to unpruned grid for atomic number  53.
 FoFCou: FMM=F IPFlag=           0 FMFlag=      100000 FMFlg1=           0
         NFxFlg=           0 DoJE=T BraDBF=F KetDBF=T FulRan=T
         Omega=  0.000000  0.000000  1.000000  0.000000  0.000000 ICntrl=     500 IOpCl=  0
         NMat0=    1 NMatS0=    1 NMatT0=    0 NMatD0=    1 NMtDS0=    0 NMtDT0=    0
         I1Cent=           4 NGrid=           0.
 Petite list used in FoFCou.
 Initial guess orbital symmetries:
       Occupied  (A) (A) (A) (A) (A) (A) (A) (A) (A) (A) (A) (A)
                 (A) (A) (A) (A) (A) (A) (A) (A) (A) (A) (A) (A)
                 (A) (A) (A) (A) (A) (A) (A) (A) (A) (A) (A) (A)
                 (A) (A)
       Virtual   (A) (A) (A) (A) (A) (A) (A) (A) (A) (A) (A) (A)
                 (A) (A) (A) (A) (A) (A) (A) (A) (A) (A) (A) (A)
                 (A) (A) (A) (A) (A) (A) (A) (A) (A) (A) (A) (A)
                 (A) (A) (A) (A) (A) (A) (A) (A) (A) (A) (A) (A)
                 (A) (A) (A) (A) (A) (A) (A) (A) (A) (A)
 The electronic state of the initial guess is 1-A.
 Requested convergence on RMS density matrix=1.00D-08 within 128 cycles.
 Requested convergence on MAX density matrix=1.00D-06.
 Requested convergence on             energy=1.00D-06.
 No special actions if energy rises.
 Keep R1 ints in memory in canonical form, NReq=14836775.
 Defaulting to unpruned grid for atomic number  53.
 SCF Done:  E(RB3LYP) =  -7043.39005581     A.U. after   13 cycles
             Convg  =    0.6164D-08             -V/T =  1.9987

 **********************************************************************

            Population analysis using the SCF density.

 **********************************************************************

 Orbital symmetries:
       Occupied  (A) (A) (A) (A) (A) (A) (A) (A) (A) (A) (A) (A)
                 (A) (A) (A) (A) (A) (A) (A) (A) (A) (A) (A) (A)
                 (A) (A) (A) (A) (A) (A) (A) (A) (A) (A) (A) (A)
                 (A) (A)
       Virtual   (A) (A) (A) (A) (A) (A) (A) (A) (A) (A) (A) (A)
                 (A) (A) (A) (A) (A) (A) (A) (A) (A) (A) (A) (A)
                 (A) (A) (A) (A) (A) (A) (A) (A) (A) (A) (A) (A)
                 (A) (A) (A) (A) (A) (A) (A) (A) (A) (A) (A) (A)
                 (A) (A) (A) (A) (A) (A) (A) (A) (A) (A)
 The electronic state is 1-A.
 Alpha  occ. eigenvalues -- **********-175.66797-164.44458-164.44276-164.44272
 Alpha  occ. eigenvalues --  -35.78279 -30.95110 -30.94721 -30.94668 -22.89890
 Alpha  occ. eigenvalues --  -22.89696 -22.89680 -22.89346 -22.89338 -19.20361
 Alpha  occ. eigenvalues --  -10.33937 -10.22416  -6.37750  -4.68364  -4.67267
 Alpha  occ. eigenvalues --   -4.67138  -2.05999  -2.05649  -2.05559  -2.04593
 Alpha  occ. eigenvalues --   -2.04591  -1.11354  -0.79391  -0.67080  -0.56171
 Alpha  occ. eigenvalues --   -0.48874  -0.48375  -0.48317  -0.41160  -0.40940
 Alpha  occ. eigenvalues --   -0.28862  -0.27046  -0.26336
 Alpha virt. eigenvalues --   -0.05569  -0.04564   0.00083   0.03808   0.04612
 Alpha virt. eigenvalues --    0.05154   0.08151   0.08414   0.08817   0.11070
 Alpha virt. eigenvalues --    0.15717   0.16224   0.22853   0.24580   0.25119
 Alpha virt. eigenvalues --    0.26459   0.27310   0.28466   0.36769   0.39360
 Alpha virt. eigenvalues --    0.44660   0.51511   0.52169   0.53262   0.55715
 Alpha virt. eigenvalues --    0.56982   0.60789   0.63843   0.65409   0.67686
 Alpha virt. eigenvalues --    0.75439   0.79112   0.83116   0.88714   0.89264
 Alpha virt. eigenvalues --    0.98165   1.05663   1.08650   1.19898   1.24420
 Alpha virt. eigenvalues --    1.25993   1.34097   1.37880   1.51136   1.64064
 Alpha virt. eigenvalues --    1.68569   1.76883   1.78479   1.84794   2.01533
 Alpha virt. eigenvalues --    2.05046   2.14335   2.30043   2.37725   2.55707
 Alpha virt. eigenvalues --    2.58850   2.85522   3.10670
          Condensed to atoms (all electrons):
              1          2          3          4          5          6
     1  C    5.934927   0.383025   0.329786   0.383025  -0.045307  -0.079376
     2  H    0.383025   0.461564  -0.024806  -0.023330  -0.044885   0.000786
     3  H    0.329786  -0.024806   0.477777  -0.024807   0.001104  -0.002184
     4  H    0.383025  -0.023330  -0.024807   0.461565  -0.044885   0.000786
     5  C   -0.045307  -0.044885   0.001104  -0.044885   5.087721   0.416171
     6  O   -0.079376   0.000786  -0.002184   0.000786   0.416171   8.038492
     7  I   -0.138487  -0.003879   0.005603  -0.003879   0.364739  -0.112071
              7
     1  C   -0.138487
     2  H   -0.003879
     3  H    0.005603
     4  H   -0.003879
     5  C    0.364739
     6  O   -0.112071
     7  I   52.863695
 Mulliken atomic charges:
              1
     1  C   -0.767593
     2  H    0.251524
     3  H    0.237526
     4  H    0.251524
     5  C    0.265343
     6  O   -0.262604
     7  I    0.024279
 Sum of Mulliken atomic charges =   0.00000
 Mulliken charges with hydrogens summed into heavy atoms:
              1
     1  C   -0.027018
     5  C    0.265343
     6  O   -0.262604
     7  I    0.024279
 Sum of Mulliken charges with hydrogens summed into heavy atoms =   0.00000
 Electronic spatial extent (au):  <R**2>=            620.3973
 Charge=              0.0000 electrons
 Dipole moment (field-independent basis, Debye):
    X=              0.9317    Y=              2.6704    Z=              0.0000  Tot=              2.8283
 Quadrupole moment (field-independent basis, Debye-Ang):
   XX=            -43.7234   YY=            -48.3271   ZZ=            -46.2378
   XY=              5.2941   XZ=              0.0000   YZ=              0.0000
 Traceless Quadrupole moment (field-independent basis, Debye-Ang):
   XX=              2.3727   YY=             -2.2310   ZZ=             -0.1417
   XY=              5.2941   XZ=              0.0000   YZ=              0.0000
 Octapole moment (field-independent basis, Debye-Ang**2):
  XXX=            -32.6901  YYY=              3.6264  ZZZ=              0.0000  XYY=            -11.4871
  XXY=             11.1443  XXZ=              0.0000  XZZ=             -8.1375  YZZ=              0.1486
  YYZ=              0.0000  XYZ=              0.0000
 Hexadecapole moment (field-independent basis, Debye-Ang**3):
 XXXX=           -514.6072 YYYY=           -186.5141 ZZZZ=            -64.9398 XXXY=             15.8529
 XXXZ=              0.0001 YYYX=              3.2481 YYYZ=              0.0000 ZZZX=              0.0000
 ZZZY=              0.0000 XXYY=           -125.8831 XXZZ=            -99.3921 YYZZ=            -38.7757
 XXYZ=              0.0001 YYXZ=              0.0000 ZZXY=             -1.3305
 N-N= 2.940352139156D+02 E-N=-1.732164617772D+04  KE= 7.052710878671D+03
   1 Symmetry operations used in ECPInt.
 ECPInt:  NShTT=     630 NPrTT=    3495 LenC2=     619 LenP2D=    2709.
 LDataN:  DoStor=T MaxTD1= 5 Len=  102
 Calling FoFJK, ICntrl=      2127 FMM=F ISym2X=0 I1Cent= 0 IOpClX= 0 NMat=1 NMatS=1 NMatT=0.
 Defaulting to unpruned grid for atomic number  53.
 ***** Axes restored to original set *****
 -------------------------------------------------------------------
 Center     Atomic                   Forces (Hartrees/Bohr)
 Number     Number              X              Y              Z
 -------------------------------------------------------------------
      1        6           0.022036413    0.025226309    0.000000635
      2        1          -0.002177224   -0.006524135    0.004119463
      3        1          -0.004687268   -0.004090439   -0.000000392
      4        1          -0.002177711   -0.006524275   -0.004119723
      5        6          -0.017270651    0.008874856   -0.000000055
      6        8           0.008728213   -0.013816964    0.000000046
      7       53          -0.004451772   -0.003145353    0.000000027
 -------------------------------------------------------------------
 Cartesian Forces:  Max     0.025226309 RMS     0.009668476

 GradGradGradGradGradGradGradGradGradGradGradGradGradGradGradGradGradGrad
 Berny optimization.
 Internal  Forces:  Max     0.016196700 RMS     0.006545748
 Search for a local minimum.
 Step number   1 out of a maximum of   31
 All quantities printed in internal units (Hartrees-Bohrs-Radians)
 Mixed Optimization -- RFO/linear search
 Second derivative matrix not updated -- first step.
     Eigenvalues ---    0.01048   0.01048   0.07211   0.07226   0.10889
     Eigenvalues ---    0.16000   0.16000   0.16000   0.25000   0.25000
     Eigenvalues ---    0.33118   0.33118   0.33262   0.34722   1.14592
     Eigenvalues --- 1000.000001000.000001000.000001000.000001000.00000
     Eigenvalues --- 1000.00000
 RFO step:  Lambda=-2.87685587D-03 EMin= 1.04805561D-02
 Linear search not attempted -- first point.
 Iteration  1 RMS(Cart)=  0.03014848 RMS(Int)=  0.00063857
 Iteration  2 RMS(Cart)=  0.00051672 RMS(Int)=  0.00025703
 Iteration  3 RMS(Cart)=  0.00000021 RMS(Int)=  0.00025703
 Variable       Old X    -DE/DX   Delta X   Delta X   Delta X     New X
                                 (Linear)    (Quad)   (Total)
    R1        2.08844  -0.00631   0.00000  -0.01888  -0.01888   2.06956
    R2        2.08593  -0.00431   0.00000  -0.01285  -0.01285   2.07308
    R3        2.08844  -0.00631   0.00000  -0.01888  -0.01888   2.06956
    R4        2.79429   0.01304   0.00000   0.03724   0.03724   2.83153
    R5        2.23306   0.01620   0.00000   0.01410   0.01410   2.24716
    R6        4.17080   0.00406   0.00000   0.03635   0.03635   4.20715
    A1        1.87484   0.00525   0.00000   0.03556   0.03536   1.91020
    A2        1.84804   0.00410   0.00000   0.01850   0.01773   1.86577
    A3        1.95693  -0.00493   0.00000  -0.03209  -0.03257   1.92435
    A4        1.87483   0.00525   0.00000   0.03557   0.03537   1.91019
    A5        1.94663  -0.00360   0.00000  -0.01851  -0.01872   1.92791
    A6        1.95693  -0.00493   0.00000  -0.03209  -0.03258   1.92435
    A7        2.24798  -0.00826   0.00000  -0.03265  -0.03265   2.21533
    A8        1.91832   0.01169   0.00000   0.04624   0.04624   1.96456
    A9        2.11689  -0.00344   0.00000  -0.01360  -0.01360   2.10329
    D1        2.10347   0.00077   0.00000   0.01028   0.01006   2.11352
    D2       -1.03812   0.00077   0.00000   0.01028   0.01005  -1.02807
    D3        0.00000   0.00000   0.00000   0.00000   0.00000   0.00001
    D4       -3.14159   0.00000   0.00000   0.00000   0.00000  -3.14159
    D5       -2.10346  -0.00077   0.00000  -0.01028  -0.01005  -2.11351
    D6        1.03814  -0.00077   0.00000  -0.01029  -0.01006   1.02808
         Item               Value     Threshold  Converged?
 Maximum Force            0.016197     0.000450     NO 
 RMS     Force            0.006546     0.000300     NO 
 Maximum Displacement     0.073438     0.001800     NO 
 RMS     Displacement     0.030098     0.001200     NO 
 Predicted change in Energy=-1.455479D-03
 GradGradGradGradGradGradGradGradGradGradGradGradGradGradGradGradGradGrad

                          Input orientation:                          
 ---------------------------------------------------------------------
 Center     Atomic      Atomic             Coordinates (Angstroms)
 Number     Number       Type             X           Y           Z
 ---------------------------------------------------------------------
      1          6           0        2.074761    1.108932   -0.000001
      2          1           0        1.781443    1.691444   -0.879788
      3          1           0        3.162987    0.970248   -0.000004
      4          1           0        1.781450    1.691438    0.879793
      5          6           0        1.377698   -0.217433   -0.000001
      6          8           0        1.886771   -1.292103    0.000001
      7         53           0       -0.839599   -0.017101    0.000001
 ---------------------------------------------------------------------
                    Distance matrix (angstroms):
                    1          2          3          4          5
     1  C    0.000000
     2  H    1.095162   0.000000
     3  H    1.097027   1.789639   0.000000
     4  H    1.095163   1.759581   1.789637   0.000000
     5  C    1.498380   2.140291   2.144258   2.140291   0.000000
     6  O    2.408383   3.112342   2.597491   3.112337   1.189147
     7  I    3.124331   3.250079   4.122566   3.250082   2.226328
                    6          7
     6  O    0.000000
     7  I    3.009771   0.000000
 Stoichiometry    C2H3IO
 Framework group  C1[X(C2H3IO)]
 Deg. of freedom    15
 Full point group                 C1      NOp   1
 Largest Abelian subgroup         C1      NOp   1
 Largest concise Abelian subgroup C1      NOp   1
                         Standard orientation:                         
 ---------------------------------------------------------------------
 Center     Atomic      Atomic             Coordinates (Angstroms)
 Number     Number       Type             X           Y           Z
 ---------------------------------------------------------------------
      1          6           0       -2.128481   -1.075738   -0.000002
      2          1           0       -1.849985   -1.665479   -0.879789
      3          1           0       -3.212852   -0.909584   -0.000005
      4          1           0       -1.849991   -1.665473    0.879792
      5          6           0       -1.398106    0.232580   -0.000002
      6          8           0       -1.879845    1.319777    0.000000
      7         53           0        0.813417   -0.023750    0.000000
 ---------------------------------------------------------------------
 Rotational constants (GHZ):     10.1408000      2.1564929      1.7980659
 Basis read from rwf:  (5D, 7F)
 Pseudo-potential data read from rwf file.
 There are    96 symmetry adapted basis functions of A   symmetry.
 Integral buffers will be    262144 words long.
 Raffenetti 2 integral format.
 Two-electron integral symmetry is turned on.
    96 basis functions,   201 primitive gaussians,   102 cartesian basis functions
    38 alpha electrons       38 beta electrons
       nuclear repulsion energy       291.0593704636 Hartrees.
 NAtoms=    7 NActive=    7 NUniq=    7 SFac= 7.50D-01 NAtFMM=   80 NAOKFM=F Big=F
 One-electron integrals computed using PRISM.
   1 Symmetry operations used in ECPInt.
 ECPInt:  NShTT=     630 NPrTT=    3495 LenC2=     619 LenP2D=    2704.
 LDataN:  DoStor=T MaxTD1= 4 Len=   56
 NBasis=    96 RedAO= T  NBF=    96
 NBsUse=    96 1.00D-06 NBFU=    96
 Defaulting to unpruned grid for atomic number  53.
 Initial guess read from the read-write file.
 B after Tr=     0.000000    0.000000    0.000000
         Rot=    1.000000    0.000000    0.000000    0.000000 Ang=   0.00 deg.
 Initial guess orbital symmetries:
       Occupied  (A) (A) (A) (A) (A) (A) (A) (A) (A) (A) (A) (A)
                 (A) (A) (A) (A) (A) (A) (A) (A) (A) (A) (A) (A)
                 (A) (A) (A) (A) (A) (A) (A) (A) (A) (A) (A) (A)
                 (A) (A)
       Virtual   (A) (A) (A) (A) (A) (A) (A) (A) (A) (A) (A) (A)
                 (A) (A) (A) (A) (A) (A) (A) (A) (A) (A) (A) (A)
                 (A) (A) (A) (A) (A) (A) (A) (A) (A) (A) (A) (A)
                 (A) (A) (A) (A) (A) (A) (A) (A) (A) (A) (A) (A)
                 (A) (A) (A) (A) (A) (A) (A) (A) (A) (A)
 Harris functional with IExCor=  402 diagonalized for initial guess.
 ExpMin= 4.38D-02 ExpMax= 1.44D+04 ExpMxC= 1.44D+04 IAcc=2 IRadAn=         0 AccDes= 0.00D+00
 HarFok:  IExCor=  402 AccDes= 0.00D+00 IRadAn=         0 IDoV= 1
 ScaDFX=  1.000000  1.000000  1.000000  1.000000
 Defaulting to unpruned grid for atomic number  53.
 FoFCou: FMM=F IPFlag=           0 FMFlag=      100000 FMFlg1=           0
         NFxFlg=           0 DoJE=T BraDBF=F KetDBF=T FulRan=T
         Omega=  0.000000  0.000000  1.000000  0.000000  0.000000 ICntrl=     500 IOpCl=  0
         NMat0=    1 NMatS0=    1 NMatT0=    0 NMatD0=    1 NMtDS0=    0 NMtDT0=    0
         I1Cent=           4 NGrid=           0.
 Petite list used in FoFCou.
 Requested convergence on RMS density matrix=1.00D-08 within 128 cycles.
 Requested convergence on MAX density matrix=1.00D-06.
 Requested convergence on             energy=1.00D-06.
 No special actions if energy rises.
 Keep R1 ints in memory in canonical form, NReq=14836775.
 Defaulting to unpruned grid for atomic number  53.
 SCF Done:  E(RB3LYP) =  -7043.39172326     A.U. after   14 cycles
             Convg  =    0.2776D-08             -V/T =  1.9987
   1 Symmetry operations used in ECPInt.
 ECPInt:  NShTT=     630 NPrTT=    3495 LenC2=     619 LenP2D=    2704.
 LDataN:  DoStor=T MaxTD1= 5 Len=  102
 Calling FoFJK, ICntrl=      2127 FMM=F ISym2X=0 I1Cent= 0 IOpClX= 0 NMat=1 NMatS=1 NMatT=0.
 Defaulting to unpruned grid for atomic number  53.
 ***** Axes restored to original set *****
 -------------------------------------------------------------------
 Center     Atomic                   Forces (Hartrees/Bohr)
 Number     Number              X              Y              Z
 -------------------------------------------------------------------
      1        6           0.006115140    0.006569283    0.000000099
      2        1          -0.001142205   -0.000912387   -0.000229218
      3        1          -0.001849540   -0.002048920   -0.000000095
      4        1          -0.001142293   -0.000912481    0.000229096
      5        6          -0.005615151    0.000134878    0.000000311
      6        8           0.000809145   -0.001890503   -0.000000131
      7       53           0.002824905   -0.000939871   -0.000000062
 -------------------------------------------------------------------
 Cartesian Forces:  Max     0.006569283 RMS     0.002555937

 GradGradGradGradGradGradGradGradGradGradGradGradGradGradGradGradGradGrad
 Berny optimization.
 Using GEDIIS/GDIIS optimizer.
 Internal  Forces:  Max     0.003305539 RMS     0.001553918
 Search for a local minimum.
 Step number   2 out of a maximum of   31
 All quantities printed in internal units (Hartrees-Bohrs-Radians)
 Mixed Optimization -- RFO/linear search
 Update second derivatives using D2CorX and points    1    2
 DE= -1.67D-03 DEPred=-1.46D-03 R= 1.15D+00
 SS=  1.41D+00  RLast= 1.13D-01 DXNew= 5.0454D-01 3.4030D-01
 Trust test= 1.15D+00 RLast= 1.13D-01 DXMaxT set to 3.40D-01
 Use linear search instead of GDIIS.
     Eigenvalues ---    0.01048   0.01048   0.07451   0.07571   0.11332
     Eigenvalues ---    0.13452   0.16000   0.16181   0.24410   0.25205
     Eigenvalues ---    0.32417   0.33118   0.33786   0.33954   1.13922
     Eigenvalues --- 1000.000001000.000001000.000001000.000001000.00000
     Eigenvalues --- 1000.00000
 RFO step:  Lambda=-2.61555553D-04 EMin= 1.04805561D-02
 Quartic linear search produced a step of  0.21643.
 Iteration  1 RMS(Cart)=  0.01171835 RMS(Int)=  0.00021451
 Iteration  2 RMS(Cart)=  0.00017161 RMS(Int)=  0.00011816
 Iteration  3 RMS(Cart)=  0.00000002 RMS(Int)=  0.00011816
 Variable       Old X    -DE/DX   Delta X   Delta X   Delta X     New X
                                 (Linear)    (Quad)   (Total)
    R1        2.06956   0.00000  -0.00409   0.00231  -0.00178   2.06778
    R2        2.07308  -0.00157  -0.00278  -0.00419  -0.00697   2.06611
    R3        2.06956   0.00000  -0.00409   0.00231  -0.00178   2.06778
    R4        2.83153   0.00331   0.00806   0.00704   0.01510   2.84663
    R5        2.24716   0.00205   0.00305   0.00042   0.00347   2.25064
    R6        4.20715  -0.00290   0.00787  -0.03638  -0.02851   4.17864
    A1        1.91020   0.00205   0.00765   0.01179   0.01927   1.92946
    A2        1.86577   0.00120   0.00384   0.00642   0.00998   1.87575
    A3        1.92435  -0.00128  -0.00705  -0.00605  -0.01333   1.91102
    A4        1.91019   0.00205   0.00765   0.01179   0.01927   1.92946
    A5        1.92791  -0.00256  -0.00405  -0.01683  -0.02106   1.90685
    A6        1.92435  -0.00128  -0.00705  -0.00605  -0.01333   1.91102
    A7        2.21533  -0.00082  -0.00707  -0.00005  -0.00712   2.20821
    A8        1.96456   0.00183   0.01001   0.00332   0.01333   1.97789
    A9        2.10329  -0.00101  -0.00294  -0.00326  -0.00621   2.09708
    D1        2.11352   0.00004   0.00218  -0.00025   0.00188   2.11540
    D2       -1.02807   0.00004   0.00218  -0.00024   0.00189  -1.02618
    D3        0.00001   0.00000   0.00000  -0.00001  -0.00001   0.00000
    D4       -3.14159   0.00000   0.00000   0.00001   0.00001  -3.14158
    D5       -2.11351  -0.00004  -0.00218   0.00024  -0.00190  -2.11541
    D6        1.02808  -0.00004  -0.00218   0.00025  -0.00188   1.02620
         Item               Value     Threshold  Converged?
 Maximum Force            0.003306     0.000450     NO 
 RMS     Force            0.001554     0.000300     NO 
 Maximum Displacement     0.033282     0.001800     NO 
 RMS     Displacement     0.011718     0.001200     NO 
 Predicted change in Energy=-1.799709D-04
 GradGradGradGradGradGradGradGradGradGradGradGradGradGradGradGradGradGrad

                          Input orientation:                          
 ---------------------------------------------------------------------
 Center     Atomic      Atomic             Coordinates (Angstroms)
 Number     Number       Type             X           Y           Z
 ---------------------------------------------------------------------
      1          6           0        2.080250    1.119670    0.000001
      2          1           0        1.780242    1.693180   -0.882270
      3          1           0        3.160754    0.952636   -0.000007
      4          1           0        1.780253    1.693178    0.882276
      5          6           0        1.372073   -0.209854    0.000005
      6          8           0        1.883617   -1.285386   -0.000001
      7         53           0       -0.831678   -0.028000   -0.000003
 ---------------------------------------------------------------------
                    Distance matrix (angstroms):
                    1          2          3          4          5
     1  C    0.000000
     2  H    1.094221   0.000000
     3  H    1.093339   1.797946   0.000000
     4  H    1.094221   1.764546   1.797946   0.000000
     5  C    1.506370   2.136949   2.133252   2.136948   0.000000
     6  O    2.413081   3.108206   2.576786   3.108206   1.190985
     7  I    3.129931   3.250074   4.111102   3.250085   2.211242
                    6          7
     6  O    0.000000
     7  I    2.992298   0.000000
 Stoichiometry    C2H3IO
 Framework group  C1[X(C2H3IO)]
 Deg. of freedom    15
 Full point group                 C1      NOp   1
 Largest Abelian subgroup         C1      NOp   1
 Largest concise Abelian subgroup C1      NOp   1
                         Standard orientation:                         
 ---------------------------------------------------------------------
 Center     Atomic      Atomic             Coordinates (Angstroms)
 Number     Number       Type             X           Y           Z
 ---------------------------------------------------------------------
      1          6           0       -2.138858   -1.073181    0.000002
      2          1           0       -1.858606   -1.656600   -0.882268
      3          1           0       -3.213030   -0.869354   -0.000005
      4          1           0       -1.858618   -1.656597    0.882278
      5          6           0       -1.385702    0.231389    0.000006
      6          8           0       -1.860227    1.323760    0.000000
      7         53           0        0.810555   -0.025600   -0.000001
 ---------------------------------------------------------------------
 Rotational constants (GHZ):     10.1414317      2.1710182      1.8082869
 Basis read from rwf:  (5D, 7F)
 Pseudo-potential data read from rwf file.
 There are    96 symmetry adapted basis functions of A   symmetry.
 Integral buffers will be    262144 words long.
 Raffenetti 2 integral format.
 Two-electron integral symmetry is turned on.
    96 basis functions,   201 primitive gaussians,   102 cartesian basis functions
    38 alpha electrons       38 beta electrons
       nuclear repulsion energy       291.8521995405 Hartrees.
 NAtoms=    7 NActive=    7 NUniq=    7 SFac= 7.50D-01 NAtFMM=   80 NAOKFM=F Big=F
 One-electron integrals computed using PRISM.
   1 Symmetry operations used in ECPInt.
 ECPInt:  NShTT=     630 NPrTT=    3495 LenC2=     619 LenP2D=    2704.
 LDataN:  DoStor=T MaxTD1= 4 Len=   56
 NBasis=    96 RedAO= T  NBF=    96
 NBsUse=    96 1.00D-06 NBFU=    96
 Defaulting to unpruned grid for atomic number  53.
 Initial guess read from the read-write file.
 B after Tr=     0.000000    0.000000    0.000000
         Rot=    1.000000    0.000000    0.000000    0.000000 Ang=   0.00 deg.
 Initial guess orbital symmetries:
       Occupied  (A) (A) (A) (A) (A) (A) (A) (A) (A) (A) (A) (A)
                 (A) (A) (A) (A) (A) (A) (A) (A) (A) (A) (A) (A)
                 (A) (A) (A) (A) (A) (A) (A) (A) (A) (A) (A) (A)
                 (A) (A)
       Virtual   (A) (A) (A) (A) (A) (A) (A) (A) (A) (A) (A) (A)
                 (A) (A) (A) (A) (A) (A) (A) (A) (A) (A) (A) (A)
                 (A) (A) (A) (A) (A) (A) (A) (A) (A) (A) (A) (A)
                 (A) (A) (A) (A) (A) (A) (A) (A) (A) (A) (A) (A)
                 (A) (A) (A) (A) (A) (A) (A) (A) (A) (A)
 Harris functional with IExCor=  402 diagonalized for initial guess.
 ExpMin= 4.38D-02 ExpMax= 1.44D+04 ExpMxC= 1.44D+04 IAcc=2 IRadAn=         0 AccDes= 0.00D+00
 HarFok:  IExCor=  402 AccDes= 0.00D+00 IRadAn=         0 IDoV= 1
 ScaDFX=  1.000000  1.000000  1.000000  1.000000
 Defaulting to unpruned grid for atomic number  53.
 FoFCou: FMM=F IPFlag=           0 FMFlag=      100000 FMFlg1=           0
         NFxFlg=           0 DoJE=T BraDBF=F KetDBF=T FulRan=T
         Omega=  0.000000  0.000000  1.000000  0.000000  0.000000 ICntrl=     500 IOpCl=  0
         NMat0=    1 NMatS0=    1 NMatT0=    0 NMatD0=    1 NMtDS0=    0 NMtDT0=    0
         I1Cent=           4 NGrid=           0.
 Petite list used in FoFCou.
 Requested convergence on RMS density matrix=1.00D-08 within 128 cycles.
 Requested convergence on MAX density matrix=1.00D-06.
 Requested convergence on             energy=1.00D-06.
 No special actions if energy rises.
 Keep R1 ints in memory in canonical form, NReq=14836775.
 Defaulting to unpruned grid for atomic number  53.
 SCF Done:  E(RB3LYP) =  -7043.39191291     A.U. after   10 cycles
             Convg  =    0.4981D-08             -V/T =  1.9987
   1 Symmetry operations used in ECPInt.
 ECPInt:  NShTT=     630 NPrTT=    3495 LenC2=     619 LenP2D=    2704.
 LDataN:  DoStor=T MaxTD1= 5 Len=  102
 Calling FoFJK, ICntrl=      2127 FMM=F ISym2X=0 I1Cent= 0 IOpClX= 0 NMat=1 NMatS=1 NMatT=0.
 Defaulting to unpruned grid for atomic number  53.
 ***** Axes restored to original set *****
 -------------------------------------------------------------------
 Center     Atomic                   Forces (Hartrees/Bohr)
 Number     Number              X              Y              Z
 -------------------------------------------------------------------
      1        6          -0.000016132   -0.000358544    0.000000486
      2        1           0.000117417    0.000374588   -0.000331783
      3        1           0.000358784    0.000110928    0.000000053
      4        1           0.000117525    0.000374803    0.000331797
      5        6          -0.002034140   -0.000157725   -0.000001390
      6        8           0.000789833   -0.000307926    0.000000553
      7       53           0.000666712   -0.000036124    0.000000283
 -------------------------------------------------------------------
 Cartesian Forces:  Max     0.002034140 RMS     0.000540083

 GradGradGradGradGradGradGradGradGradGradGradGradGradGradGradGradGradGrad
 Berny optimization.
 Using GEDIIS/GDIIS optimizer.
 Internal  Forces:  Max     0.000824011 RMS     0.000392486
 Search for a local minimum.
 Step number   3 out of a maximum of   31
 All quantities printed in internal units (Hartrees-Bohrs-Radians)
 Mixed Optimization -- En-DIIS/RFO-DIIS
 Update second derivatives using D2CorX and points    1    2    3
 DE= -1.90D-04 DEPred=-1.80D-04 R= 1.05D+00
 SS=  1.41D+00  RLast= 5.50D-02 DXNew= 5.7231D-01 1.6512D-01
 Trust test= 1.05D+00 RLast= 5.50D-02 DXMaxT set to 3.40D-01
 Use linear search instead of GDIIS.
     Eigenvalues ---    0.01048   0.01048   0.07642   0.07776   0.10134
     Eigenvalues ---    0.14580   0.16000   0.16245   0.23833   0.25525
     Eigenvalues ---    0.32222   0.33118   0.33669   0.34229   1.13173
     Eigenvalues --- 1000.000001000.000001000.000001000.000001000.00000
     Eigenvalues --- 1000.00000
 RFO step:  Lambda=-1.41840512D-05 EMin= 1.04805561D-02
 Quartic linear search produced a step of  0.03820.
 Iteration  1 RMS(Cart)=  0.00240860 RMS(Int)=  0.00000462
 Iteration  2 RMS(Cart)=  0.00000385 RMS(Int)=  0.00000301
 Iteration  3 RMS(Cart)=  0.00000000 RMS(Int)=  0.00000301
 Variable       Old X    -DE/DX   Delta X   Delta X   Delta X     New X
                                 (Linear)    (Quad)   (Total)
    R1        2.06778   0.00043  -0.00007   0.00115   0.00108   2.06886
    R2        2.06611   0.00034  -0.00027   0.00100   0.00073   2.06684
    R3        2.06778   0.00043  -0.00007   0.00115   0.00108   2.06886
    R4        2.84663   0.00071   0.00058   0.00233   0.00290   2.84953
    R5        2.25064   0.00062   0.00013   0.00066   0.00079   2.25143
    R6        4.17864  -0.00066  -0.00109  -0.00550  -0.00659   4.17205
    A1        1.92946  -0.00026   0.00074  -0.00185  -0.00112   1.92834
    A2        1.87575  -0.00018   0.00038  -0.00036   0.00001   1.87576
    A3        1.91102   0.00032  -0.00051   0.00201   0.00149   1.91252
    A4        1.92946  -0.00026   0.00074  -0.00185  -0.00112   1.92834
    A5        1.90685   0.00007  -0.00080   0.00012  -0.00069   1.90616
    A6        1.91102   0.00032  -0.00051   0.00201   0.00150   1.91252
    A7        2.20821  -0.00082  -0.00027  -0.00366  -0.00393   2.20428
    A8        1.97789   0.00035   0.00051   0.00180   0.00231   1.98020
    A9        2.09708   0.00047  -0.00024   0.00186   0.00162   2.09870
    D1        2.11540  -0.00008   0.00007  -0.00092  -0.00085   2.11455
    D2       -1.02618  -0.00008   0.00007  -0.00099  -0.00092  -1.02710
    D3        0.00000   0.00000   0.00000   0.00003   0.00003   0.00003
    D4       -3.14158   0.00000   0.00000  -0.00004  -0.00004   3.14157
    D5       -2.11541   0.00008  -0.00007   0.00099   0.00092  -2.11449
    D6        1.02620   0.00008  -0.00007   0.00092   0.00085   1.02705
         Item               Value     Threshold  Converged?
 Maximum Force            0.000824     0.000450     NO 
 RMS     Force            0.000392     0.000300     NO 
 Maximum Displacement     0.005492     0.001800     NO 
 RMS     Displacement     0.002408     0.001200     NO 
 Predicted change in Energy=-7.346762D-06
 GradGradGradGradGradGradGradGradGradGradGradGradGradGradGradGradGradGrad

                          Input orientation:                          
 ---------------------------------------------------------------------
 Center     Atomic      Atomic             Coordinates (Angstroms)
 Number     Number       Type             X           Y           Z
 ---------------------------------------------------------------------
      1          6           0        2.079717    1.119977   -0.000003
      2          1           0        1.781940    1.695024   -0.882739
      3          1           0        3.160279    0.950798    0.000004
      4          1           0        1.781927    1.695011    0.882739
      5          6           0        1.369167   -0.210023   -0.000019
      6          8           0        1.883783   -1.284553    0.000005
      7         53           0       -0.831303   -0.030809    0.000015
 ---------------------------------------------------------------------
                    Distance matrix (angstroms):
                    1          2          3          4          5
     1  C    0.000000
     2  H    1.094794   0.000000
     3  H    1.093726   1.798034   0.000000
     4  H    1.094794   1.765478   1.798034   0.000000
     5  C    1.507906   2.139808   2.134382   2.139809   0.000000
     6  O    2.412500   3.109259   2.574147   3.109243   1.191405
     7  I    3.130231   3.253736   4.110508   3.253710   2.207756
                    6          7
     6  O    0.000000
     7  I    2.990580   0.000000
 Stoichiometry    C2H3IO
 Framework group  C1[X(C2H3IO)]
 Deg. of freedom    15
 Full point group                 C1      NOp   1
 Largest Abelian subgroup         C1      NOp   1
 Largest concise Abelian subgroup C1      NOp   1
                         Standard orientation:                         
 ---------------------------------------------------------------------
 Center     Atomic      Atomic             Coordinates (Angstroms)
 Number     Number       Type             X           Y           Z
 ---------------------------------------------------------------------
      1          6           0        2.140028   -1.072007    0.000012
      2          1           0        1.862971   -1.657318    0.882749
      3          1           0        3.213862   -0.864358    0.000005
      4          1           0        1.862958   -1.657305   -0.882730
      5          6           0        1.382449    0.231778    0.000028
      6          8           0        1.858376    1.323996    0.000004
      7         53           0       -0.810220   -0.025880   -0.000006
 ---------------------------------------------------------------------
 Rotational constants (GHZ):     10.1453396      2.1727639      1.8096436
 Basis read from rwf:  (5D, 7F)
 Pseudo-potential data read from rwf file.
 There are    96 symmetry adapted basis functions of A   symmetry.
 Integral buffers will be    262144 words long.
 Raffenetti 2 integral format.
 Two-electron integral symmetry is turned on.
    96 basis functions,   201 primitive gaussians,   102 cartesian basis functions
    38 alpha electrons       38 beta electrons
       nuclear repulsion energy       291.9658560407 Hartrees.
 NAtoms=    7 NActive=    7 NUniq=    7 SFac= 7.50D-01 NAtFMM=   80 NAOKFM=F Big=F
 One-electron integrals computed using PRISM.
   1 Symmetry operations used in ECPInt.
 ECPInt:  NShTT=     630 NPrTT=    3495 LenC2=     619 LenP2D=    2704.
 LDataN:  DoStor=T MaxTD1= 4 Len=   56
 NBasis=    96 RedAO= T  NBF=    96
 NBsUse=    96 1.00D-06 NBFU=    96
 Defaulting to unpruned grid for atomic number  53.
 Initial guess read from the read-write file.
 B after Tr=     0.000000    0.000000    0.000000
         Rot=    1.000000    0.000000    0.000000    0.000000 Ang=   0.00 deg.
 Initial guess orbital symmetries:
       Occupied  (A) (A) (A) (A) (A) (A) (A) (A) (A) (A) (A) (A)
                 (A) (A) (A) (A) (A) (A) (A) (A) (A) (A) (A) (A)
                 (A) (A) (A) (A) (A) (A) (A) (A) (A) (A) (A) (A)
                 (A) (A)
       Virtual   (A) (A) (A) (A) (A) (A) (A) (A) (A) (A) (A) (A)
                 (A) (A) (A) (A) (A) (A) (A) (A) (A) (A) (A) (A)
                 (A) (A) (A) (A) (A) (A) (A) (A) (A) (A) (A) (A)
                 (A) (A) (A) (A) (A) (A) (A) (A) (A) (A) (A) (A)
                 (A) (A) (A) (A) (A) (A) (A) (A) (A) (A)
 Requested convergence on RMS density matrix=1.00D-08 within 128 cycles.
 Requested convergence on MAX density matrix=1.00D-06.
 Requested convergence on             energy=1.00D-06.
 No special actions if energy rises.
 Keep R1 ints in memory in canonical form, NReq=14836775.
 Defaulting to unpruned grid for atomic number  53.
 SCF Done:  E(RB3LYP) =  -7043.39192264     A.U. after   14 cycles
             Convg  =    0.2826D-08             -V/T =  1.9987
   1 Symmetry operations used in ECPInt.
 ECPInt:  NShTT=     630 NPrTT=    3495 LenC2=     619 LenP2D=    2704.
 LDataN:  DoStor=T MaxTD1= 5 Len=  102
 Calling FoFJK, ICntrl=      2127 FMM=F ISym2X=0 I1Cent= 0 IOpClX= 0 NMat=1 NMatS=1 NMatT=0.
 Defaulting to unpruned grid for atomic number  53.
 ***** Axes restored to original set *****
 -------------------------------------------------------------------
 Center     Atomic                   Forces (Hartrees/Bohr)
 Number     Number              X              Y              Z
 -------------------------------------------------------------------
      1        6          -0.000175590   -0.000337652   -0.000001978
      2        1           0.000090175    0.000101359   -0.000047358
      3        1           0.000079525    0.000082529   -0.000000094
      4        1           0.000089880    0.000100615    0.000047302
      5        6          -0.000763477    0.000233744    0.000005417
      6        8           0.000399644   -0.000188352   -0.000002213
      7       53           0.000279842    0.000007758   -0.000001076
 -------------------------------------------------------------------
 Cartesian Forces:  Max     0.000763477 RMS     0.000229927

 GradGradGradGradGradGradGradGradGradGradGradGradGradGradGradGradGradGrad
 Berny optimization.
 Using GEDIIS/GDIIS optimizer.
 Internal  Forces:  Max     0.000356255 RMS     0.000153443
 Search for a local minimum.
 Step number   4 out of a maximum of   31
 All quantities printed in internal units (Hartrees-Bohrs-Radians)
 Mixed Optimization -- En-DIIS/RFO-DIIS
 Swaping is turned off.
 Update second derivatives using D2CorX and points    1    2    3    4
 DE= -9.73D-06 DEPred=-7.35D-06 R= 1.32D+00
 SS=  1.41D+00  RLast= 9.45D-03 DXNew= 5.7231D-01 2.8356D-02
 Trust test= 1.32D+00 RLast= 9.45D-03 DXMaxT set to 3.40D-01
     Eigenvalues ---    0.01048   0.01048   0.07340   0.07643   0.08484
     Eigenvalues ---    0.13640   0.15829   0.16000   0.22230   0.24580
     Eigenvalues ---    0.32568   0.33118   0.33879   0.35686   1.11425
     Eigenvalues --- 1000.000001000.000001000.000001000.000001000.00000
     Eigenvalues --- 1000.00000
 En-DIIS/RFO-DIIS IScMMF=        0 using points:     4    3
 RFO step:  Lambda=-1.24078931D-06.
 DIIS coeffs:      1.52907     -0.52907
 Iteration  1 RMS(Cart)=  0.00132459 RMS(Int)=  0.00000188
 Iteration  2 RMS(Cart)=  0.00000175 RMS(Int)=  0.00000085
 Iteration  3 RMS(Cart)=  0.00000000 RMS(Int)=  0.00000085
 Variable       Old X    -DE/DX   Delta X   Delta X   Delta X     New X
                                  (DIIS)     (GDIIS)  (Total)
    R1        2.06886   0.00007   0.00057  -0.00032   0.00025   2.06911
    R2        2.06684   0.00007   0.00039  -0.00016   0.00022   2.06706
    R3        2.06886   0.00007   0.00057  -0.00032   0.00025   2.06911
    R4        2.84953  -0.00001   0.00154  -0.00108   0.00046   2.84999
    R5        2.25143   0.00034   0.00042   0.00018   0.00060   2.25202
    R6        4.17205  -0.00028  -0.00349  -0.00081  -0.00429   4.16776
    A1        1.92834  -0.00013  -0.00059  -0.00054  -0.00113   1.92721
    A2        1.87576  -0.00008   0.00001  -0.00011  -0.00011   1.87565
    A3        1.91252   0.00014   0.00079   0.00045   0.00124   1.91375
    A4        1.92834  -0.00013  -0.00059  -0.00054  -0.00113   1.92721
    A5        1.90616   0.00005  -0.00036   0.00031  -0.00006   1.90610
    A6        1.91252   0.00014   0.00079   0.00043   0.00122   1.91374
    A7        2.20428  -0.00036  -0.00208  -0.00053  -0.00261   2.20167
    A8        1.98020   0.00010   0.00122  -0.00014   0.00108   1.98128
    A9        2.09870   0.00026   0.00086   0.00067   0.00153   2.10023
    D1        2.11455  -0.00004  -0.00045  -0.00040  -0.00085   2.11370
    D2       -1.02710  -0.00003  -0.00049   0.00003  -0.00046  -1.02756
    D3        0.00003   0.00000   0.00002  -0.00021  -0.00019  -0.00016
    D4        3.14157   0.00000  -0.00002   0.00022   0.00020  -3.14142
    D5       -2.11449   0.00003   0.00048  -0.00001   0.00047  -2.11402
    D6        1.02705   0.00004   0.00045   0.00041   0.00086   1.02791
         Item               Value     Threshold  Converged?
 Maximum Force            0.000356     0.000450     YES
 RMS     Force            0.000153     0.000300     YES
 Maximum Displacement     0.003148     0.001800     NO 
 RMS     Displacement     0.001324     0.001200     NO 
 Predicted change in Energy=-1.795697D-06
 GradGradGradGradGradGradGradGradGradGradGradGradGradGradGradGradGradGrad

                          Input orientation:                          
 ---------------------------------------------------------------------
 Center     Atomic      Atomic             Coordinates (Angstroms)
 Number     Number       Type             X           Y           Z
 ---------------------------------------------------------------------
      1          6           0        2.079032    1.119754    0.000017
      2          1           0        1.782846    1.695766   -0.882793
      3          1           0        3.159589    0.949789   -0.000054
      4          1           0        1.782970    1.695819    0.882832
      5          6           0        1.367501   -0.209995    0.000118
      6          8           0        1.884355   -1.283800   -0.000035
      7         53           0       -0.830782   -0.031908   -0.000083
 ---------------------------------------------------------------------
                    Distance matrix (angstroms):
                    1          2          3          4          5
     1  C    0.000000
     2  H    1.094928   0.000000
     3  H    1.093844   1.797535   0.000000
     4  H    1.094927   1.765624   1.797535   0.000000
     5  C    1.508147   2.141020   2.134638   2.141010   0.000000
     6  O    2.411426   3.109241   2.571992   3.109319   1.191720
     7  I    3.129432   3.255009   4.109355   3.255192   2.205485
                    6          7
     6  O    0.000000
     7  I    2.989851   0.000000
 Stoichiometry    C2H3IO
 Framework group  C1[X(C2H3IO)]
 Deg. of freedom    15
 Full point group                 C1      NOp   1
 Largest Abelian subgroup         C1      NOp   1
 Largest concise Abelian subgroup C1      NOp   1
                         Standard orientation:                         
 ---------------------------------------------------------------------
 Center     Atomic      Atomic             Coordinates (Angstroms)
 Number     Number       Type             X           Y           Z
 ---------------------------------------------------------------------
      1          6           0       -2.139712   -1.071303    0.000068
      2          1           0       -1.864610   -1.657677   -0.882742
      3          1           0       -3.213395   -0.862263   -0.000003
      4          1           0       -1.864735   -1.657726    0.882883
      5          6           0       -1.380426    0.231767    0.000169
      6          8           0       -1.857998    1.323610    0.000016
      7         53           0        0.809954   -0.025924   -0.000032
 ---------------------------------------------------------------------
 Rotational constants (GHZ):     10.1525176      2.1741605      1.8108443
 Basis read from rwf:  (5D, 7F)
 Pseudo-potential data read from rwf file.
 There are    96 symmetry adapted basis functions of A   symmetry.
 Integral buffers will be    262144 words long.
 Raffenetti 2 integral format.
 Two-electron integral symmetry is turned on.
    96 basis functions,   201 primitive gaussians,   102 cartesian basis functions
    38 alpha electrons       38 beta electrons
       nuclear repulsion energy       292.0666153890 Hartrees.
 NAtoms=    7 NActive=    7 NUniq=    7 SFac= 7.50D-01 NAtFMM=   80 NAOKFM=F Big=F
 One-electron integrals computed using PRISM.
   1 Symmetry operations used in ECPInt.
 ECPInt:  NShTT=     630 NPrTT=    3495 LenC2=     619 LenP2D=    2704.
 LDataN:  DoStor=T MaxTD1= 4 Len=   56
 NBasis=    96 RedAO= T  NBF=    96
 NBsUse=    96 1.00D-06 NBFU=    96
 Defaulting to unpruned grid for atomic number  53.
 Initial guess read from the read-write file.
 B after Tr=     0.000000    0.000000    0.000000
         Rot=    1.000000    0.000000    0.000000    0.000000 Ang=   0.00 deg.
 Initial guess orbital symmetries:
       Occupied  (A) (A) (A) (A) (A) (A) (A) (A) (A) (A) (A) (A)
                 (A) (A) (A) (A) (A) (A) (A) (A) (A) (A) (A) (A)
                 (A) (A) (A) (A) (A) (A) (A) (A) (A) (A) (A) (A)
                 (A) (A)
       Virtual   (A) (A) (A) (A) (A) (A) (A) (A) (A) (A) (A) (A)
                 (A) (A) (A) (A) (A) (A) (A) (A) (A) (A) (A) (A)
                 (A) (A) (A) (A) (A) (A) (A) (A) (A) (A) (A) (A)
                 (A) (A) (A) (A) (A) (A) (A) (A) (A) (A) (A) (A)
                 (A) (A) (A) (A) (A) (A) (A) (A) (A) (A)
 Requested convergence on RMS density matrix=1.00D-08 within 128 cycles.
 Requested convergence on MAX density matrix=1.00D-06.
 Requested convergence on             energy=1.00D-06.
 No special actions if energy rises.
 Keep R1 ints in memory in canonical form, NReq=14836775.
 Defaulting to unpruned grid for atomic number  53.
 SCF Done:  E(RB3LYP) =  -7043.39192444     A.U. after   14 cycles
             Convg  =    0.2820D-08             -V/T =  1.9987
   1 Symmetry operations used in ECPInt.
 ECPInt:  NShTT=     630 NPrTT=    3495 LenC2=     619 LenP2D=    2704.
 LDataN:  DoStor=T MaxTD1= 5 Len=  102
 Calling FoFJK, ICntrl=      2127 FMM=F ISym2X=0 I1Cent= 0 IOpClX= 0 NMat=1 NMatS=1 NMatT=0.
 Defaulting to unpruned grid for atomic number  53.
 ***** Axes restored to original set *****
 -------------------------------------------------------------------
 Center     Atomic                   Forces (Hartrees/Bohr)
 Number     Number              X              Y              Z
 -------------------------------------------------------------------
      1        6          -0.000056451   -0.000105670    0.000012224
      2        1           0.000003692    0.000005500    0.000008641
      3        1          -0.000004324    0.000015535    0.000000661
      4        1           0.000005562    0.000010151   -0.000008330
      5        6          -0.000017990    0.000192762   -0.000033520
      6        8           0.000063349   -0.000108487    0.000013654
      7       53           0.000006162   -0.000009790    0.000006669
 -------------------------------------------------------------------
 Cartesian Forces:  Max     0.000192762 RMS     0.000057668

 GradGradGradGradGradGradGradGradGradGradGradGradGradGradGradGradGradGrad
 Berny optimization.
 Using GEDIIS/GDIIS optimizer.
 Internal  Forces:  Max     0.000123397 RMS     0.000034700
 Search for a local minimum.
 Step number   5 out of a maximum of   31
 All quantities printed in internal units (Hartrees-Bohrs-Radians)
 Mixed Optimization -- En-DIIS/RFO-DIIS
 Swaping is turned off.
 Update second derivatives using D2CorX and points    1    2    3    4    5
 DE= -1.80D-06 DEPred=-1.80D-06 R= 1.00D+00
 SS=  1.41D+00  RLast= 6.09D-03 DXNew= 5.7231D-01 1.8258D-02
 Trust test= 1.00D+00 RLast= 6.09D-03 DXMaxT set to 3.40D-01
     Eigenvalues ---    0.01048   0.01051   0.07332   0.07640   0.08462
     Eigenvalues ---    0.12898   0.15783   0.16003   0.22526   0.24444
     Eigenvalues ---    0.32376   0.33118   0.33975   0.36342   1.10490
     Eigenvalues --- 1000.000001000.000001000.000001000.000001000.00000
     Eigenvalues --- 1000.00000
 En-DIIS/RFO-DIIS IScMMF=        0 using points:     5    4    3
 RFO step:  Lambda=-3.66892564D-08.
 DIIS coeffs:      1.11683     -0.17123      0.05440
 Iteration  1 RMS(Cart)=  0.00041477 RMS(Int)=  0.00000027
 Iteration  2 RMS(Cart)=  0.00000024 RMS(Int)=  0.00000018
 Variable       Old X    -DE/DX   Delta X   Delta X   Delta X     New X
                                  (DIIS)     (GDIIS)  (Total)
    R1        2.06911  -0.00001  -0.00003   0.00003   0.00000   2.06911
    R2        2.06706   0.00000  -0.00001   0.00002   0.00000   2.06707
    R3        2.06911   0.00000  -0.00003   0.00004   0.00001   2.06912
    R4        2.84999  -0.00009  -0.00010  -0.00018  -0.00028   2.84970
    R5        2.25202   0.00012   0.00003   0.00010   0.00013   2.25215
    R6        4.16776   0.00000  -0.00014  -0.00001  -0.00016   4.16761
    A1        1.92721  -0.00001  -0.00007  -0.00006  -0.00013   1.92708
    A2        1.87565  -0.00001  -0.00001  -0.00010  -0.00011   1.87555
    A3        1.91375   0.00001   0.00006   0.00006   0.00012   1.91388
    A4        1.92721  -0.00001  -0.00007  -0.00007  -0.00014   1.92707
    A5        1.90610   0.00001   0.00003   0.00004   0.00007   1.90617
    A6        1.91374   0.00002   0.00006   0.00012   0.00018   1.91393
    A7        2.20167  -0.00001  -0.00009   0.00000  -0.00009   2.20158
    A8        1.98128   0.00001   0.00000   0.00004   0.00004   1.98132
    A9        2.10023   0.00000   0.00009  -0.00004   0.00005   2.10028
    D1        2.11370   0.00001  -0.00005   0.00089   0.00084   2.11454
    D2       -1.02756  -0.00001   0.00000  -0.00095  -0.00095  -1.02851
    D3       -0.00016   0.00001  -0.00002   0.00090   0.00088   0.00072
    D4       -3.14142  -0.00001   0.00002  -0.00094  -0.00091   3.14086
    D5       -2.11402   0.00001   0.00001   0.00088   0.00089  -2.11313
    D6        1.02791  -0.00001   0.00005  -0.00096  -0.00090   1.02701
         Item               Value     Threshold  Converged?
 Maximum Force            0.000123     0.000450     YES
 RMS     Force            0.000035     0.000300     YES
 Maximum Displacement     0.001187     0.001800     YES
 RMS     Displacement     0.000415     0.001200     YES
 Predicted change in Energy=-4.596346D-08
 Optimization completed.
    -- Stationary point found.
                           ----------------------------
                           !   Optimized Parameters   !
                           ! (Angstroms and Degrees)  !
 --------------------------                            --------------------------
 ! Name  Definition              Value          Derivative Info.                !
 --------------------------------------------------------------------------------
 ! R1    R(1,2)                  1.0949         -DE/DX =    0.0                 !
 ! R2    R(1,3)                  1.0938         -DE/DX =    0.0                 !
 ! R3    R(1,4)                  1.0949         -DE/DX =    0.0                 !
 ! R4    R(1,5)                  1.5081         -DE/DX =   -0.0001              !
 ! R5    R(5,6)                  1.1917         -DE/DX =    0.0001              !
 ! R6    R(5,7)                  2.2055         -DE/DX =    0.0                 !
 ! A1    A(2,1,3)              110.4208         -DE/DX =    0.0                 !
 ! A2    A(2,1,4)              107.467          -DE/DX =    0.0                 !
 ! A3    A(2,1,5)              109.6501         -DE/DX =    0.0                 !
 ! A4    A(3,1,4)              110.4208         -DE/DX =    0.0                 !
 ! A5    A(3,1,5)              109.2116         -DE/DX =    0.0                 !
 ! A6    A(4,1,5)              109.6494         -DE/DX =    0.0                 !
 ! A7    A(1,5,6)              126.1465         -DE/DX =    0.0                 !
 ! A8    A(1,5,7)              113.5191         -DE/DX =    0.0                 !
 ! A9    A(6,5,7)              120.3344         -DE/DX =    0.0                 !
 ! D1    D(2,1,5,6)            121.1061         -DE/DX =    0.0                 !
 ! D2    D(2,1,5,7)            -58.8747         -DE/DX =    0.0                 !
 ! D3    D(3,1,5,6)             -0.0093         -DE/DX =    0.0                 !
 ! D4    D(3,1,5,7)            180.0099         -DE/DX =    0.0                 !
 ! D5    D(4,1,5,6)           -121.1243         -DE/DX =    0.0                 !
 ! D6    D(4,1,5,7)             58.895          -DE/DX =    0.0                 !
 --------------------------------------------------------------------------------
 GradGradGradGradGradGradGradGradGradGradGradGradGradGradGradGradGradGrad

                          Input orientation:                          
 ---------------------------------------------------------------------
 Center     Atomic      Atomic             Coordinates (Angstroms)
 Number     Number       Type             X           Y           Z
 ---------------------------------------------------------------------
      1          6           0        2.079032    1.119754    0.000017
      2          1           0        1.782846    1.695766   -0.882793
      3          1           0        3.159589    0.949789   -0.000054
      4          1           0        1.782970    1.695819    0.882832
      5          6           0        1.367501   -0.209995    0.000118
      6          8           0        1.884355   -1.283800   -0.000035
      7         53           0       -0.830782   -0.031908   -0.000083
 ---------------------------------------------------------------------
                    Distance matrix (angstroms):
                    1          2          3          4          5
     1  C    0.000000
     2  H    1.094928   0.000000
     3  H    1.093844   1.797535   0.000000
     4  H    1.094927   1.765624   1.797535   0.000000
     5  C    1.508147   2.141020   2.134638   2.141010   0.000000
     6  O    2.411426   3.109241   2.571992   3.109319   1.191720
     7  I    3.129432   3.255009   4.109355   3.255192   2.205485
                    6          7
     6  O    0.000000
     7  I    2.989851   0.000000
 Stoichiometry    C2H3IO
 Framework group  C1[X(C2H3IO)]
 Deg. of freedom    15
 Full point group                 C1      NOp   1
 Largest Abelian subgroup         C1      NOp   1
 Largest concise Abelian subgroup C1      NOp   1
                         Standard orientation:                         
 ---------------------------------------------------------------------
 Center     Atomic      Atomic             Coordinates (Angstroms)
 Number     Number       Type             X           Y           Z
 ---------------------------------------------------------------------
      1          6           0       -2.139712   -1.071303    0.000068
      2          1           0       -1.864610   -1.657677   -0.882742
      3          1           0       -3.213395   -0.862263   -0.000003
      4          1           0       -1.864735   -1.657726    0.882883
      5          6           0       -1.380426    0.231767    0.000169
      6          8           0       -1.857998    1.323610    0.000016
      7         53           0        0.809954   -0.025924   -0.000032
 ---------------------------------------------------------------------
 Rotational constants (GHZ):     10.1525176      2.1741605      1.8108443

 **********************************************************************

            Population analysis using the SCF density.

 **********************************************************************

 Orbital symmetries:
       Occupied  (A) (A) (A) (A) (A) (A) (A) (A) (A) (A) (A) (A)
                 (A) (A) (A) (A) (A) (A) (A) (A) (A) (A) (A) (A)
                 (A) (A) (A) (A) (A) (A) (A) (A) (A) (A) (A) (A)
                 (A) (A)
       Virtual   (A) (A) (A) (A) (A) (A) (A) (A) (A) (A) (A) (A)
                 (A) (A) (A) (A) (A) (A) (A) (A) (A) (A) (A) (A)
                 (A) (A) (A) (A) (A) (A) (A) (A) (A) (A) (A) (A)
                 (A) (A) (A) (A) (A) (A) (A) (A) (A) (A) (A) (A)
                 (A) (A) (A) (A) (A) (A) (A) (A) (A) (A)
 The electronic state is 1-A.
 Alpha  occ. eigenvalues -- **********-175.67083-164.44746-164.44561-164.44557
 Alpha  occ. eigenvalues --  -35.78559 -30.95398 -30.94998 -30.94945 -22.90177
 Alpha  occ. eigenvalues --  -22.89980 -22.89964 -22.89620 -22.89613 -19.20012
 Alpha  occ. eigenvalues --  -10.33854 -10.22255  -6.38021  -4.68650  -4.67530
 Alpha  occ. eigenvalues --   -4.67399  -2.06280  -2.05925  -2.05831  -2.04846
 Alpha  occ. eigenvalues --   -2.04845  -1.10520  -0.78780  -0.67306  -0.55675
 Alpha  occ. eigenvalues --   -0.48497  -0.48076  -0.47932  -0.41390  -0.40835
 Alpha  occ. eigenvalues --   -0.28846  -0.27208  -0.26486
 Alpha virt. eigenvalues --   -0.05488  -0.04854   0.00245   0.03911   0.04619
 Alpha virt. eigenvalues --    0.05160   0.08153   0.08456   0.08944   0.11127
 Alpha virt. eigenvalues --    0.15545   0.16482   0.22703   0.23948   0.24557
 Alpha virt. eigenvalues --    0.26142   0.27460   0.28159   0.36695   0.39291
 Alpha virt. eigenvalues --    0.44544   0.50705   0.52269   0.54102   0.56524
 Alpha virt. eigenvalues --    0.56860   0.60869   0.63397   0.64497   0.66635
 Alpha virt. eigenvalues --    0.75007   0.78760   0.82045   0.89652   0.89854
 Alpha virt. eigenvalues --    0.98598   1.05924   1.08657   1.19760   1.23864
 Alpha virt. eigenvalues --    1.26250   1.33545   1.37689   1.51350   1.64419
 Alpha virt. eigenvalues --    1.68631   1.75840   1.77944   1.84791   2.03884
 Alpha virt. eigenvalues --    2.04467   2.16510   2.28583   2.36943   2.52276
 Alpha virt. eigenvalues --    2.56931   2.82523   3.08048
          Condensed to atoms (all electrons):
              1          2          3          4          5          6
     1  C    5.904635   0.382709   0.337552   0.382691  -0.054454  -0.091281
     2  H    0.382709   0.462656  -0.022495  -0.023575  -0.044913   0.000835
     3  H    0.337552  -0.022495   0.468197  -0.022495  -0.001675  -0.002768
     4  H    0.382691  -0.023575  -0.022495   0.462667  -0.044905   0.000839
     5  C   -0.054454  -0.044913  -0.001675  -0.044905   5.138285   0.420067
     6  O   -0.091281   0.000835  -0.002768   0.000839   0.420067   8.051672
     7  I   -0.137086  -0.001588   0.004619  -0.001586   0.372945  -0.119574
              7
     1  C   -0.137086
     2  H   -0.001588
     3  H    0.004619
     4  H   -0.001586
     5  C    0.372945
     6  O   -0.119574
     7  I   52.844163
 Mulliken atomic charges:
              1
     1  C   -0.724767
     2  H    0.246372
     3  H    0.239063
     4  H    0.246364
     5  C    0.214649
     6  O   -0.259789
     7  I    0.038107
 Sum of Mulliken atomic charges =   0.00000
 Mulliken charges with hydrogens summed into heavy atoms:
              1
     1  C    0.007032
     5  C    0.214649
     6  O   -0.259789
     7  I    0.038107
 Sum of Mulliken charges with hydrogens summed into heavy atoms =   0.00000
 Electronic spatial extent (au):  <R**2>=            630.0213
 Charge=              0.0000 electrons
 Dipole moment (field-independent basis, Debye):
    X=             -0.8543    Y=             -2.6210    Z=              0.0001  Tot=              2.7567
 Quadrupole moment (field-independent basis, Debye-Ang):
   XX=            -43.3018   YY=            -48.7746   ZZ=            -46.2368
   XY=              5.2188   XZ=             -0.0007   YZ=              0.0001
 Traceless Quadrupole moment (field-independent basis, Debye-Ang):
   XX=              2.8026   YY=             -2.6702   ZZ=             -0.1324
   XY=              5.2188   XZ=             -0.0007   YZ=              0.0001
 Octapole moment (field-independent basis, Debye-Ang**2):
  XXX=             32.1553  YYY=             -3.5555  ZZZ=             -0.0015  XYY=             12.5599
  XXY=            -10.7916  XXZ=             -0.0011  XZZ=              8.3708  YZZ=             -0.2106
  YYZ=             -0.0007  XYZ=              0.0001
 Hexadecapole moment (field-independent basis, Debye-Ang**3):
 XXXX=           -522.1901 YYYY=           -186.6177 ZZZZ=            -64.8696 XXXY=             14.2546
 XXXZ=              0.0075 YYYX=              2.2448 YYYZ=              0.0005 ZZZX=              0.0082
 ZZZY=              0.0006 XXYY=           -129.7029 XXZZ=           -101.6157 YYZZ=            -38.6663
 XXYZ=              0.0002 YYXZ=              0.0029 ZZXY=             -1.2381
 N-N= 2.920666153890D+02 E-N=-1.731760264328D+04  KE= 7.052664916417D+03
 1|1|UNPC-LAWALM-PC|FOpt|RB3LYP|Gen|C2H3I1O1|LAWALM|27-Feb-2015|0||# op
 t freq b3lyp/gen geom=connectivity gfinput pseudo=read||gen calculatio
 n-iac C H O=6-31+g(d)/I=midix||0,1|C,2.0790315352,1.1197542474,0.00001
 65605|H,1.7828463075,1.6957656119,-0.8827927984|H,3.1595894462,0.94978
 89028,-0.0000541246|H,1.7829695466,1.6958191057,0.8828315415|C,1.36750
 12989,-0.20999482,0.0001175116|O,1.8843552201,-1.2838004636,-0.0000348
 337|I,-0.8307823544,-0.0319075842,-0.0000827779||Version=IA32W-G09RevA
 .02|State=1-A|HF=-7043.3919244|RMSD=2.820e-009|RMSF=5.767e-005|Dipole=
 0.2984924,1.0426838,0.0000381|Quadrupole=1.7970895,-1.6986459,-0.09844
 36,4.0172846,0.0005116,-0.0000581|PG=C01 [X(C2H3I1O1)]||@


 A MUSTACHE HAIR ACROSS A CHIP IS LIKE A REDWOOD
 TREE FALLING THROUGH A HOUSING PROJECT.
 - AN IBM MANAGER IN EAST FISHKILL, NEW YORK
   AS QUOTED IN "FROM SANDS TO CIRCUITS", IBM INNOVATION JANUARY 1985.
 Job cpu time:  0 days  0 hours  2 minutes 23.0 seconds.
 File lengths (MBytes):  RWF=      9 Int=      0 D2E=      0 Chk=      2 Scr=      1
 Normal termination of Gaussian 09 at Fri Feb 27 11:44:49 2015.
 Link1:  Proceeding to internal job step number  2.
 ------------------------------------------------------------------
 #N Geom=AllCheck Guess=TCheck SCRF=Check GenChk RB3LYP/ChkBas Freq
 ------------------------------------------------------------------
 1/10=4,29=7,30=1,38=1,40=1/1,3;
 2/12=2,40=1/2;
 3/5=7,6=2,11=2,14=-4,16=1,17=8,24=10,25=1,30=1,67=1,70=2,71=2,74=-5,82=7,116=1/1,2,3;
 4/5=101/1;
 5/5=2,98=1/2;
 8/6=4,10=90,11=11/1;
 11/6=1,8=1,9=11,15=111,16=1/1,2,10;
 10/6=1/2;
 6/7=2,8=2,9=2,10=2,18=1,28=1/1;
 7/8=1,10=1,25=1/1,2,3,16;
 1/10=4,30=1/3;
 99//99;
[...]
     7  53     0.00   0.00   0.00    -0.06  -0.02   0.00    -0.10   0.06   0.00
                     4                      5                      6
                     A                      A                      A
 Frequencies --   482.0539               565.5898               948.9193
 Red. masses --     3.2521                 3.9347                 2.9757
 Frc consts  --     0.4452                 0.7416                 1.5787
 IR Inten    --     0.1735               101.3460                76.9517
  Atom  AN      X      Y      Z        X      Y      Z        X      Y      Z
     1   6     0.00   0.00   0.03     0.09   0.25   0.00     0.03   0.28   0.00
     2   1    -0.34  -0.40   0.20    -0.22   0.12  -0.01     0.47   0.39   0.06
     3   1     0.00   0.00   0.41     0.19   0.77   0.00    -0.07  -0.26   0.00
     4   1     0.34   0.40   0.20    -0.22   0.12   0.01     0.47   0.39  -0.06
     5   6     0.00   0.00  -0.41     0.30  -0.01   0.00    -0.21  -0.17   0.00
     6   8     0.00   0.00   0.15    -0.18  -0.21   0.00     0.07  -0.13   0.00
     7  53     0.00   0.00   0.01    -0.01   0.00   0.00     0.00   0.00   0.00
                     7                      8                      9
                     A                      A                      A
 Frequencies --  1041.6872              1108.7657              1405.3302
 Red. masses --     1.5244                 1.8840                 1.2325
 Frc consts  --     0.9746                 1.3646                 1.4341
 IR Inten    --     0.8057               145.7050                24.3658
  Atom  AN      X      Y      Z        X      Y      Z        X      Y      Z
     1   6     0.00   0.00   0.15     0.18  -0.02   0.00     0.07   0.12   0.00
     2   1     0.27   0.56  -0.15    -0.33  -0.08  -0.11    -0.31  -0.46   0.25
     3   1     0.00   0.00  -0.36     0.32   0.76   0.00    -0.06  -0.49   0.00
     4   1    -0.27  -0.56  -0.15    -0.33  -0.08   0.11    -0.31  -0.46  -0.25
     5   6     0.00   0.00  -0.15    -0.20  -0.07   0.00    -0.02  -0.01   0.00
     6   8     0.00   0.00   0.03     0.03   0.03   0.00     0.00   0.00   0.00
     7  53     0.00   0.00   0.00     0.00   0.00   0.00     0.00   0.00   0.00
                    10                     11                     12
                     A                      A                      A
 Frequencies --  1482.5855              1484.3730              1870.1396
 Red. masses --     1.0492                 1.0450                11.8708
 Frc consts  --     1.3588                 1.3566                24.4612
 IR Inten    --    12.4102                16.5415               462.1336
  Atom  AN      X      Y      Z        X      Y      Z        X      Y      Z
     1   6    -0.06   0.01   0.00     0.00   0.00  -0.06    -0.01  -0.05   0.00
     2   1     0.38  -0.35   0.36     0.48   0.08   0.06    -0.05  -0.19   0.10
     3   1     0.05   0.46   0.00     0.00   0.00   0.72     0.01   0.14   0.00
     4   1     0.38  -0.35  -0.36    -0.48  -0.08   0.06    -0.05  -0.19  -0.10
     5   6    -0.01  -0.01   0.00     0.00   0.00  -0.02    -0.24   0.73   0.00
     6   8     0.00   0.02   0.00     0.00   0.00   0.00     0.21  -0.49   0.00
     7  53     0.00   0.00   0.00     0.00   0.00   0.00     0.00   0.00   0.00
                    13                     14                     15
                     A                      A                      A
 Frequencies --  3064.3975              3139.8298              3158.4497
 Red. masses --     1.0327                 1.1010                 1.1064
 Frc consts  --     5.7135                 6.3949                 6.5027
 IR Inten    --     2.0157                 0.2354                 8.3422
  Atom  AN      X      Y      Z        X      Y      Z        X      Y      Z
     1   6    -0.02  -0.04   0.00     0.00   0.00   0.09    -0.08   0.05   0.00
     2   1    -0.15   0.30   0.47     0.18  -0.38  -0.56     0.09  -0.21  -0.33
     3   1     0.56  -0.12   0.00     0.00   0.00   0.01     0.80  -0.16   0.00
     4   1    -0.15   0.30  -0.47    -0.18   0.38  -0.56     0.09  -0.21   0.33
     5   6     0.00   0.00   0.00     0.00   0.00   0.00     0.00   0.00   0.00
     6   8     0.00   0.00   0.00     0.00   0.00   0.00     0.00   0.00   0.00
     7  53     0.00   0.00   0.00     0.00   0.00   0.00     0.00   0.00   0.00

 -------------------
 - Thermochemistry -
 -------------------
 Temperature   298.150 Kelvin.  Pressure   1.00000 Atm.
 Atom     1 has atomic number  6 and mass  12.00000
 Atom     2 has atomic number  1 and mass   1.00783
 Atom     3 has atomic number  1 and mass   1.00783
 Atom     4 has atomic number  1 and mass   1.00783
 Atom     5 has atomic number  6 and mass  12.00000
 Atom     6 has atomic number  8 and mass  15.99491
 Atom     7 has atomic number 53 and mass 126.90040
 Molecular mass:   169.91879 amu.
 Principal axes and moments of inertia in atomic units:
                           1         2         3
     Eigenvalues --   177.76292 830.08645 996.62972
           X            0.99855   0.05380   0.00004
           Y           -0.05380   0.99855   0.00001
           Z           -0.00004  -0.00001   1.00000
 This molecule is an asymmetric top.
 Rotational symmetry number  1.
 Rotational temperatures (Kelvin)      0.48724     0.10434     0.08691
 Rotational constants (GHZ):          10.15252     2.17416     1.81084
 Zero-point vibrational energy     122316.5 (Joules/Mol)
                                   29.23434 (Kcal/Mol)
 Warning -- explicit consideration of   5 degrees of freedom as
           vibrations may cause significant error
 Vibrational temperatures:    184.26   390.23   429.20   693.57   813.76
          (Kelvin)           1365.28  1498.75  1595.26  2021.95  2133.11
                             2135.68  2690.71  4408.98  4517.51  4544.30
 
 Zero-point correction=                           0.046588 (Hartree/Particle)
 Thermal correction to Energy=                    0.051519
 Thermal correction to Enthalpy=                  0.052463
 Thermal correction to Gibbs Free Energy=         0.016689
 Sum of electronic and zero-point Energies=          -7043.345337
 Sum of electronic and thermal Energies=             -7043.340405
 Sum of electronic and thermal Enthalpies=           -7043.339461
 Sum of electronic and thermal Free Energies=        -7043.375236
 
                     E (Thermal)             CV                S
                      KCal/Mol        Cal/Mol-Kelvin    Cal/Mol-Kelvin
 Total                   32.329             15.011             75.294
 Electronic               0.000              0.000              0.000
 Translational            0.889              2.981             41.298
 Rotational               0.889              2.981             26.489
 Vibrational             30.551              9.049              7.506
 Vibration     1          0.611              1.925              2.975
 Vibration     2          0.675              1.726              1.588
 Vibration     3          0.691              1.677              1.426
 Vibration     4          0.838              1.290              0.705
 Vibration     5          0.921              1.106              0.513
                       Q            Log10(Q)             Ln(Q)
 Total Bot       0.210697D-07         -7.676342        -17.675430
 Total V=0       0.565655D+14         13.752551         31.666420
 Vib (Bot)       0.176297D-20        -20.753755        -47.787286
 Vib (Bot)    1  0.159264D+01          0.202118          0.465395
 Vib (Bot)    2  0.712118D+00         -0.147448         -0.339512
 Vib (Bot)    3  0.638121D+00         -0.195097         -0.449228
 Vib (Bot)    4  0.346334D+00         -0.460505         -1.060351
 Vib (Bot)    5  0.273299D+00         -0.563362         -1.297188
 Vib (V=0)       0.473302D+01          0.675138          1.554564
 Vib (V=0)    1  0.216928D+01          0.336316          0.774397
 Vib (V=0)    2  0.137012D+01          0.136759          0.314900
 Vib (V=0)    3  0.131068D+01          0.117496          0.270544
 Vib (V=0)    4  0.110823D+01          0.044631          0.102767
 Vib (V=0)    5  0.106982D+01          0.029310          0.067488
 Electronic      0.100000D+01          0.000000          0.000000
 Translational   0.870597D+08          7.939817         18.282105
 Rotational      0.137276D+06          5.137596         11.829751
 ***** Axes restored to original set *****
 -------------------------------------------------------------------
 Center     Atomic                   Forces (Hartrees/Bohr)
 Number     Number              X              Y              Z
 -------------------------------------------------------------------
      1        6          -0.000056451   -0.000105670    0.000012224
      2        1           0.000003692    0.000005500    0.000008641
      3        1          -0.000004325    0.000015535    0.000000661
      4        1           0.000005562    0.000010152   -0.000008330
      5        6          -0.000017985    0.000192754   -0.000033520
      6        8           0.000063346   -0.000108480    0.000013654
      7       53           0.000006162   -0.000009790    0.000006669
 -------------------------------------------------------------------
 Cartesian Forces:  Max     0.000192754 RMS     0.000057666

 GradGradGradGradGradGradGradGradGradGradGradGradGradGradGradGradGradGrad
 Berny optimization.
 Internal  Forces:  Max     0.000123389 RMS     0.000034699
 Search for a local minimum.
 Step number   1 out of a maximum of    2
 All quantities printed in internal units (Hartrees-Bohrs-Radians)
 Second derivative matrix not updated -- analytic derivatives used.
     Eigenvalues ---    0.00086   0.04785   0.05696   0.05728   0.08263
     Eigenvalues ---    0.12654   0.14245   0.14314   0.17734   0.22345
     Eigenvalues ---    0.29534   0.34301   0.34679   0.35049   0.92840
     Eigenvalues --- 1000.000001000.000001000.000001000.000001000.00000
     Eigenvalues --- 1000.00000
 Angle between quadratic step and forces=  46.62 degrees.
 Linear search not attempted -- first point.
 Iteration  1 RMS(Cart)=  0.00012026 RMS(Int)=  0.00000002
 Iteration  2 RMS(Cart)=  0.00000002 RMS(Int)=  0.00000001
 Variable       Old X    -DE/DX   Delta X   Delta X   Delta X     New X
                                 (Linear)    (Quad)   (Total)
    R1        2.06911  -0.00001   0.00000   0.00000   0.00000   2.06911
    R2        2.06706   0.00000   0.00000  -0.00001  -0.00001   2.06706
    R3        2.06911   0.00000   0.00000   0.00000   0.00000   2.06911
    R4        2.84999  -0.00009   0.00000  -0.00040  -0.00040   2.84959
    R5        2.25202   0.00012   0.00000   0.00016   0.00016   2.25219
    R6        4.16776   0.00000   0.00000  -0.00013  -0.00013   4.16763
    A1        1.92721  -0.00001   0.00000  -0.00012  -0.00012   1.92708
    A2        1.87565  -0.00001   0.00000  -0.00016  -0.00016   1.87549
    A3        1.91375   0.00001   0.00000   0.00015   0.00015   1.91390
    A4        1.92721  -0.00001   0.00000  -0.00012  -0.00012   1.92708
    A5        1.90610   0.00001   0.00000   0.00010   0.00010   1.90620
    A6        1.91374   0.00002   0.00000   0.00016   0.00016   1.91390
    A7        2.20167  -0.00001   0.00000  -0.00006  -0.00006   2.20162
    A8        1.98128   0.00001   0.00000   0.00010   0.00010   1.98138
    A9        2.10023   0.00000   0.00000  -0.00004  -0.00004   2.10019
    D1        2.11370   0.00001   0.00000   0.00017   0.00017   2.11387
    D2       -1.02756  -0.00001   0.00000  -0.00017  -0.00017  -1.02773
    D3       -0.00016   0.00001   0.00000   0.00016   0.00016   0.00000
    D4       -3.14142  -0.00001   0.00000  -0.00017  -0.00017   3.14159
    D5       -2.11402   0.00001   0.00000   0.00015   0.00015  -2.11387
    D6        1.02791  -0.00001   0.00000  -0.00019  -0.00019   1.02772
         Item               Value     Threshold  Converged?
 Maximum Force            0.000123     0.000450     YES
 RMS     Force            0.000035     0.000300     YES
 Maximum Displacement     0.000223     0.001800     YES
 RMS     Displacement     0.000120     0.001200     YES
 Predicted change in Energy=-3.859943D-08
 Optimization completed.
    -- Stationary point found.
                           ----------------------------
                           !   Optimized Parameters   !
                           ! (Angstroms and Degrees)  !
 --------------------------                            --------------------------
 ! Name  Definition              Value          Derivative Info.                !
 --------------------------------------------------------------------------------
 ! R1    R(1,2)                  1.0949         -DE/DX =    0.0                 !
 ! R2    R(1,3)                  1.0938         -DE/DX =    0.0                 !
 ! R3    R(1,4)                  1.0949         -DE/DX =    0.0                 !
 ! R4    R(1,5)                  1.5081         -DE/DX =   -0.0001              !
 ! R5    R(5,6)                  1.1917         -DE/DX =    0.0001              !
 ! R6    R(5,7)                  2.2055         -DE/DX =    0.0                 !
 ! A1    A(2,1,3)              110.4208         -DE/DX =    0.0                 !
 ! A2    A(2,1,4)              107.467          -DE/DX =    0.0                 !
 ! A3    A(2,1,5)              109.6501         -DE/DX =    0.0                 !
 ! A4    A(3,1,4)              110.4208         -DE/DX =    0.0                 !
 ! A5    A(3,1,5)              109.2116         -DE/DX =    0.0                 !
 ! A6    A(4,1,5)              109.6494         -DE/DX =    0.0                 !
 ! A7    A(1,5,6)              126.1465         -DE/DX =    0.0                 !
 ! A8    A(1,5,7)              113.5191         -DE/DX =    0.0                 !
 ! A9    A(6,5,7)              120.3344         -DE/DX =    0.0                 !
 ! D1    D(2,1,5,6)            121.1061         -DE/DX =    0.0                 !
 ! D2    D(2,1,5,7)            -58.8747         -DE/DX =    0.0                 !
 ! D3    D(3,1,5,6)             -0.0093         -DE/DX =    0.0                 !
 ! D4    D(3,1,5,7)            180.0099         -DE/DX =    0.0                 !
 ! D5    D(4,1,5,6)           -121.1243         -DE/DX =    0.0                 !
 ! D6    D(4,1,5,7)             58.895          -DE/DX =    0.0                 !
 --------------------------------------------------------------------------------
 GradGradGradGradGradGradGradGradGradGradGradGradGradGradGradGradGradGrad

 1|1|UNPC-LAWALM-PC|Freq|RB3LYP|Gen|C2H3I1O1|LAWALM|27-Feb-2015|0||#N G
 eom=AllCheck Guess=TCheck SCRF=Check GenChk RB3LYP/ChkBas Freq||gen ca
 lculation-iac C H O=6-31+g(d)/I=midix||0,1|C,2.0790315352,1.1197542474
 ,0.0000165605|H,1.7828463075,1.6957656119,-0.8827927984|H,3.1595894462
 ,0.9497889028,-0.0000541246|H,1.7829695466,1.6958191057,0.8828315415|C
 ,1.3675012989,-0.20999482,0.0001175116|O,1.8843552201,-1.2838004636,-0
 .0000348337|I,-0.8307823544,-0.0319075842,-0.0000827779||Version=IA32W
 -G09RevA.02|State=1-A|HF=-7043.3919244|RMSD=1.289e-009|RMSF=5.767e-005
 |ZeroPoint=0.0465879|Thermal=0.0515191|Dipole=0.2984925,1.0426837,0.00
 00381|DipoleDeriv=-0.1899836,-0.1507421,-0.0000203,-0.0024242,-0.25382
 12,0.0000302,0.0000402,0.0000844,0.0642323,0.0314387,-0.0011442,-0.062
 5031,-0.0151698,0.0813612,0.0154892,-0.0315217,0.048864,0.024517,-0.12
 09745,-0.0286409,0.0000046,-0.0403105,0.0381936,-0.0000066,0.0000232,0
 .0000045,0.1087374,0.0314767,-0.0011234,0.0625016,-0.0151657,0.0813491
 ,-0.0155108,0.0315045,-0.0488945,0.0244892,2.315658,-0.1267497,0.00009
 38,-0.8964082,1.0842693,-0.0000635,-0.0000813,0.0000002,0.0449911,-1.1
 66094,0.2819957,-0.0000423,0.9150237,-0.9578533,0.000057,0.0001532,-0.
 0000692,-0.2130308,-0.9015212,0.0264047,-0.0000344,0.0544547,-0.073498
 8,0.0000047,-0.000118,0.0000105,-0.0539361|Polar=78.5177475,-1.5039385
 ,49.5601382,0.0017521,0.0002827,38.8260732|PG=C01 [X(C2H3I1O1)]|NImag=
 0||0.56830414,-0.06289063,0.48865024,0.00000366,0.00000978,0.54168369,
 -0.06922090,0.03748251,-0.06127507,0.06918134,0.03737088,-0.11635946,0
 .11931009,-0.04024423,0.12954104,-0.05984603,0.11766254,-0.22188189,0.
 06650905,-0.12664649,0.23951738,-0.31379350,0.04349303,0.00001684,-0.0
 0500500,0.00069879,0.00059376,0.33931243,0.04676732,-0.05703524,-0.000
 00256,0.01610149,-0.00216146,-0.00237488,-0.04648559,0.05864436,0.0000
 1716,-0.00000249,-0.05090809,-0.02575218,0.00233042,0.00219925,-0.0000
 1886,0.00000259,0.04650827,-0.06920601,0.03746785,0.06124980,0.0016767
 9,-0.00482208,-0.00726640,-0.00500081,0.01610431,0.02575236,0.06916156
 ,0.03735623,-0.11637637,-0.11932047,-0.00481885,0.01088191,0.01480483,
 0.00069832,-0.00216159,-0.00233023,-0.04022991,0.12956097,0.05982146,-
 0.11767343,-0.22188318,0.00726330,-0.01480706,-0.02123259,-0.00059257,
 0.00237315,0.00219550,-0.06648056,0.12666040,0.23951955,-0.11249102,-0
 .05235435,0.00000582,0.00548298,0.01174745,-0.00091294,-0.01826867,-0.
 03037346,0.00000201,0.00548183,0.01174501,0.00091162,0.36978972,-0.062
 76301,-0.14785928,0.00001140,-0.00714659,-0.02010544,-0.00147370,0.002
 03370,0.00159794,-0.00000022,-0.00714517,-0.02010540,0.00147427,-0.196
 42467,0.91623001,0.00000036,0.00000112,-0.07928421,0.01542713,0.024566
 36,0.00209091,0.00000105,0.00000188,-0.00038709,-0.01542788,-0.0245675
 0,0.00209447,-0.00003953,0.00008177,0.15496480,0.01617436,-0.00690582,
 0.00000096,-0.00004624,-0.00380462,0.00061486,0.00394262,0.00125548,-0
 .00000028,-0.00004556,-0.00380415,-0.00061494,-0.20971887,0.30840121,0
 .00004066,0.23023470,0.01689995,-0.05276474,-0.00000849,-0.00103145,-0
 .00249690,-0.00147306,0.00132467,0.00272040,0.00000004,-0.00103296,-0.
 00249970,0.00147391,0.26236938,-0.71117204,-0.00008451,-0.32108364,0.7
 7008949,0.00000298,0.00000046,0.02550007,-0.00196959,-0.00349372,-0.00
 123567,-0.00000037,0.00000011,-0.00095367,0.00196981,0.00349365,-0.001
 23574,0.00003655,-0.00009021,-0.05474108,-0.00004129,0.00009026,0.0220
 1524,-0.01976707,0.00370740,-0.00000201,-0.00206898,-0.00094619,0.0003
 0770,-0.00118707,-0.00336956,-0.00000022,-0.00206780,-0.00094665,-0.00
 030832,-0.04027597,-0.03695547,-0.00000179,-0.04054101,0.04255405,0.00
 000192,0.10590789,-0.01274075,0.00174485,0.00000024,-0.00034288,0.0007
 0030,-0.00049925,-0.00176293,-0.00160442,-0.00000011,-0.00034205,0.000
 70018,0.00049877,-0.00670935,-0.01858578,0.00000087,0.02594153,-0.0038
 7651,-0.00000054,-0.00404357,0.02092137,0.00000040,0.00000201,0.006773
 62,-0.00020264,-0.00125960,0.00054260,0.00000014,-0.00000029,0.0013458
 3,0.00020287,0.00125932,0.00054199,-0.00000353,-0.00000331,-0.02473780
 ,0.00000003,0.00000184,0.01065086,0.00000273,0.00000003,0.00488289||0.
 00005645,0.00010567,-0.00001222,-0.00000369,-0.00000550,-0.00000864,0.
 00000433,-0.00001553,-0.00000066,-0.00000556,-0.00001015,0.00000833,0.
 00001798,-0.00019275,0.00003352,-0.00006335,0.00010848,-0.00001365,-0.
 00000616,0.00000979,-0.00000667|||@


 IT WAS A GAME, A VERY INTERESTING GAME ONE COULD
 PLAY.  WHENEVER ONE SOLVED ONE OF THE LITTLE PROBLEMS,
 ONE COULD WRITE A PAPER ABOUT IT.  IT WAS VERY EASY IN
 THOSE DAYS FOR ANY SECOND-RATE PHYSICIST TO DO
 FIRST-RATE WORK.  THERE HAS NOT BEEN SUCH A GLORIOUS
 TIME SINCE.  IT IS VERY DIFFICULT NOW FOR A FIRST-RATE
 PHYSICIST TO DO SECOND-RATE WORK.
     P.A.M. DIRAC, ON THE EARLY DAYS OF QUANTUM MECHANICS
                   DIRECTIONS IN PHYSICS, 1978, P. 7
 Job cpu time:  0 days  0 hours  1 minutes 56.0 seconds.
 File lengths (MBytes):  RWF=     15 Int=      0 D2E=      0 Chk=      2 Scr=      1
 Normal termination of Gaussian 09 at Fri Feb 27 11:46:45 2015.
