 Entering Gaussian System, Link 0=g09
 Initial command:
 /opt/gridware/applications/gaussian/g09/l1.exe "/lustre/SCRATCH5/gau/Gau-9648.inp" -scrdir="/lustre/SCRATCH5/gau/"
 Entering Link 1 = /opt/gridware/applications/gaussian/g09/l1.exe PID=      9649.
  
 Copyright (c) 1988,1990,1992,1993,1995,1998,2003,2009,2013,
            Gaussian, Inc.  All Rights Reserved.
  
 This is part of the Gaussian(R) 09 program.  It is based on
 the Gaussian(R) 03 system (copyright 2003, Gaussian, Inc.),
 the Gaussian(R) 98 system (copyright 1998, Gaussian, Inc.),
 the Gaussian(R) 94 system (copyright 1995, Gaussian, Inc.),
 the Gaussian 92(TM) system (copyright 1992, Gaussian, Inc.),
 the Gaussian 90(TM) system (copyright 1990, Gaussian, Inc.),
 the Gaussian 88(TM) system (copyright 1988, Gaussian, Inc.),
 the Gaussian 86(TM) system (copyright 1986, Carnegie Mellon
 University), and the Gaussian 82(TM) system (copyright 1983,
 Carnegie Mellon University). Gaussian is a federally registered
 trademark of Gaussian, Inc.
  
 This software contains proprietary and confidential information,
 including trade secrets, belonging to Gaussian, Inc.
  
 This software is provided under written license and may be
 used, copied, transmitted, or stored only in accord with that
 written license.
  
 The following legend is applicable only to US Government
 contracts under FAR:
  
                    RESTRICTED RIGHTS LEGEND
  
 Use, reproduction and disclosure by the US Government is
 subject to restrictions as set forth in subparagraphs (a)
 and (c) of the Commercial Computer Software - Restricted
 Rights clause in FAR 52.227-19.
  
 Gaussian, Inc.
 340 Quinnipiac St., Bldg. 40, Wallingford CT 06492
  
  
 ---------------------------------------------------------------
 Warning -- This program may not be used in any manner that
 competes with the business of Gaussian, Inc. or will provide
 assistance to any competitor of Gaussian, Inc.  The licensee
 of this program is prohibited from giving any competitor of
 Gaussian, Inc. access to this program.  By using this program,
 the user acknowledges that Gaussian, Inc. is engaged in the
 business of creating and licensing software in the field of
 computational chemistry and represents and warrants to the
 licensee that it is not a competitor of Gaussian, Inc. and that
 it will not use this program in any manner prohibited above.
 ---------------------------------------------------------------
  

 Cite this work as:
 Gaussian 09, Revision D.01,
 M. J. Frisch, G. W. Trucks, H. B. Schlegel, G. E. Scuseria, 
 M. A. Robb, J. R. Cheeseman, G. Scalmani, V. Barone, B. Mennucci, 
 G. A. Petersson, H. Nakatsuji, M. Caricato, X. Li, H. P. Hratchian, 
 A. F. Izmaylov, J. Bloino, G. Zheng, J. L. Sonnenberg, M. Hada, 
 M. Ehara, K. Toyota, R. Fukuda, J. Hasegawa, M. Ishida, T. Nakajima, 
 Y. Honda, O. Kitao, H. Nakai, T. Vreven, J. A. Montgomery, Jr., 
 J. E. Peralta, F. Ogliaro, M. Bearpark, J. J. Heyd, E. Brothers, 
 K. N. Kudin, V. N. Staroverov, T. Keith, R. Kobayashi, J. Normand, 
 K. Raghavachari, A. Rendell, J. C. Burant, S. S. Iyengar, J. Tomasi, 
 M. Cossi, N. Rega, J. M. Millam, M. Klene, J. E. Knox, J. B. Cross, 
 V. Bakken, C. Adamo, J. Jaramillo, R. Gomperts, R. E. Stratmann, 
 O. Yazyev, A. J. Austin, R. Cammi, C. Pomelli, J. W. Ochterski, 
 R. L. Martin, K. Morokuma, V. G. Zakrzewski, G. A. Voth, 
 P. Salvador, J. J. Dannenberg, S. Dapprich, A. D. Daniels, 
 O. Farkas, J. B. Foresman, J. V. Ortiz, J. Cioslowski, 
 and D. J. Fox, Gaussian, Inc., Wallingford CT, 2013.
 
 ******************************************
 Gaussian 09:  EM64L-G09RevD.01 24-Apr-2013
                11-Feb-2015 
 ******************************************
 %nprocshared=8
 Will use up to    8 processors via shared memory.
 %nprocl=1
 Will use up to    1 processors via Linda.
 ----------------------------------------------------------------------
 # opt=(calcfc,ts,noeigentest) freq=noraman b3lyp/6-31+g(d) geom=connec
 tivity
 ----------------------------------------------------------------------
 1/5=1,10=4,11=1,14=-1,18=20,26=3,38=1,57=2/1,3;
 2/9=110,12=2,17=6,18=5,40=1/2;
 3/5=1,6=6,7=11,11=2,16=1,25=1,30=1,71=2,74=-5,140=1/1,2,3;
 4//1;
 5/5=2,38=5/2;
 8/6=4,10=90,11=11/1;
 11/6=1,8=1,9=11,15=111,16=1/1,2,10;
 10/6=1,13=1/2;
 6/7=2,8=2,9=2,10=2,28=1/1;
 7/10=1,18=20,25=1/1,2,3,16;
 1/5=1,10=4,11=1,14=-1,18=20,26=3/3(2);
 2/9=110/2;
 99//99;
 2/9=110/2;
 3/5=1,6=6,7=11,11=2,16=1,25=1,30=1,71=1,74=-5/1,2,3;
 4/5=5,16=3,69=1/1;
 5/5=2,38=5/2;
 7//1,2,3,16;
 1/5=1,11=1,14=-1,18=20,26=3/3(-5);
 2/9=110/2;
 6/7=2,8=2,9=2,10=2,19=2,28=1/1;
 99/9=1/99;
 -------------------
 Title Card Required
 -------------------
 Symbolic Z-matrix:
 Charge =  0 Multiplicity = 1
 C                     0.88456   0.11663   0.41891 
 C                    -0.39856   2.08642  -0.60959 
 H                    -1.16612   2.27151  -1.36713 
 H                    -0.77958   2.23626   0.40602 
 H                     0.47888   2.71442  -0.79914 
 C                     2.12077   0.93679   0.59068 
 H                     2.88275   0.36133   1.14581 
 H                     2.57087   1.21375  -0.37438 
 H                     1.92442   1.84967   1.16978 
 O                     0.01831   0.71086  -0.79507 
 O                    -1.76363  -0.8697   -0.10176 
 C                    -3.04071  -0.26804   0.23386 
 H                    -3.56304  -0.12891  -0.71933 
 H                    -3.57601  -0.99358   0.85919 
 H                    -2.90073   0.67793   0.76431 
 H                    -1.12805  -0.88883   0.81811 
 H                    -1.03451  -0.03214  -0.7197 
 Cl                    1.32383  -1.44391  -0.5023 
 O                     0.04404  -0.08688   1.34089 
 
 Add virtual bond connecting atoms H16        and O11        Dist= 2.11D+00.
 Add virtual bond connecting atoms H17        and O11        Dist= 2.40D+00.
 Add virtual bond connecting atoms H17        and O10        Dist= 2.44D+00.
 Add virtual bond connecting atoms C1         and O10        Dist= 3.03D+00.
 Add virtual bond connecting atoms O19        and H16        Dist= 2.86D+00.

 GradGradGradGradGradGradGradGradGradGradGradGradGradGradGradGradGradGrad
 Berny optimization.
 Initialization pass.
                           ----------------------------
                           !    Initial Parameters    !
                           ! (Angstroms and Degrees)  !
 --------------------------                            --------------------------
 ! Name  Definition              Value          Derivative Info.                !
 --------------------------------------------------------------------------------
 ! R1    R(1,6)                  1.4934         calculate D2E/DX2 analytically  !
 ! R2    R(1,10)                 1.6054         calculate D2E/DX2 analytically  !
 ! R3    R(1,18)                 1.8646         calculate D2E/DX2 analytically  !
 ! R4    R(1,19)                 1.2641         calculate D2E/DX2 analytically  !
 ! R5    R(2,3)                  1.0942         calculate D2E/DX2 analytically  !
 ! R6    R(2,4)                  1.095          calculate D2E/DX2 analytically  !
 ! R7    R(2,5)                  1.0955         calculate D2E/DX2 analytically  !
 ! R8    R(2,10)                 1.4493         calculate D2E/DX2 analytically  !
 ! R9    R(6,7)                  1.1045         calculate D2E/DX2 analytically  !
 ! R10   R(6,8)                  1.1003         calculate D2E/DX2 analytically  !
 ! R11   R(6,9)                  1.0988         calculate D2E/DX2 analytically  !
 ! R12   R(10,17)                1.2908         calculate D2E/DX2 analytically  !
 ! R13   R(11,12)                1.4511         calculate D2E/DX2 analytically  !
 ! R14   R(11,16)                1.1182         calculate D2E/DX2 analytically  !
 ! R15   R(11,17)                1.2708         calculate D2E/DX2 analytically  !
 ! R16   R(12,13)                1.0958         calculate D2E/DX2 analytically  !
 ! R17   R(12,14)                1.0973         calculate D2E/DX2 analytically  !
 ! R18   R(12,15)                1.0935         calculate D2E/DX2 analytically  !
 ! R19   R(16,19)                1.5133         calculate D2E/DX2 analytically  !
 ! A1    A(6,1,10)             109.29           calculate D2E/DX2 analytically  !
 ! A2    A(6,1,18)             108.7494         calculate D2E/DX2 analytically  !
 ! A3    A(6,1,19)             123.7047         calculate D2E/DX2 analytically  !
 ! A4    A(10,1,18)             93.6298         calculate D2E/DX2 analytically  !
 ! A5    A(10,1,19)            104.6163         calculate D2E/DX2 analytically  !
 ! A6    A(18,1,19)            112.4725         calculate D2E/DX2 analytically  !
 ! A7    A(3,2,4)              112.0175         calculate D2E/DX2 analytically  !
 ! A8    A(3,2,5)              110.1863         calculate D2E/DX2 analytically  !
 ! A9    A(3,2,10)             105.8855         calculate D2E/DX2 analytically  !
 ! A10   A(4,2,5)              111.1443         calculate D2E/DX2 analytically  !
 ! A11   A(4,2,10)             110.4062         calculate D2E/DX2 analytically  !
 ! A12   A(5,2,10)             106.9508         calculate D2E/DX2 analytically  !
 ! A13   A(1,6,7)              110.0441         calculate D2E/DX2 analytically  !
 ! A14   A(1,6,8)              112.0838         calculate D2E/DX2 analytically  !
 ! A15   A(1,6,9)              111.652          calculate D2E/DX2 analytically  !
 ! A16   A(7,6,8)              106.8439         calculate D2E/DX2 analytically  !
 ! A17   A(7,6,9)              106.9335         calculate D2E/DX2 analytically  !
 ! A18   A(8,6,9)              109.0408         calculate D2E/DX2 analytically  !
 ! A19   A(1,10,2)             114.1896         calculate D2E/DX2 analytically  !
 ! A20   A(1,10,17)            100.5379         calculate D2E/DX2 analytically  !
 ! A21   A(2,10,17)            107.7134         calculate D2E/DX2 analytically  !
 ! A22   A(12,11,16)           108.4848         calculate D2E/DX2 analytically  !
 ! A23   A(12,11,17)           110.1294         calculate D2E/DX2 analytically  !
 ! A24   A(16,11,17)            94.8855         calculate D2E/DX2 analytically  !
 ! A25   A(11,12,13)           105.722          calculate D2E/DX2 analytically  !
 ! A26   A(11,12,14)           106.6785         calculate D2E/DX2 analytically  !
 ! A27   A(11,12,15)           110.9905         calculate D2E/DX2 analytically  !
 ! A28   A(13,12,14)           110.3134         calculate D2E/DX2 analytically  !
 ! A29   A(13,12,15)           111.9091         calculate D2E/DX2 analytically  !
 ! A30   A(14,12,15)           110.9771         calculate D2E/DX2 analytically  !
 ! A31   A(11,16,19)           135.6682         calculate D2E/DX2 analytically  !
 ! A32   A(10,17,11)           151.1314         calculate D2E/DX2 analytically  !
 ! A33   A(1,19,16)            110.3856         calculate D2E/DX2 analytically  !
 ! D1    D(10,1,6,7)          -159.762          calculate D2E/DX2 analytically  !
 ! D2    D(10,1,6,8)           -41.0181         calculate D2E/DX2 analytically  !
 ! D3    D(10,1,6,9)            81.6562         calculate D2E/DX2 analytically  !
 ! D4    D(18,1,6,7)           -58.8302         calculate D2E/DX2 analytically  !
 ! D5    D(18,1,6,8)            59.9137         calculate D2E/DX2 analytically  !
 ! D6    D(18,1,6,9)          -177.412          calculate D2E/DX2 analytically  !
 ! D7    D(19,1,6,7)            76.5385         calculate D2E/DX2 analytically  !
 ! D8    D(19,1,6,8)          -164.7176         calculate D2E/DX2 analytically  !
 ! D9    D(19,1,6,9)           -42.0433         calculate D2E/DX2 analytically  !
 ! D10   D(6,1,10,2)           -59.7896         calculate D2E/DX2 analytically  !
 ! D11   D(6,1,10,17)         -174.8027         calculate D2E/DX2 analytically  !
 ! D12   D(18,1,10,2)         -171.101          calculate D2E/DX2 analytically  !
 ! D13   D(18,1,10,17)          73.8859         calculate D2E/DX2 analytically  !
 ! D14   D(19,1,10,2)           74.5458         calculate D2E/DX2 analytically  !
 ! D15   D(19,1,10,17)         -40.4674         calculate D2E/DX2 analytically  !
 ! D16   D(6,1,19,16)          176.7496         calculate D2E/DX2 analytically  !
 ! D17   D(10,1,19,16)          50.9937         calculate D2E/DX2 analytically  !
 ! D18   D(18,1,19,16)         -49.2991         calculate D2E/DX2 analytically  !
 ! D19   D(3,2,10,1)          -166.3283         calculate D2E/DX2 analytically  !
 ! D20   D(3,2,10,17)          -55.5997         calculate D2E/DX2 analytically  !
 ! D21   D(4,2,10,1)           -44.879          calculate D2E/DX2 analytically  !
 ! D22   D(4,2,10,17)           65.8496         calculate D2E/DX2 analytically  !
 ! D23   D(5,2,10,1)            76.1679         calculate D2E/DX2 analytically  !
 ! D24   D(5,2,10,17)         -173.1035         calculate D2E/DX2 analytically  !
 ! D25   D(1,10,17,11)          13.1394         calculate D2E/DX2 analytically  !
 ! D26   D(2,10,17,11)        -106.6587         calculate D2E/DX2 analytically  !
 ! D27   D(16,11,12,13)        171.4295         calculate D2E/DX2 analytically  !
 ! D28   D(16,11,12,14)        -71.1302         calculate D2E/DX2 analytically  !
 ! D29   D(16,11,12,15)         49.8827         calculate D2E/DX2 analytically  !
 ! D30   D(17,11,12,13)         68.8279         calculate D2E/DX2 analytically  !
 ! D31   D(17,11,12,14)       -173.7318         calculate D2E/DX2 analytically  !
 ! D32   D(17,11,12,15)        -52.7189         calculate D2E/DX2 analytically  !
 ! D33   D(12,11,16,19)       -103.5454         calculate D2E/DX2 analytically  !
 ! D34   D(17,11,16,19)          9.581          calculate D2E/DX2 analytically  !
 ! D35   D(12,11,17,10)        114.9612         calculate D2E/DX2 analytically  !
 ! D36   D(16,11,17,10)          3.2308         calculate D2E/DX2 analytically  !
 ! D37   D(11,16,19,1)         -43.6502         calculate D2E/DX2 analytically  !
 --------------------------------------------------------------------------------
 Trust Radius=3.00D-01 FncErr=1.00D-07 GrdErr=1.00D-06
 Number of steps in this run=     99 maximum allowed number of steps=    114.
 Search for a saddle point of order  1.
 GradGradGradGradGradGradGradGradGradGradGradGradGradGradGradGradGradGrad

                          Input orientation:                          
 ---------------------------------------------------------------------
 Center     Atomic      Atomic             Coordinates (Angstroms)
 Number     Number       Type             X           Y           Z
 ---------------------------------------------------------------------
      1          6           0        0.884558    0.116628    0.418907
      2          6           0       -0.398563    2.086422   -0.609586
      3          1           0       -1.166118    2.271506   -1.367134
      4          1           0       -0.779578    2.236265    0.406015
      5          1           0        0.478877    2.714415   -0.799143
      6          6           0        2.120771    0.936787    0.590683
      7          1           0        2.882752    0.361331    1.145809
      8          1           0        2.570868    1.213746   -0.374381
      9          1           0        1.924419    1.849674    1.169780
     10          8           0        0.018310    0.710864   -0.795072
     11          8           0       -1.763632   -0.869703   -0.101762
     12          6           0       -3.040711   -0.268041    0.233857
     13          1           0       -3.563040   -0.128910   -0.719331
     14          1           0       -3.576005   -0.993577    0.859193
     15          1           0       -2.900725    0.677932    0.764309
     16          1           0       -1.128054   -0.888828    0.818105
     17          1           0       -1.034514   -0.032144   -0.719698
     18         17           0        1.323828   -1.443907   -0.502301
     19          8           0        0.044036   -0.086882    1.340889
 ---------------------------------------------------------------------
                    Distance matrix (angstroms):
                    1          2          3          4          5
     1  C    0.000000
     2  C    2.565986   0.000000
     3  H    3.469685   1.094201   0.000000
     4  H    2.694880   1.095021   1.815134   0.000000
     5  H    2.897709   1.095540   1.795770   1.806860   0.000000
     6  C    1.493449   3.018170   4.051933   3.183515   2.790590
     7  H    2.140338   4.101753   5.133907   4.180351   3.885673
     8  H    2.162548   3.103934   4.008675   3.588879   2.609379
     9  H    2.156054   2.935718   4.020609   2.836263   2.591144
    10  O    1.605381   1.449258   2.041012   2.099067   2.055810
    11  O    2.873474   3.295447   3.438805   3.297459   4.284984
    12  C    3.948411   3.638109   3.539289   3.378448   4.727540
    13  H    4.597500   3.864409   3.453532   3.822057   4.942465
    14  H    4.617687   4.662600   4.628699   4.296191   5.739456
    15  H    3.842230   3.183119   3.176695   2.656321   4.244214
    16  H    2.284931   3.379729   3.842451   3.171350   4.263928
    17  H    2.236379   2.214696   2.396518   2.545172   3.136917
    18  Cl   1.864632   3.929550   4.555443   4.335092   4.253669
    19  O    1.264098   2.953557   3.789440   2.636160   3.551913
                    6          7          8          9         10
     6  C    0.000000
     7  H    1.104504   0.000000
     8  H    1.100292   1.770554   0.000000
     9  H    1.098758   1.770351   1.790736   0.000000
    10  O    2.528181   3.477675   2.635417   2.964925   0.000000
    11  O    4.339524   4.965960   4.816946   4.755371   2.480764
    12  C    5.312234   6.026208   5.835706   5.478429   3.372619
    13  H    5.929381   6.728099   6.288604   6.131537   3.679270
    14  H    6.020935   6.605563   6.646655   6.199613   4.308226
    15  H    5.031160   5.804686   5.614449   4.981907   3.309610
    16  H    3.733558   4.213888   4.418695   4.115903   2.544701
    17  H    3.551302   4.356594   3.830178   3.983296   1.290806
    18  Cl   2.738145   2.899206   2.938468   3.742224   2.536362
    19  O    2.433831   2.880496   3.319437   2.704694   2.280217
                   11         12         13         14         15
    11  O    0.000000
    12  C    1.451058   0.000000
    13  H    2.041577   1.095788   0.000000
    14  H    2.055110   1.097264   1.799876   0.000000
    15  H    2.106712   1.093545   1.814068   1.805256   0.000000
    16  H    1.118249   2.094034   2.978312   2.450536   2.366431
    17  H    1.270812   2.233773   2.530377   3.142678   2.487816
    18  Cl   3.165841   4.579715   5.065353   5.105372   4.894216
    19  O    2.441662   3.282378   4.154187   3.762821   3.096611
                   16         17         18         19
    16  H    0.000000
    17  H    1.762809   0.000000
    18  Cl   2.839597   2.757193   0.000000
    19  O    1.513346   2.326432   2.622353   0.000000
 Stoichiometry    C4H11ClO3
 Framework group  C1[X(C4H11ClO3)]
 Deg. of freedom    51
 Full point group                 C1      NOp   1
 Largest Abelian subgroup         C1      NOp   1
 Largest concise Abelian subgroup C1      NOp   1
                         Standard orientation:                         
 ---------------------------------------------------------------------
 Center     Atomic      Atomic             Coordinates (Angstroms)
 Number     Number       Type             X           Y           Z
 ---------------------------------------------------------------------
      1          6           0        0.884558    0.116628    0.418907
      2          6           0       -0.398563    2.086422   -0.609586
      3          1           0       -1.166118    2.271506   -1.367134
      4          1           0       -0.779578    2.236265    0.406015
      5          1           0        0.478877    2.714415   -0.799143
      6          6           0        2.120771    0.936787    0.590683
      7          1           0        2.882752    0.361331    1.145809
      8          1           0        2.570868    1.213746   -0.374381
      9          1           0        1.924419    1.849674    1.169780
     10          8           0        0.018310    0.710864   -0.795072
     11          8           0       -1.763632   -0.869703   -0.101762
     12          6           0       -3.040711   -0.268041    0.233857
     13          1           0       -3.563040   -0.128910   -0.719331
     14          1           0       -3.576005   -0.993577    0.859193
     15          1           0       -2.900725    0.677932    0.764309
     16          1           0       -1.128054   -0.888828    0.818105
     17          1           0       -1.034514   -0.032144   -0.719698
     18         17           0        1.323828   -1.443907   -0.502301
     19          8           0        0.044036   -0.086882    1.340889
 ---------------------------------------------------------------------
 Rotational constants (GHZ):      2.0335794      1.2248437      0.9612350
 Standard basis: 6-31+G(d) (6D, 7F)
 There are   178 symmetry adapted cartesian basis functions of A   symmetry.
 There are   178 symmetry adapted basis functions of A   symmetry.
   178 basis functions,   324 primitive gaussians,   178 cartesian basis functions
    38 alpha electrons       38 beta electrons
       nuclear repulsion energy       523.1875724889 Hartrees.
 NAtoms=   19 NActive=   19 NUniq=   19 SFac= 1.00D+00 NAtFMM=   60 NAOKFM=F Big=F
 Integral buffers will be    131072 words long.
 Raffenetti 2 integral format.
 Two-electron integral symmetry is turned on.
 One-electron integrals computed using PRISM.
 NBasis=   178 RedAO= T EigKep=  3.86D-05  NBF=   178
 NBsUse=   178 1.00D-06 EigRej= -1.00D+00 NBFU=   178
 ExpMin= 4.38D-02 ExpMax= 2.52D+04 ExpMxC= 3.78D+03 IAcc=2 IRadAn=         4 AccDes= 0.00D+00
 Harris functional with IExCor=  402 and IRadAn=       4 diagonalized for initial guess.
 HarFok:  IExCor=  402 AccDes= 0.00D+00 IRadAn=         4 IDoV= 1 UseB2=F ITyADJ=14
 ICtDFT=  3500011 ScaDFX=  1.000000  1.000000  1.000000  1.000000
 FoFCou: FMM=F IPFlag=           0 FMFlag=      100000 FMFlg1=           0
         NFxFlg=           0 DoJE=T BraDBF=F KetDBF=T FulRan=T
         wScrn=  0.000000 ICntrl=     500 IOpCl=  0 I1Cent=   200000004 NGrid=           0
         NMat0=    1 NMatS0=      1 NMatT0=    0 NMatD0=    1 NMtDS0=    0 NMtDT0=    0
 Petite list used in FoFCou.
 Requested convergence on RMS density matrix=1.00D-08 within 128 cycles.
 Requested convergence on MAX density matrix=1.00D-06.
 Requested convergence on             energy=1.00D-06.
 No special actions if energy rises.
 SCF Done:  E(RB3LYP) =  -844.864306693     A.U. after   14 cycles
            NFock= 14  Conv=0.36D-08     -V/T= 2.0060
 DoSCS=F DFT=T ScalE2(SS,OS)=  1.000000  1.000000
 Range of M.O.s used for correlation:     1   178
 NBasis=   178 NAE=    38 NBE=    38 NFC=     0 NFV=     0
 NROrb=    178 NOA=    38 NOB=    38 NVA=   140 NVB=   140

 **** Warning!!: The largest alpha MO coefficient is  0.48974336D+02

 Symmetrizing basis deriv contribution to polar:
 IMax=3 JMax=2 DiffMx= 0.00D+00
 G2DrvN: will do    20 centers at a time, making    1 passes.
 Calling FoFCou, ICntrl=  3107 FMM=F I1Cent=   0 AccDes= 0.00D+00.
 End of G2Drv F.D. properties file   721 does not exist.
 End of G2Drv F.D. properties file   722 does not exist.
 End of G2Drv F.D. properties file   788 does not exist.
          IDoAtm=1111111111111111111
          Differentiating once with respect to nuclear coordinates.
          There are    60 degrees of freedom in the 1st order CPHF.  IDoFFX=6 NUNeed=     0.
     54 vectors produced by pass  0 Test12= 8.87D-15 1.67D-09 XBig12= 2.17D-01 7.95D-02.
 AX will form    54 AO Fock derivatives at one time.
     54 vectors produced by pass  1 Test12= 8.87D-15 1.67D-09 XBig12= 3.16D-02 2.30D-02.
     54 vectors produced by pass  2 Test12= 8.87D-15 1.67D-09 XBig12= 4.14D-04 2.61D-03.
     54 vectors produced by pass  3 Test12= 8.87D-15 1.67D-09 XBig12= 1.27D-06 1.41D-04.
     54 vectors produced by pass  4 Test12= 8.87D-15 1.67D-09 XBig12= 2.04D-09 5.78D-06.
     41 vectors produced by pass  5 Test12= 8.87D-15 1.67D-09 XBig12= 2.25D-12 1.64D-07.
      7 vectors produced by pass  6 Test12= 8.87D-15 1.67D-09 XBig12= 7.63D-15 1.17D-08.
 InvSVY:  IOpt=1 It=  1 EMax= 5.55D-16
 Solved reduced A of dimension   318 with    60 vectors.
 End of Minotr F.D. properties file   721 does not exist.
 End of Minotr F.D. properties file   722 does not exist.
 End of Minotr F.D. properties file   788 does not exist.

 **********************************************************************

            Population analysis using the SCF density.

 **********************************************************************

 Orbital symmetries:
       Occupied  (A) (A) (A) (A) (A) (A) (A) (A) (A) (A) (A) (A)
                 (A) (A) (A) (A) (A) (A) (A) (A) (A) (A) (A) (A)
                 (A) (A) (A) (A) (A) (A) (A) (A) (A) (A) (A) (A)
                 (A) (A)
       Virtual   (A) (A) (A) (A) (A) (A) (A) (A) (A) (A) (A) (A)
                 (A) (A) (A) (A) (A) (A) (A) (A) (A) (A) (A) (A)
                 (A) (A) (A) (A) (A) (A) (A) (A) (A) (A) (A) (A)
                 (A) (A) (A) (A) (A) (A) (A) (A) (A) (A) (A) (A)
                 (A) (A) (A) (A) (A) (A) (A) (A) (A) (A) (A) (A)
                 (A) (A) (A) (A) (A) (A) (A) (A) (A) (A) (A) (A)
                 (A) (A) (A) (A) (A) (A) (A) (A) (A) (A) (A) (A)
                 (A) (A) (A) (A) (A) (A) (A) (A) (A) (A) (A) (A)
                 (A) (A) (A) (A) (A) (A) (A) (A) (A) (A) (A) (A)
                 (A) (A) (A) (A) (A) (A) (A) (A) (A) (A) (A) (A)
                 (A) (A) (A) (A) (A) (A) (A) (A) (A) (A) (A) (A)
                 (A) (A) (A) (A) (A) (A) (A) (A)
 The electronic state is 1-A.
 Alpha  occ. eigenvalues -- -101.50605 -19.20731 -19.20045 -19.12227 -10.34047
 Alpha  occ. eigenvalues --  -10.26242 -10.25721 -10.19957  -9.42324  -7.18619
 Alpha  occ. eigenvalues --   -7.17790  -7.17765  -1.08688  -1.04411  -1.00400
 Alpha  occ. eigenvalues --   -0.81331  -0.74542  -0.71902  -0.70601  -0.57647
 Alpha  occ. eigenvalues --   -0.55259  -0.54090  -0.50005  -0.48345  -0.47268
 Alpha  occ. eigenvalues --   -0.46300  -0.44921  -0.43713  -0.42049  -0.40871
 Alpha  occ. eigenvalues --   -0.38794  -0.37439  -0.36054  -0.30986  -0.29540
 Alpha  occ. eigenvalues --   -0.28576  -0.26839  -0.26231
 Alpha virt. eigenvalues --   -0.00831   0.00847   0.01123   0.01740   0.02886
 Alpha virt. eigenvalues --    0.03405   0.04443   0.05001   0.06018   0.06609
 Alpha virt. eigenvalues --    0.07214   0.07931   0.08958   0.09338   0.10753
 Alpha virt. eigenvalues --    0.11038   0.12141   0.13147   0.13838   0.14457
 Alpha virt. eigenvalues --    0.15074   0.16098   0.16587   0.17094   0.17492
 Alpha virt. eigenvalues --    0.18599   0.18980   0.20395   0.21620   0.21816
 Alpha virt. eigenvalues --    0.22492   0.24116   0.24883   0.25916   0.26001
 Alpha virt. eigenvalues --    0.28573   0.28813   0.30479   0.30996   0.32601
 Alpha virt. eigenvalues --    0.33398   0.33804   0.35734   0.36260   0.37971
 Alpha virt. eigenvalues --    0.39060   0.41647   0.44618   0.49507   0.57278
 Alpha virt. eigenvalues --    0.60237   0.62377   0.63495   0.64081   0.65131
 Alpha virt. eigenvalues --    0.65365   0.69512   0.70361   0.70675   0.72224
 Alpha virt. eigenvalues --    0.75989   0.76889   0.79445   0.80745   0.86408
 Alpha virt. eigenvalues --    0.89518   0.91790   0.92871   0.93385   0.94904
 Alpha virt. eigenvalues --    0.95786   0.97101   0.98556   1.02353   1.03793
 Alpha virt. eigenvalues --    1.04628   1.05973   1.08248   1.08894   1.13858
 Alpha virt. eigenvalues --    1.14560   1.20755   1.21494   1.23458   1.25307
 Alpha virt. eigenvalues --    1.28861   1.29608   1.33690   1.35653   1.36059
 Alpha virt. eigenvalues --    1.38600   1.45379   1.46860   1.50168   1.52638
 Alpha virt. eigenvalues --    1.54545   1.57095   1.58610   1.63519   1.69072
 Alpha virt. eigenvalues --    1.71359   1.73920   1.77966   1.80777   1.85528
 Alpha virt. eigenvalues --    1.87517   1.93945   1.98351   2.02002   2.03480
 Alpha virt. eigenvalues --    2.05220   2.10127   2.13061   2.13918   2.16317
 Alpha virt. eigenvalues --    2.18527   2.22390   2.25289   2.27504   2.29901
 Alpha virt. eigenvalues --    2.30845   2.34501   2.37810   2.42423   2.49794
 Alpha virt. eigenvalues --    2.55816   2.64209   2.76221   2.81098   2.82674
 Alpha virt. eigenvalues --    2.89565   3.08242   4.10782   4.19299   4.27823
 Alpha virt. eigenvalues --    4.29684   4.36257   4.39761   4.49487   4.57074
          Condensed to atoms (all electrons):
               1          2          3          4          5          6
     1  C    6.823434  -0.136895   0.004473  -0.021313  -0.001614  -0.707568
     2  C   -0.136895   5.287411   0.388333   0.413263   0.389914   0.008240
     3  H    0.004473   0.388333   0.505800  -0.030284  -0.023639   0.002117
     4  H   -0.021313   0.413263  -0.030284   0.505999  -0.032964  -0.001269
     5  H   -0.001614   0.389914  -0.023639  -0.032964   0.495822  -0.002979
     6  C   -0.707568   0.008240   0.002117  -0.001269  -0.002979   6.470844
     7  H   -0.066628   0.002171   0.000000   0.000015  -0.000011   0.393809
     8  H   -0.094932  -0.002377  -0.000001   0.000153   0.000625   0.411172
     9  H   -0.039576   0.001707   0.000044  -0.000066  -0.001257   0.378066
    10  O   -0.019175  -0.002448  -0.046067  -0.075730  -0.038406  -0.047017
    11  O    0.011612   0.007421  -0.000799   0.001601  -0.001281  -0.031580
    12  C   -0.005273  -0.015420  -0.000645  -0.003514   0.001701   0.000328
    13  H   -0.000001  -0.001381   0.000092   0.000025   0.000001   0.000238
    14  H   -0.000348   0.001688   0.000008   0.000006  -0.000001  -0.000195
    15  H   -0.002678  -0.001851  -0.000273   0.001142   0.000036   0.002071
    16  H   -0.008784  -0.000834  -0.000006   0.000180   0.000020   0.033378
    17  H    0.021802  -0.018633  -0.002854  -0.000107   0.001349   0.005384
    18  Cl   0.036959   0.033403  -0.000794  -0.000300   0.000760  -0.130917
    19  O    0.384233  -0.003281  -0.001633   0.015541  -0.002060  -0.119475
               7          8          9         10         11         12
     1  C   -0.066628  -0.094932  -0.039576  -0.019175   0.011612  -0.005273
     2  C    0.002171  -0.002377   0.001707  -0.002448   0.007421  -0.015420
     3  H    0.000000  -0.000001   0.000044  -0.046067  -0.000799  -0.000645
     4  H    0.000015   0.000153  -0.000066  -0.075730   0.001601  -0.003514
     5  H   -0.000011   0.000625  -0.001257  -0.038406  -0.001281   0.001701
     6  C    0.393809   0.411172   0.378066  -0.047017  -0.031580   0.000328
     7  H    0.458921  -0.023089  -0.023175   0.008558   0.000145  -0.000054
     8  H   -0.023089   0.480194  -0.030767   0.002285   0.000517  -0.000035
     9  H   -0.023175  -0.030767   0.497130  -0.005018  -0.000291  -0.000228
    10  O    0.008558   0.002285  -0.005018   8.814166  -0.041306   0.013212
    11  O    0.000145   0.000517  -0.000291  -0.041306   8.796230   0.039449
    12  C   -0.000054  -0.000035  -0.000228   0.013212   0.039449   5.160754
    13  H    0.000000   0.000000   0.000000  -0.001333  -0.039462   0.393428
    14  H    0.000000   0.000000   0.000000  -0.000908  -0.041602   0.389461
    15  H    0.000000  -0.000001   0.000001   0.001303  -0.086010   0.406426
    16  H   -0.000035  -0.000091   0.000018  -0.011537   0.074273  -0.005710
    17  H   -0.000074   0.000060  -0.000050   0.115974   0.084839  -0.009361
    18  Cl   0.002318   0.007731   0.002492  -0.082441   0.022016  -0.004367
    19  O   -0.001528   0.008284  -0.004980  -0.145878  -0.096300   0.008913
              13         14         15         16         17         18
     1  C   -0.000001  -0.000348  -0.002678  -0.008784   0.021802   0.036959
     2  C   -0.001381   0.001688  -0.001851  -0.000834  -0.018633   0.033403
     3  H    0.000092   0.000008  -0.000273  -0.000006  -0.002854  -0.000794
     4  H    0.000025   0.000006   0.001142   0.000180  -0.000107  -0.000300
     5  H    0.000001  -0.000001   0.000036   0.000020   0.001349   0.000760
     6  C    0.000238  -0.000195   0.002071   0.033378   0.005384  -0.130917
     7  H    0.000000   0.000000   0.000000  -0.000035  -0.000074   0.002318
     8  H    0.000000   0.000000  -0.000001  -0.000091   0.000060   0.007731
     9  H    0.000000   0.000000   0.000001   0.000018  -0.000050   0.002492
    10  O   -0.001333  -0.000908   0.001303  -0.011537   0.115974  -0.082441
    11  O   -0.039462  -0.041602  -0.086010   0.074273   0.084839   0.022016
    12  C    0.393428   0.389461   0.406426  -0.005710  -0.009361  -0.004367
    13  H    0.497640  -0.024562  -0.032862   0.002102  -0.002994   0.000123
    14  H   -0.024562   0.496003  -0.030375  -0.003501   0.001783  -0.000055
    15  H   -0.032862  -0.030375   0.531189   0.002058   0.001221  -0.000847
    16  H    0.002102  -0.003501   0.002058   0.279488  -0.003786  -0.022672
    17  H   -0.002994   0.001783   0.001221  -0.003786   0.267726  -0.010808
    18  Cl   0.000123  -0.000055  -0.000847  -0.022672  -0.010808  17.223480
    19  O   -0.000736  -0.000169   0.004785   0.130744  -0.012092  -0.150016
              19
     1  C    0.384233
     2  C   -0.003281
     3  H   -0.001633
     4  H    0.015541
     5  H   -0.002060
     6  C   -0.119475
     7  H   -0.001528
     8  H    0.008284
     9  H   -0.004980
    10  O   -0.145878
    11  O   -0.096300
    12  C    0.008913
    13  H   -0.000736
    14  H   -0.000169
    15  H    0.004785
    16  H    0.130744
    17  H   -0.012092
    18  Cl  -0.150016
    19  O    8.445047
 Mulliken charges:
               1
     1  C   -0.177729
     2  C   -0.350432
     3  H    0.206127
     4  H    0.227624
     5  H    0.213985
     6  C   -0.664646
     7  H    0.248657
     8  H    0.240271
     9  H    0.225948
    10  O   -0.438235
    11  O   -0.699472
    12  C   -0.369066
    13  H    0.209680
    14  H    0.212766
    15  H    0.204664
    16  H    0.534698
    17  H    0.560623
    18  Cl   0.073934
    19  O   -0.459398
 Sum of Mulliken charges =   0.00000
 Mulliken charges with hydrogens summed into heavy atoms:
               1
     1  C   -0.177729
     2  C    0.297304
     6  C    0.050231
    10  O   -0.438235
    11  O    0.395849
    12  C    0.258044
    18  Cl   0.073934
    19  O   -0.459398
 APT charges:
               1
     1  C   -0.058112
     2  C   -1.325835
     3  H    0.521470
     4  H    0.352752
     5  H    0.510709
     6  C   -1.561799
     7  H    0.593356
     8  H    0.479720
     9  H    0.486481
    10  O   -0.132616
    11  O   -0.316960
    12  C   -1.492166
    13  H    0.543327
    14  H    0.626246
    15  H    0.292534
    16  H    0.494468
    17  H    0.508000
    18  Cl  -0.023560
    19  O   -0.498014
 Sum of APT charges =   0.00000
 APT charges with hydrogens summed into heavy atoms:
               1
     1  C   -0.058112
     2  C    0.059096
     6  C   -0.002242
    10  O   -0.132616
    11  O    0.685507
    12  C   -0.030058
    18  Cl  -0.023560
    19  O   -0.498014
 Electronic spatial extent (au):  <R**2>=           1338.4801
 Charge=              0.0000 electrons
 Dipole moment (field-independent basis, Debye):
    X=             -3.0275    Y=              4.0203    Z=             -0.3087  Tot=              5.0422
 Quadrupole moment (field-independent basis, Debye-Ang):
   XX=            -47.3310   YY=            -56.7432   ZZ=            -62.1599
   XY=              2.7002   XZ=              1.1277   YZ=             -2.4421
 Traceless Quadrupole moment (field-independent basis, Debye-Ang):
   XX=              8.0804   YY=             -1.3319   ZZ=             -6.7486
   XY=              2.7002   XZ=              1.1277   YZ=             -2.4421
 Octapole moment (field-independent basis, Debye-Ang**2):
  XXX=            -27.6324  YYY=              9.4891  ZZZ=             -7.6838  XYY=             -3.3985
  XXY=              4.4585  XXZ=              6.6722  XZZ=             -5.9470  YZZ=             -0.4937
  YYZ=             -0.4103  XYZ=              3.6436
 Hexadecapole moment (field-independent basis, Debye-Ang**3):
 XXXX=           -902.6573 YYYY=           -526.1181 ZZZZ=           -249.6653 XXXY=             20.8301
 XXXZ=              2.6019 YYYX=              1.7846 YYYZ=             -5.3659 ZZZX=              1.9531
 ZZZY=             -2.6532 XXYY=           -258.4308 XXZZ=           -191.6368 YYZZ=           -123.0210
 XXYZ=             -9.8212 YYXZ=             -5.0992 ZZXY=              2.1133
 N-N= 5.231875724889D+02 E-N=-3.039838843107D+03  KE= 8.398648467296D+02
  Exact polarizability:   0.000   0.000   0.000   0.000   0.000   0.000
 Approx polarizability: 111.930  -4.014 116.834  -5.438   7.421 108.830
 Calling FoFJK, ICntrl=    100147 FMM=F ISym2X=0 I1Cent= 0 IOpClX= 0 NMat=1 NMatS=1 NMatT=0.
 ***** Axes restored to original set *****
 -------------------------------------------------------------------
 Center     Atomic                   Forces (Hartrees/Bohr)
 Number     Number              X              Y              Z
 -------------------------------------------------------------------
      1        6          -0.030015605   -0.011086431   -0.005131246
      2        6           0.008154000   -0.006961175   -0.004195541
      3        1           0.000223862    0.003225656    0.002230098
      4        1          -0.001036493    0.001550159   -0.000567799
      5        1          -0.004042803    0.002907576    0.000875926
      6        6           0.019124125    0.010574746    0.004356507
      7        1          -0.007397555    0.001139764   -0.002361195
      8        1          -0.003597825   -0.002385727    0.002807081
      9        1          -0.002870420   -0.002166369   -0.001100445
     10        8          -0.019104834    0.011337902   -0.018835422
     11        8           0.009416831    0.010832761    0.014634633
     12        6           0.003047224   -0.012658171   -0.004887253
     13        1          -0.002406712    0.001990523    0.004394072
     14        1          -0.002067100    0.004846280   -0.001343884
     15        1          -0.001345483    0.000907589    0.000311924
     16        1          -0.005986194    0.013724874   -0.035243016
     17        1           0.013966042   -0.009350857    0.018482831
     18       17           0.013950603   -0.017101410   -0.006041442
     19        8           0.011988338   -0.001327690    0.031614171
 -------------------------------------------------------------------
 Cartesian Forces:  Max     0.035243016 RMS     0.011167371
 FormGI is forming the generalized inverse of G from B-inverse, IUseBI=4.

 GradGradGradGradGradGradGradGradGradGradGradGradGradGradGradGradGradGrad
 Berny optimization.
 Internal  Forces:  Max     0.020588417 RMS     0.006286142
 Search for a saddle point.
 Step number   1 out of a maximum of   99
 All quantities printed in internal units (Hartrees-Bohrs-Radians)
 Swapping is turned off.
 Second derivative matrix not updated -- analytic derivatives used.
 ITU=  0
     Eigenvalues ---   -0.05361   0.00173   0.00236   0.00266   0.00306
     Eigenvalues ---    0.00386   0.00613   0.01211   0.02366   0.03015
     Eigenvalues ---    0.03391   0.04426   0.04597   0.05425   0.06168
     Eigenvalues ---    0.06440   0.06530   0.06579   0.06614   0.07467
     Eigenvalues ---    0.08289   0.10453   0.11328   0.12366   0.12622
     Eigenvalues ---    0.13615   0.13754   0.13888   0.14561   0.14721
     Eigenvalues ---    0.17065   0.17942   0.18603   0.18761   0.18894
     Eigenvalues ---    0.19068   0.19456   0.20929   0.32299   0.32548
     Eigenvalues ---    0.32833   0.33286   0.33425   0.33740   0.33845
     Eigenvalues ---    0.33926   0.34061   0.34149   0.35841   0.36311
     Eigenvalues ---    0.58963
 Eigenvectors required to have negative eigenvalues:
                          R12       R15       R19       R2        R14
   1                    0.58679  -0.57852  -0.38813  -0.25342   0.22972
                          A31       R4        D16       A3        A32
   1                    0.08102   0.07945   0.06528  -0.06050  -0.06003
 RFO step:  Lambda0=5.912052326D-04 Lambda=-2.39202487D-02.
 Linear search not attempted -- option 19 set.
 Maximum step size (   0.300) exceeded in Quadratic search.
    -- Step size scaled by   0.742
 Iteration  1 RMS(Cart)=  0.03430109 RMS(Int)=  0.00200483
 Iteration  2 RMS(Cart)=  0.00242269 RMS(Int)=  0.00064943
 Iteration  3 RMS(Cart)=  0.00000632 RMS(Int)=  0.00064941
 Iteration  4 RMS(Cart)=  0.00000001 RMS(Int)=  0.00064941
 Variable       Old X    -DE/DX   Delta X   Delta X   Delta X     New X
                                 (Linear)    (Quad)   (Total)
    R1        2.82221   0.00871   0.00000   0.02548   0.02548   2.84769
    R2        3.03373   0.01285   0.00000   0.02777   0.02795   3.06168
    R3        3.52364   0.02059   0.00000   0.07833   0.07833   3.60197
    R4        2.38880   0.00422   0.00000  -0.00143  -0.00106   2.38774
    R5        2.06774  -0.00116   0.00000  -0.00042  -0.00042   2.06732
    R6        2.06929   0.00006   0.00000   0.00255   0.00255   2.07184
    R7        2.07027  -0.00172   0.00000  -0.00231  -0.00231   2.06796
    R8        2.73870  -0.00045   0.00000  -0.01609  -0.01609   2.72261
    R9        2.08721  -0.00688   0.00000  -0.01553  -0.01553   2.07168
   R10        2.07925  -0.00453   0.00000  -0.01044  -0.01044   2.06881
   R11        2.07635  -0.00187   0.00000  -0.00447  -0.00447   2.07189
   R12        2.43927  -0.01286   0.00000   0.01840   0.01750   2.45677
   R13        2.74210   0.00005   0.00000  -0.00513  -0.00513   2.73697
   R14        2.11318  -0.02049   0.00000  -0.10302  -0.10280   2.01039
   R15        2.40149  -0.01195   0.00000  -0.16407  -0.16495   2.23654
   R16        2.07074  -0.00242   0.00000  -0.00615  -0.00615   2.06459
   R17        2.07353  -0.00296   0.00000  -0.00741  -0.00741   2.06611
   R18        2.06650   0.00076   0.00000   0.00133   0.00133   2.06783
   R19        2.85981   0.00082   0.00000   0.04118   0.04197   2.90178
    A1        1.90747  -0.00262   0.00000  -0.01060  -0.01163   1.89584
    A2        1.89804  -0.00388   0.00000  -0.01914  -0.01916   1.87888
    A3        2.15905  -0.00894   0.00000  -0.03665  -0.03633   2.12272
    A4        1.63415   0.00602   0.00000   0.02310   0.02309   1.65724
    A5        1.82590   0.00720   0.00000   0.04536   0.04632   1.87222
    A6        1.96302   0.00661   0.00000   0.01730   0.01507   1.97809
    A7        1.95507  -0.00346   0.00000  -0.02121  -0.02127   1.93380
    A8        1.92311  -0.00397   0.00000  -0.01531  -0.01565   1.90747
    A9        1.84805   0.00432   0.00000   0.01720   0.01701   1.86506
   A10        1.93983  -0.00319   0.00000  -0.01455  -0.01476   1.92507
   A11        1.92695   0.00057   0.00000   0.00866   0.00852   1.93547
   A12        1.86664   0.00656   0.00000   0.02917   0.02891   1.89555
   A13        1.92063  -0.00403   0.00000  -0.02068  -0.02086   1.89977
   A14        1.95623  -0.00172   0.00000  -0.00591  -0.00597   1.95026
   A15        1.94869  -0.00336   0.00000  -0.02363  -0.02383   1.92486
   A16        1.86478   0.00338   0.00000   0.02075   0.02073   1.88551
   A17        1.86634   0.00338   0.00000   0.01676   0.01643   1.88277
   A18        1.90312   0.00290   0.00000   0.01586   0.01577   1.91889
   A19        1.99298   0.00352   0.00000  -0.00382  -0.00310   1.98989
   A20        1.75472  -0.01114   0.00000  -0.04790  -0.04752   1.70719
   A21        1.87995   0.00624   0.00000   0.02834   0.02699   1.90695
   A22        1.89342   0.00191   0.00000   0.02650   0.02682   1.92024
   A23        1.92212   0.00617   0.00000   0.05181   0.05128   1.97340
   A24        1.65606  -0.00279   0.00000  -0.03941  -0.04026   1.61580
   A25        1.84520   0.00630   0.00000   0.01989   0.01979   1.86499
   A26        1.86189   0.00603   0.00000   0.01529   0.01519   1.87708
   A27        1.93715  -0.00031   0.00000  -0.00263  -0.00264   1.93451
   A28        1.92533  -0.00412   0.00000  -0.00760  -0.00782   1.91751
   A29        1.95318  -0.00369   0.00000  -0.01312  -0.01313   1.94006
   A30        1.93692  -0.00333   0.00000  -0.00922  -0.00922   1.92769
   A31        2.36786   0.01556   0.00000   0.10090   0.10210   2.46995
   A32        2.63774   0.00835   0.00000   0.06573   0.06458   2.70232
   A33        1.92659  -0.02037   0.00000  -0.09725  -0.09719   1.82940
    D1       -2.78837  -0.00196   0.00000  -0.01258  -0.01223  -2.80060
    D2       -0.71590  -0.00149   0.00000  -0.00405  -0.00380  -0.71970
    D3        1.42517  -0.00144   0.00000  -0.00510  -0.00491   1.42026
    D4       -1.02678   0.00216   0.00000   0.00123   0.00124  -1.02554
    D5        1.04569   0.00263   0.00000   0.00977   0.00967   1.05536
    D6       -3.09642   0.00268   0.00000   0.00871   0.00856  -3.08786
    D7        1.33585  -0.00218   0.00000  -0.03709  -0.03719   1.29866
    D8       -2.87486  -0.00171   0.00000  -0.02855  -0.02876  -2.90362
    D9       -0.73379  -0.00165   0.00000  -0.02961  -0.02986  -0.76366
   D10       -1.04352   0.00348   0.00000   0.02280   0.02318  -1.02034
   D11       -3.05088   0.00119   0.00000   0.01907   0.02008  -3.03080
   D12       -2.98628   0.00580   0.00000   0.03637   0.03715  -2.94913
   D13        1.28955   0.00351   0.00000   0.03264   0.03405   1.32360
   D14        1.30107  -0.00439   0.00000   0.00240   0.00289   1.30396
   D15       -0.70629  -0.00668   0.00000  -0.00133  -0.00021  -0.70650
   D16        3.08486  -0.00609   0.00000  -0.06284  -0.06179   3.02307
   D17        0.89001  -0.00242   0.00000  -0.06396  -0.06161   0.82840
   D18       -0.86043  -0.01486   0.00000  -0.11727  -0.11671  -0.97714
   D19       -2.90298   0.00456   0.00000   0.02380   0.02403  -2.87894
   D20       -0.97040  -0.00336   0.00000  -0.01906  -0.01904  -0.98944
   D21       -0.78329   0.00335   0.00000   0.01359   0.01363  -0.76965
   D22        1.14929  -0.00458   0.00000  -0.02927  -0.02944   1.11985
   D23        1.32938   0.00385   0.00000   0.01896   0.01901   1.34839
   D24       -3.02123  -0.00407   0.00000  -0.02390  -0.02406  -3.04529
   D25        0.22933   0.00121   0.00000   0.00285   0.00371   0.23303
   D26       -1.86155   0.00007   0.00000   0.01861   0.01964  -1.84190
   D27        2.99201  -0.00058   0.00000  -0.01153  -0.01159   2.98042
   D28       -1.24146   0.00059   0.00000  -0.00338  -0.00326  -1.24471
   D29        0.87062   0.00014   0.00000  -0.00654  -0.00651   0.86411
   D30        1.20127  -0.00086   0.00000  -0.00027  -0.00040   1.20088
   D31       -3.03219   0.00032   0.00000   0.00787   0.00794  -3.02425
   D32       -0.92012  -0.00014   0.00000   0.00472   0.00469  -0.91543
   D33       -1.80721  -0.00176   0.00000  -0.02654  -0.02708  -1.83429
   D34        0.16722   0.00424   0.00000   0.01992   0.01806   0.18528
   D35        2.00645   0.00217   0.00000   0.01104   0.01060   2.01705
   D36        0.05639  -0.00019   0.00000  -0.01332  -0.01260   0.04379
   D37       -0.76184  -0.00083   0.00000   0.02919   0.02771  -0.73412
         Item               Value     Threshold  Converged?
 Maximum Force            0.020588     0.000450     NO 
 RMS     Force            0.006286     0.000300     NO 
 Maximum Displacement     0.121388     0.001800     NO 
 RMS     Displacement     0.034249     0.001200     NO 
 Predicted change in Energy=-1.229459D-02
 GradGradGradGradGradGradGradGradGradGradGradGradGradGradGradGradGradGrad

                          Input orientation:                          
 ---------------------------------------------------------------------
 Center     Atomic      Atomic             Coordinates (Angstroms)
 Number     Number       Type             X           Y           Z
 ---------------------------------------------------------------------
      1          6           0        0.872104    0.101823    0.422328
      2          6           0       -0.384322    2.085663   -0.619894
      3          1           0       -1.172168    2.293286   -1.349948
      4          1           0       -0.744067    2.259385    0.401102
      5          1           0        0.480822    2.721676   -0.830939
      6          6           0        2.114822    0.937440    0.590357
      7          1           0        2.858241    0.357990    1.150186
      8          1           0        2.554049    1.209622   -0.374791
      9          1           0        1.889419    1.842199    1.167146
     10          8           0        0.001575    0.709498   -0.801545
     11          8           0       -1.742820   -0.823489   -0.106481
     12          6           0       -3.040019   -0.275194    0.231668
     13          1           0       -3.577725   -0.130772   -0.708356
     14          1           0       -3.559931   -1.014135    0.847339
     15          1           0       -2.934053    0.668655    0.775082
     16          1           0       -1.117185   -0.836066    0.753869
     17          1           0       -1.044841   -0.050442   -0.668581
     18         17           0        1.366637   -1.490101   -0.501989
     19          8           0        0.076938   -0.103460    1.382587
 ---------------------------------------------------------------------
                    Distance matrix (angstroms):
                    1          2          3          4          5
     1  C    0.000000
     2  C    2.569135   0.000000
     3  H    3.481741   1.093977   0.000000
     4  H    2.695836   1.096371   1.802941   0.000000
     5  H    2.930428   1.094316   1.784731   1.797774   0.000000
     6  C    1.506930   3.004803   4.050605   3.155408   2.805981
     7  H    2.130761   4.078266   5.122522   4.141624   3.894096
     8  H    2.166001   3.075963   4.001244   3.547053   2.606271
     9  H    2.149091   2.902186   3.989054   2.774187   2.598070
    10  O    1.620171   1.440744   2.046168   2.098688   2.068671
    11  O    2.823768   3.251504   3.403842   3.280131   4.247072
    12  C    3.934869   3.653974   3.547882   3.424061   4.744121
    13  H    4.597121   3.888217   3.474824   3.869543   4.962186
    14  H    4.590090   4.673972   4.633413   4.340985   5.753311
    15  H    3.864268   3.233419   3.203033   2.732457   4.295995
    16  H    2.224146   3.310712   3.771196   3.137751   4.209842
    17  H    2.210870   2.236426   2.444082   2.563199   3.168383
    18  Cl   1.906081   3.983195   4.634498   4.396508   4.316473
    19  O    1.263537   3.002491   3.843358   2.687079   3.611677
                    6          7          8          9         10
     6  C    0.000000
     7  H    1.096286   0.000000
     8  H    1.094767   1.772954   0.000000
     9  H    1.096394   1.772506   1.794285   0.000000
    10  O    2.540700   3.477549   2.635786   2.953423   0.000000
    11  O    4.297424   4.913743   4.761157   4.682006   2.424062
    12  C    5.307685   6.002838   5.819456   5.445900   3.359828
    13  H    5.935724   6.716750   6.285426   6.107355   3.677788
    14  H    6.006455   6.570189   6.619626   6.160872   4.286497
    15  H    5.059398   5.812735   5.633305   4.979639   3.332467
    16  H    3.690248   4.169754   4.351629   4.047662   2.461647
    17  H    3.541794   4.325365   3.824407   3.944853   1.300068
    18  Cl   2.765132   2.893097   2.952055   3.763447   2.606024
    19  O    2.421585   2.828885   3.308873   2.667788   2.331740
                   11         12         13         14         15
    11  O    0.000000
    12  C    1.448343   0.000000
    13  H    2.051582   1.092535   0.000000
    14  H    2.061070   1.093341   1.789088   0.000000
    15  H    2.103017   1.094247   1.803880   1.796865   0.000000
    16  H    1.063852   2.069919   2.947847   2.451011   2.359162
    17  H    1.183525   2.200385   2.534469   3.090695   2.484026
    18  Cl   3.204609   4.629564   5.131966   5.130136   4.978661
    19  O    2.459123   3.327090   4.210624   3.787167   3.167222
                   16         17         18         19
    16  H    0.000000
    17  H    1.626593   0.000000
    18  Cl   2.859075   2.813467   0.000000
    19  O    1.535554   2.338480   2.671651   0.000000
 Stoichiometry    C4H11ClO3
 Framework group  C1[X(C4H11ClO3)]
 Deg. of freedom    51
 Full point group                 C1      NOp   1
 Largest Abelian subgroup         C1      NOp   1
 Largest concise Abelian subgroup C1      NOp   1
                         Standard orientation:                         
 ---------------------------------------------------------------------
 Center     Atomic      Atomic             Coordinates (Angstroms)
 Number     Number       Type             X           Y           Z
 ---------------------------------------------------------------------
      1          6           0        0.856423    0.136100    0.419660
      2          6           0       -0.459715    2.081549   -0.621236
      3          1           0       -1.253843    2.265593   -1.350807
      4          1           0       -0.823985    2.244032    0.400008
      5          1           0        0.385776    2.743389   -0.832516
      6          6           0        2.073509    1.008700    0.587322
      7          1           0        2.834335    0.451715    1.146568
      8          1           0        2.503829    1.294294   -0.377962
      9          1           0        1.821275    1.906076    1.164535
     10          8           0       -0.032657    0.717685   -0.803553
     11          8           0       -1.729737   -0.867351   -0.108098
     12          6           0       -3.042675   -0.358469    0.230914
     13          1           0       -3.584986   -0.229999   -0.708781
     14          1           0       -3.539777   -1.112927    0.846605
     15          1           0       -2.964886    0.587966    0.774591
     16          1           0       -1.103549   -0.861364    0.751921
     17          1           0       -1.055648   -0.073459   -0.670300
     18         17           0        1.398169   -1.439914   -0.505454
     19          8           0        0.068310   -0.093340    1.380264
 ---------------------------------------------------------------------
 Rotational constants (GHZ):      1.9968204      1.2115787      0.9519655
 Standard basis: 6-31+G(d) (6D, 7F)
 There are   178 symmetry adapted cartesian basis functions of A   symmetry.
 There are   178 symmetry adapted basis functions of A   symmetry.
   178 basis functions,   324 primitive gaussians,   178 cartesian basis functions
    38 alpha electrons       38 beta electrons
       nuclear repulsion energy       520.7409586060 Hartrees.
 NAtoms=   19 NActive=   19 NUniq=   19 SFac= 1.00D+00 NAtFMM=   60 NAOKFM=F Big=F
 Integral buffers will be    131072 words long.
 Raffenetti 2 integral format.
 Two-electron integral symmetry is turned on.
 One-electron integrals computed using PRISM.
 NBasis=   178 RedAO= T EigKep=  4.16D-05  NBF=   178
 NBsUse=   178 1.00D-06 EigRej= -1.00D+00 NBFU=   178
 Initial guess from the checkpoint file:  "/lustre/SCRATCH5/gau/Gau-9649.chk"
 B after Tr=     0.000000    0.000000    0.000000
         Rot=    0.999896    0.000869    0.000134   -0.014403 Ang=   1.65 deg.
 ExpMin= 4.38D-02 ExpMax= 2.52D+04 ExpMxC= 3.78D+03 IAcc=2 IRadAn=         4 AccDes= 0.00D+00
 Harris functional with IExCor=  402 and IRadAn=       4 diagonalized for initial guess.
 HarFok:  IExCor=  402 AccDes= 0.00D+00 IRadAn=         4 IDoV= 1 UseB2=F ITyADJ=14
 ICtDFT=  3500011 ScaDFX=  1.000000  1.000000  1.000000  1.000000
 FoFCou: FMM=F IPFlag=           0 FMFlag=      100000 FMFlg1=           0
         NFxFlg=           0 DoJE=T BraDBF=F KetDBF=T FulRan=T
         wScrn=  0.000000 ICntrl=     500 IOpCl=  0 I1Cent=   200000004 NGrid=           0
         NMat0=    1 NMatS0=      1 NMatT0=    0 NMatD0=    1 NMtDS0=    0 NMtDT0=    0
 Petite list used in FoFCou.
 Requested convergence on RMS density matrix=1.00D-08 within 128 cycles.
 Requested convergence on MAX density matrix=1.00D-06.
 Requested convergence on             energy=1.00D-06.
 No special actions if energy rises.
 SCF Done:  E(RB3LYP) =  -844.876243555     A.U. after   12 cycles
            NFock= 12  Conv=0.44D-08     -V/T= 2.0059
 Calling FoFJK, ICntrl=      2127 FMM=F ISym2X=0 I1Cent= 0 IOpClX= 0 NMat=1 NMatS=1 NMatT=0.
 ***** Axes restored to original set *****
 -------------------------------------------------------------------
 Center     Atomic                   Forces (Hartrees/Bohr)
 Number     Number              X              Y              Z
 -------------------------------------------------------------------
      1        6          -0.012823045   -0.002309896   -0.000104519
      2        6           0.003919822   -0.002816903   -0.001380407
      3        1          -0.000026653    0.001247502    0.000795723
      4        1          -0.000568272    0.000706656   -0.000230667
      5        1          -0.001411518    0.001193478    0.000425727
      6        6           0.006747239    0.004072323    0.001180860
      7        1          -0.002577753    0.000312330   -0.000207430
      8        1          -0.001029212   -0.000996734    0.000796361
      9        1          -0.001172260   -0.000594186   -0.000593799
     10        8          -0.006988809    0.005015005   -0.008600484
     11        8          -0.001183627    0.002318975    0.004091561
     12        6           0.001085756   -0.004804805   -0.001806637
     13        1          -0.000793785    0.000780575    0.001417789
     14        1          -0.000751048    0.001591533   -0.000340564
     15        1          -0.000521508    0.000268736    0.000089157
     16        1          -0.001729590    0.006280641   -0.010255669
     17        1           0.006487073   -0.002598029    0.005644037
     18       17           0.006272716   -0.006984848   -0.002641786
     19        8           0.007064474   -0.002682354    0.011720747
 -------------------------------------------------------------------
 Cartesian Forces:  Max     0.012823045 RMS     0.004189424

 GradGradGradGradGradGradGradGradGradGradGradGradGradGradGradGradGradGrad
 Berny optimization.
 FormGI is forming the generalized inverse of G from B-inverse, IUseBI=4.
 Internal  Forces:  Max     0.008741513 RMS     0.002302428
 Search for a saddle point.
 Step number   2 out of a maximum of   99
 All quantities printed in internal units (Hartrees-Bohrs-Radians)
 Swapping is turned off.
 Update second derivatives using D2CorX and points    1    2
 ITU=  0  0
     Eigenvalues ---   -0.05236   0.00174   0.00249   0.00259   0.00330
     Eigenvalues ---    0.00402   0.00744   0.01279   0.02418   0.03070
     Eigenvalues ---    0.03370   0.04425   0.04597   0.05463   0.06155
     Eigenvalues ---    0.06439   0.06534   0.06577   0.06613   0.07488
     Eigenvalues ---    0.08523   0.10410   0.11381   0.12353   0.12661
     Eigenvalues ---    0.13604   0.13848   0.13904   0.14493   0.14711
     Eigenvalues ---    0.17140   0.17922   0.18618   0.18794   0.18916
     Eigenvalues ---    0.19063   0.19699   0.21227   0.32295   0.32549
     Eigenvalues ---    0.32826   0.33286   0.33421   0.33740   0.33845
     Eigenvalues ---    0.33927   0.34062   0.34149   0.35840   0.36310
     Eigenvalues ---    0.58959
 Eigenvectors required to have negative eigenvalues:
                          R12       R15       R19       R14       R2
   1                    0.58472  -0.55351  -0.41199   0.25233  -0.25186
                          A31       R4        D16       A32       A3
   1                    0.08037   0.07989   0.07101  -0.06886  -0.06285
 RFO step:  Lambda0=2.016734049D-04 Lambda=-4.58128294D-03.
 Linear search not attempted -- option 19 set.
 Iteration  1 RMS(Cart)=  0.03836881 RMS(Int)=  0.00223076
 Iteration  2 RMS(Cart)=  0.00303160 RMS(Int)=  0.00077447
 Iteration  3 RMS(Cart)=  0.00001350 RMS(Int)=  0.00077442
 Iteration  4 RMS(Cart)=  0.00000002 RMS(Int)=  0.00077442
 Variable       Old X    -DE/DX   Delta X   Delta X   Delta X     New X
                                 (Linear)    (Quad)   (Total)
    R1        2.84769   0.00331   0.00000   0.01438   0.01438   2.86207
    R2        3.06168   0.00600   0.00000   0.02066   0.02023   3.08191
    R3        3.60197   0.00874   0.00000   0.04586   0.04586   3.64784
    R4        2.38774   0.00157   0.00000   0.00114   0.00084   2.38858
    R5        2.06732  -0.00027   0.00000   0.00034   0.00034   2.06765
    R6        2.07184   0.00009   0.00000   0.00182   0.00182   2.07366
    R7        2.06796  -0.00051   0.00000  -0.00162  -0.00162   2.06634
    R8        2.72261  -0.00024   0.00000  -0.00830  -0.00830   2.71431
    R9        2.07168  -0.00202   0.00000  -0.00659  -0.00659   2.06509
   R10        2.06881  -0.00136   0.00000  -0.00532  -0.00532   2.06349
   R11        2.07189  -0.00056   0.00000  -0.00195  -0.00195   2.06993
   R12        2.45677  -0.00328   0.00000  -0.00039  -0.00061   2.45616
   R13        2.73697  -0.00010   0.00000  -0.01004  -0.01004   2.72693
   R14        2.01039  -0.00396   0.00000  -0.00109  -0.00052   2.00987
   R15        2.23654  -0.00134   0.00000  -0.05021  -0.05020   2.18634
   R16        2.06459  -0.00073   0.00000  -0.00194  -0.00194   2.06265
   R17        2.06611  -0.00091   0.00000  -0.00272  -0.00272   2.06339
   R18        2.06783   0.00022   0.00000   0.00205   0.00205   2.06988
   R19        2.90178   0.00186   0.00000  -0.05902  -0.05851   2.84326
    A1        1.89584  -0.00178   0.00000  -0.01057  -0.01053   1.88530
    A2        1.87888  -0.00173   0.00000  -0.01195  -0.01231   1.86657
    A3        2.12272  -0.00326   0.00000  -0.02695  -0.02567   2.09706
    A4        1.65724   0.00252   0.00000   0.01911   0.01964   1.67688
    A5        1.87222   0.00360   0.00000   0.03816   0.03692   1.90914
    A6        1.97809   0.00205   0.00000   0.00422   0.00261   1.98070
    A7        1.93380  -0.00145   0.00000  -0.01626  -0.01627   1.91753
    A8        1.90747  -0.00151   0.00000  -0.00814  -0.00825   1.89922
    A9        1.86506   0.00154   0.00000   0.00865   0.00859   1.87365
   A10        1.92507  -0.00127   0.00000  -0.00763  -0.00773   1.91734
   A11        1.93547   0.00037   0.00000   0.00712   0.00706   1.94253
   A12        1.89555   0.00245   0.00000   0.01720   0.01710   1.91265
   A13        1.89977  -0.00158   0.00000  -0.01690  -0.01699   1.88278
   A14        1.95026  -0.00056   0.00000  -0.00190  -0.00190   1.94836
   A15        1.92486  -0.00140   0.00000  -0.01341  -0.01351   1.91135
   A16        1.88551   0.00134   0.00000   0.01614   0.01614   1.90165
   A17        1.88277   0.00122   0.00000   0.00689   0.00670   1.88947
   A18        1.91889   0.00108   0.00000   0.00983   0.00981   1.92871
   A19        1.98989   0.00078   0.00000  -0.00466  -0.00492   1.98497
   A20        1.70719  -0.00396   0.00000  -0.01568  -0.01583   1.69136
   A21        1.90695   0.00227   0.00000   0.01134   0.01050   1.91745
   A22        1.92024   0.00124   0.00000   0.03471   0.03595   1.95619
   A23        1.97340   0.00281   0.00000   0.04698   0.04619   2.01960
   A24        1.61580  -0.00174   0.00000  -0.04845  -0.04898   1.56682
   A25        1.86499   0.00207   0.00000   0.01334   0.01328   1.87827
   A26        1.87708   0.00199   0.00000   0.00898   0.00892   1.88600
   A27        1.93451  -0.00007   0.00000   0.00358   0.00356   1.93807
   A28        1.91751  -0.00133   0.00000  -0.00396  -0.00406   1.91345
   A29        1.94006  -0.00131   0.00000  -0.01253  -0.01255   1.92751
   A30        1.92769  -0.00115   0.00000  -0.00808  -0.00810   1.91960
   A31        2.46995   0.00592   0.00000   0.10239   0.10306   2.57302
   A32        2.70232   0.00284   0.00000   0.02528   0.02430   2.72662
   A33        1.82940  -0.00694   0.00000  -0.02934  -0.03283   1.79658
    D1       -2.80060  -0.00078   0.00000  -0.05960  -0.05997  -2.86058
    D2       -0.71970  -0.00049   0.00000  -0.05171  -0.05214  -0.77184
    D3        1.42026  -0.00049   0.00000  -0.04996  -0.05044   1.36982
    D4       -1.02554   0.00064   0.00000  -0.04715  -0.04701  -1.07255
    D5        1.05536   0.00093   0.00000  -0.03925  -0.03917   1.01619
    D6       -3.08786   0.00093   0.00000  -0.03751  -0.03748  -3.12534
    D7        1.29866  -0.00147   0.00000  -0.08158  -0.08118   1.21748
    D8       -2.90362  -0.00118   0.00000  -0.07369  -0.07335  -2.97697
    D9       -0.76366  -0.00118   0.00000  -0.07194  -0.07165  -0.83531
   D10       -1.02034   0.00159   0.00000   0.04789   0.04803  -0.97231
   D11       -3.03080   0.00089   0.00000   0.04523   0.04641  -2.98439
   D12       -2.94913   0.00286   0.00000   0.05559   0.05603  -2.89310
   D13        1.32360   0.00216   0.00000   0.05293   0.05441   1.37801
   D14        1.30396  -0.00123   0.00000   0.03404   0.03472   1.33867
   D15       -0.70650  -0.00192   0.00000   0.03138   0.03309  -0.67341
   D16        3.02307  -0.00282   0.00000  -0.08900  -0.08786   2.93521
   D17        0.82840  -0.00110   0.00000  -0.08905  -0.08723   0.74118
   D18       -0.97714  -0.00677   0.00000  -0.13293  -0.13136  -1.10850
   D19       -2.87894   0.00178   0.00000   0.00058   0.00105  -2.87789
   D20       -0.98944  -0.00129   0.00000  -0.01415  -0.01454  -1.00398
   D21       -0.76965   0.00119   0.00000  -0.00967  -0.00928  -0.77893
   D22        1.11985  -0.00188   0.00000  -0.02441  -0.02488   1.09497
   D23        1.34839   0.00144   0.00000  -0.00346  -0.00303   1.34536
   D24       -3.04529  -0.00162   0.00000  -0.01819  -0.01863  -3.06392
   D25        0.23303   0.00035   0.00000   0.01800   0.01679   0.24983
   D26       -1.84190   0.00057   0.00000   0.02667   0.02622  -1.81568
   D27        2.98042  -0.00041   0.00000  -0.01617  -0.01583   2.96458
   D28       -1.24471   0.00013   0.00000  -0.00929  -0.00888  -1.25360
   D29        0.86411  -0.00007   0.00000  -0.01138  -0.01101   0.85310
   D30        1.20088  -0.00029   0.00000   0.00154   0.00114   1.20201
   D31       -3.02425   0.00024   0.00000   0.00842   0.00808  -3.01617
   D32       -0.91543   0.00005   0.00000   0.00633   0.00596  -0.90947
   D33       -1.83429  -0.00124   0.00000  -0.08841  -0.08895  -1.92324
   D34        0.18528   0.00135   0.00000  -0.05012  -0.05225   0.13302
   D35        2.01705   0.00086   0.00000   0.01911   0.01735   2.03440
   D36        0.04379  -0.00032   0.00000  -0.00691  -0.00850   0.03529
   D37       -0.73412   0.00006   0.00000   0.11215   0.11205  -0.62208
         Item               Value     Threshold  Converged?
 Maximum Force            0.008742     0.000450     NO 
 RMS     Force            0.002302     0.000300     NO 
 Maximum Displacement     0.136057     0.001800     NO 
 RMS     Displacement     0.038889     0.001200     NO 
 Predicted change in Energy=-2.493097D-03
 GradGradGradGradGradGradGradGradGradGradGradGradGradGradGradGradGradGrad

                          Input orientation:                          
 ---------------------------------------------------------------------
 Center     Atomic      Atomic             Coordinates (Angstroms)
 Number     Number       Type             X           Y           Z
 ---------------------------------------------------------------------
      1          6           0        0.874718    0.076973    0.407156
      2          6           0       -0.359081    2.082467   -0.624359
      3          1           0       -1.154553    2.317114   -1.338040
      4          1           0       -0.709666    2.267347    0.398897
      5          1           0        0.506397    2.714876   -0.840378
      6          6           0        2.103797    0.942940    0.589638
      7          1           0        2.824012    0.380999    1.189410
      8          1           0        2.562203    1.198167   -0.368004
      9          1           0        1.833348    1.850762    1.139669
     10          8           0       -0.006729    0.702961   -0.813890
     11          8           0       -1.752447   -0.786504   -0.096881
     12          6           0       -3.062192   -0.281369    0.237402
     13          1           0       -3.614930   -0.153738   -0.695112
     14          1           0       -3.562450   -1.024561    0.861626
     15          1           0       -2.991328    0.671188    0.773470
     16          1           0       -1.094312   -0.775098    0.738536
     17          1           0       -1.055458   -0.047178   -0.650198
     18         17           0        1.438635   -1.507994   -0.539487
     19          8           0        0.117514   -0.165776    1.389684
 ---------------------------------------------------------------------
                    Distance matrix (angstroms):
                    1          2          3          4          5
     1  C    0.000000
     2  C    2.570659   0.000000
     3  H    3.490256   1.094156   0.000000
     4  H    2.703346   1.097336   1.793699   0.000000
     5  H    2.941179   1.093461   1.778943   1.793013   0.000000
     6  C    1.514540   2.972890   4.027548   3.115448   2.781437
     7  H    2.122286   4.039409   5.095638   4.082903   3.865017
     8  H    2.169229   3.062940   4.000912   3.526530   2.598054
     9  H    2.145198   2.823514   3.909487   2.681270   2.535366
    10  O    1.630878   1.436353   2.048835   2.100542   2.076487
    11  O    2.810987   3.232754   3.395644   3.264842   4.232591
    12  C    3.956828   3.692853   3.587927   3.472235   4.782669
    13  H    4.628733   3.950465   3.545691   3.936886   5.023483
    14  H    4.594385   4.703546   4.669399   4.380542   5.782363
    15  H    3.928560   3.297629   3.246735   2.809628   4.360647
    16  H    2.170926   3.250189   3.725262   3.085414   4.151525
    17  H    2.204312   2.240758   2.464310   2.564605   3.178758
    18  Cl   1.930352   4.016266   4.689751   4.443981   4.335001
    19  O    1.263980   3.055832   3.901715   2.754265   3.663682
                    6          7          8          9         10
     6  C    0.000000
     7  H    1.092800   0.000000
     8  H    1.091950   1.778157   0.000000
     9  H    1.095362   1.773158   1.797272   0.000000
    10  O    2.545938   3.482809   2.653951   2.918856   0.000000
    11  O    4.281694   4.895057   4.756957   4.619758   2.404193
    12  C    5.320756   5.999370   5.847167   5.415384   3.377866
    13  H    5.962980   6.730330   6.331795   6.088364   3.710413
    14  H    6.004281   6.547513   6.630526   6.120411   4.293581
    15  H    5.105677   5.837413   5.694065   4.980261   3.380614
    16  H    3.633419   4.110123   4.299804   3.953131   2.403648
    17  H    3.535311   4.314832   3.836403   3.892429   1.299745
    18  Cl   2.779288   2.911468   2.935152   3.775792   2.655691
    19  O    2.411357   2.768429   3.305497   2.659515   2.371894
                   11         12         13         14         15
    11  O    0.000000
    12  C    1.443030   0.000000
    13  H    2.055995   1.091508   0.000000
    14  H    2.061920   1.091901   1.784522   0.000000
    15  H    2.101714   1.095334   1.796139   1.791512   0.000000
    16  H    1.063576   2.089845   2.965628   2.483764   2.385714
    17  H    1.156960   2.206730   2.562083   3.086405   2.508081
    18  Cl   3.301432   4.729229   5.234191   5.216097   5.108548
    19  O    2.468184   3.384028   4.275238   3.815559   3.277976
                   16         17         18         19
    16  H    0.000000
    17  H    1.568426   0.000000
    18  Cl   2.930239   2.892532   0.000000
    19  O    1.504590   2.356066   2.696036   0.000000
 Stoichiometry    C4H11ClO3
 Framework group  C1[X(C4H11ClO3)]
 Deg. of freedom    51
 Full point group                 C1      NOp   1
 Largest Abelian subgroup         C1      NOp   1
 Largest concise Abelian subgroup C1      NOp   1
                         Standard orientation:                         
 ---------------------------------------------------------------------
 Center     Atomic      Atomic             Coordinates (Angstroms)
 Number     Number       Type             X           Y           Z
 ---------------------------------------------------------------------
      1          6           0        0.835569    0.139080    0.421077
      2          6           0       -0.492091    2.075394   -0.625964
      3          1           0       -1.292002    2.266831   -1.347540
      4          1           0       -0.861581    2.243125    0.393589
      5          1           0        0.340964    2.752099   -0.835120
      6          6           0        2.015660    1.068731    0.613346
      7          1           0        2.758698    0.546326    1.220966
      8          1           0        2.469068    1.346264   -0.340463
      9          1           0        1.692683    1.961905    1.159004
     10          8           0       -0.065954    0.716035   -0.809428
     11          8           0       -1.737700   -0.862060   -0.105847
     12          6           0       -3.075286   -0.425971    0.215130
     13          1           0       -3.625114   -0.328971   -0.722778
     14          1           0       -3.541686   -1.193494    0.836119
     15          1           0       -3.059656    0.529798    0.749936
     16          1           0       -1.089014   -0.814820    0.735680
     17          1           0       -1.075318   -0.087948   -0.654080
     18         17           0        1.490935   -1.415472   -0.517071
     19          8           0        0.082899   -0.141663    1.396944
 ---------------------------------------------------------------------
 Rotational constants (GHZ):      1.9837593      1.1802415      0.9355973
 Standard basis: 6-31+G(d) (6D, 7F)
 There are   178 symmetry adapted cartesian basis functions of A   symmetry.
 There are   178 symmetry adapted basis functions of A   symmetry.
   178 basis functions,   324 primitive gaussians,   178 cartesian basis functions
    38 alpha electrons       38 beta electrons
       nuclear repulsion energy       517.8471363581 Hartrees.
 NAtoms=   19 NActive=   19 NUniq=   19 SFac= 1.00D+00 NAtFMM=   60 NAOKFM=F Big=F
 Integral buffers will be    131072 words long.
 Raffenetti 2 integral format.
 Two-electron integral symmetry is turned on.
 One-electron integrals computed using PRISM.
 NBasis=   178 RedAO= T EigKep=  4.38D-05  NBF=   178
 NBsUse=   178 1.00D-06 EigRej= -1.00D+00 NBFU=   178
 Initial guess from the checkpoint file:  "/lustre/SCRATCH5/gau/Gau-9649.chk"
 B after Tr=     0.000000    0.000000    0.000000
         Rot=    0.999914   -0.003030    0.003219   -0.012316 Ang=  -1.50 deg.
 ExpMin= 4.38D-02 ExpMax= 2.52D+04 ExpMxC= 3.78D+03 IAcc=2 IRadAn=         4 AccDes= 0.00D+00
 Harris functional with IExCor=  402 and IRadAn=       4 diagonalized for initial guess.
 HarFok:  IExCor=  402 AccDes= 0.00D+00 IRadAn=         4 IDoV= 1 UseB2=F ITyADJ=14
 ICtDFT=  3500011 ScaDFX=  1.000000  1.000000  1.000000  1.000000
 FoFCou: FMM=F IPFlag=           0 FMFlag=      100000 FMFlg1=           0
         NFxFlg=           0 DoJE=T BraDBF=F KetDBF=T FulRan=T
         wScrn=  0.000000 ICntrl=     500 IOpCl=  0 I1Cent=   200000004 NGrid=           0
         NMat0=    1 NMatS0=      1 NMatT0=    0 NMatD0=    1 NMtDS0=    0 NMtDT0=    0
 Petite list used in FoFCou.
 Requested convergence on RMS density matrix=1.00D-08 within 128 cycles.
 Requested convergence on MAX density matrix=1.00D-06.
 Requested convergence on             energy=1.00D-06.
 No special actions if energy rises.
 SCF Done:  E(RB3LYP) =  -844.878622343     A.U. after   12 cycles
            NFock= 12  Conv=0.23D-08     -V/T= 2.0059
 Calling FoFJK, ICntrl=      2127 FMM=F ISym2X=0 I1Cent= 0 IOpClX= 0 NMat=1 NMatS=1 NMatT=0.
 ***** Axes restored to original set *****
 -------------------------------------------------------------------
 Center     Atomic                   Forces (Hartrees/Bohr)
 Number     Number              X              Y              Z
 -------------------------------------------------------------------
      1        6           0.000247319    0.000641869    0.000411577
      2        6           0.000390377    0.000367051   -0.000151711
      3        1           0.000036313    0.000005809   -0.000051532
      4        1          -0.000014407    0.000019173   -0.000051244
      5        1          -0.000012305    0.000066925    0.000050632
      6        6           0.000046938    0.000281051    0.000240773
      7        1          -0.000039133    0.000106490    0.000301023
      8        1           0.000251164   -0.000221559    0.000002729
      9        1           0.000006555    0.000146629   -0.000280100
     10        8          -0.001259975    0.000607587   -0.001510824
     11        8           0.000411638   -0.001223560    0.002491242
     12        6          -0.000070778   -0.000147125    0.000207728
     13        1           0.000010879    0.000000421   -0.000040440
     14        1          -0.000080432    0.000035020   -0.000010740
     15        1           0.000027000   -0.000086685    0.000025428
     16        1          -0.002731349    0.000792303   -0.000128866
     17        1           0.001519101    0.001406168   -0.001471944
     18       17           0.001244926   -0.000939067   -0.000900614
     19        8           0.000016168   -0.001858499    0.000866884
 -------------------------------------------------------------------
 Cartesian Forces:  Max     0.002731349 RMS     0.000790592

 GradGradGradGradGradGradGradGradGradGradGradGradGradGradGradGradGradGrad
 Berny optimization.
 FormGI is forming the generalized inverse of G from B-inverse, IUseBI=4.
 Internal  Forces:  Max     0.002919343 RMS     0.000539473
 Search for a saddle point.
 Step number   3 out of a maximum of   99
 All quantities printed in internal units (Hartrees-Bohrs-Radians)
 Swapping is turned off.
 Update second derivatives using D2CorX and points    2    3
 ITU=  0  0  0
     Eigenvalues ---   -0.05059   0.00177   0.00244   0.00250   0.00329
     Eigenvalues ---    0.00434   0.00732   0.01184   0.02380   0.03044
     Eigenvalues ---    0.03343   0.04424   0.04597   0.05466   0.06134
     Eigenvalues ---    0.06439   0.06540   0.06577   0.06611   0.07486
     Eigenvalues ---    0.08730   0.10361   0.11416   0.12337   0.12689
     Eigenvalues ---    0.13586   0.13876   0.13953   0.14425   0.14713
     Eigenvalues ---    0.17066   0.17891   0.18602   0.18788   0.18905
     Eigenvalues ---    0.19056   0.19662   0.21187   0.32292   0.32549
     Eigenvalues ---    0.32820   0.33286   0.33418   0.33739   0.33845
     Eigenvalues ---    0.33927   0.34062   0.34149   0.35840   0.36309
     Eigenvalues ---    0.58942
 Eigenvectors required to have negative eigenvalues:
                          R12       R15       R19       R2        R14
   1                    0.59641  -0.54890  -0.39830  -0.25445   0.24839
                          D16       R4        A32       D5        D4
   1                    0.09078   0.07945  -0.07010   0.06559   0.06201
 RFO step:  Lambda0=1.069564070D-04 Lambda=-5.92183046D-04.
 Linear search not attempted -- option 19 set.
 Iteration  1 RMS(Cart)=  0.04218675 RMS(Int)=  0.00165556
 Iteration  2 RMS(Cart)=  0.00210406 RMS(Int)=  0.00025131
 Iteration  3 RMS(Cart)=  0.00000402 RMS(Int)=  0.00025129
 Iteration  4 RMS(Cart)=  0.00000000 RMS(Int)=  0.00025129
 Variable       Old X    -DE/DX   Delta X   Delta X   Delta X     New X
                                 (Linear)    (Quad)   (Total)
    R1        2.86207   0.00045   0.00000   0.00050   0.00050   2.86257
    R2        3.08191   0.00163   0.00000   0.00146   0.00136   3.08327
    R3        3.64784   0.00157   0.00000   0.00483   0.00483   3.65266
    R4        2.38858   0.00164   0.00000   0.00709   0.00706   2.39564
    R5        2.06765   0.00002   0.00000   0.00015   0.00015   2.06781
[...]
 4,0.00949319,0.07467838,0.00986595,-0.00470271,-0.02215858,0.08001159,
 -0.00021782,0.00211502,-0.00614185,0.00973846,-0.05586547,-0.03076345,
 -0.00334112,0.00249835,0.00527418,-0.01705275,0.06841700,-0.00238478,0
 .00207657,-0.00273667,0.07693446,-0.03598027,-0.27606086,0.00775549,-0
 .00218982,-0.01783995,-0.08537756,0.04620626,0.29519211,-0.00013949,0.
 00053437,-0.00085714,-0.23775293,-0.12004740,0.04677079,-0.01761536,-0
 .01128389,0.00577768,-0.00688158,-0.00423177,0.00060549,0.24899106,-0.
 00385333,0.00089233,-0.00290799,-0.11226015,-0.11762434,0.02925214,0.0
 0489357,0.00568343,-0.00206385,0.00382950,0.00539768,-0.00003265,0.126
 39343,0.14401586,0.00162648,0.00091827,-0.00029548,0.04693951,0.029559
 68,-0.06525953,-0.01892628,-0.01233428,0.00592876,0.02610642,0.0160136
 2,-0.00449576,-0.04873457,-0.03008815,0.06117005,-0.14482668,-0.058869
 57,-0.01614481,-0.00120709,-0.00140366,-0.00133891,-0.00000771,-0.0002
 1282,0.00003115,-0.00035764,0.00014736,0.00007704,-0.00036451,0.000004
 31,-0.00020843,0.52097426,-0.06862923,-0.11625850,-0.01391437,-0.00012
 689,0.00326267,0.00082453,0.00012152,-0.00035842,-0.00031074,0.0004080
 3,-0.00033120,-0.00029821,0.00031991,0.00000390,0.00013202,-0.04772367
 ,0.54488970,-0.01898814,-0.01308103,-0.07455092,-0.00161049,-0.0007990
 9,-0.00134557,-0.00021929,-0.00012341,-0.00018574,0.00048352,0.0005908
 7,-0.00006674,-0.00117284,0.00053232,0.00036143,-0.03041525,-0.0203201
 9,0.59753399,-0.01810694,0.01513540,-0.01596811,0.00040160,-0.00148835
 ,0.00027710,0.00007259,0.00012067,-0.00003794,0.00007427,0.00012183,0.
 00002729,0.00011631,0.00019115,0.00006441,-0.15924894,0.08704079,-0.10
 222421,0.17161756,-0.01305598,0.00892339,-0.01127029,0.00013488,-0.001
 61963,0.00032540,0.00021384,0.00041156,0.00007444,-0.00020661,0.000101
 82,0.00013140,0.00041871,0.00034988,-0.00026143,0.09018176,-0.11597975
 ,0.08326469,-0.09438445,0.12485604,-0.00422198,0.00346552,-0.00464425,
 0.00039878,-0.00061700,-0.00006143,0.00003403,0.00014044,0.00006684,-0
 .00021228,0.00001197,0.00011991,0.00022441,-0.00015952,-0.00006551,-0.
 10281496,0.08104653,-0.14106565,0.11330656,-0.08786414,0.14957286,-0.0
 1055430,-0.00276142,0.02648329,-0.00088151,-0.00015347,0.00033004,0.00
 015021,0.00015066,-0.00004898,0.00021706,-0.00003780,-0.00008857,-0.00
 024577,0.00061415,-0.00015859,-0.10412744,-0.02998177,0.10473267,0.011
 89201,0.00457476,-0.01847745,0.11186185,-0.00528266,-0.00390283,0.0197
 9908,0.00046100,0.00060216,-0.00042599,-0.00018740,-0.00012544,0.00011
 416,-0.00007438,-0.00003434,0.00008981,0.00006921,-0.00020676,0.000177
 81,-0.02875953,-0.06481436,0.05193280,-0.00834477,-0.00412214,0.012983
 16,0.03354279,0.06598925,-0.00370507,-0.00285521,0.00392757,-0.0001040
 2,0.00038302,-0.00015274,-0.00013185,-0.00010958,0.00007037,-0.0001042
 7,-0.00005205,0.00001165,-0.00013427,-0.00021699,0.00014175,0.10983697
 ,0.05665048,-0.25378467,0.00905824,0.00308011,-0.01467610,-0.11704028,
 -0.05997130,0.27183155,0.00734276,-0.02228418,-0.01201396,-0.00063648,
 0.00046537,-0.00162785,-0.00019528,0.00000852,0.00013604,-0.00067206,0
 .00019993,-0.00005358,-0.00060680,0.00014970,-0.00037841,-0.07313970,0
 .06412613,0.03981869,-0.00563321,0.01654667,0.01170904,-0.00460678,0.0
 1249521,0.00460688,0.07680086,0.00856708,-0.01750277,-0.00978553,0.000
 58938,-0.00052451,0.00034060,0.00011495,0.00038569,0.00026775,-0.00012
 708,0.00003637,0.00033022,0.00062525,0.00015792,0.00022019,0.06209614,
 -0.22873401,-0.10463671,0.00399503,-0.01255385,-0.00804114,-0.00220894
 ,0.00901431,0.00414111,-0.07066839,0.24900553,0.00232422,-0.00540273,-
 0.00446970,-0.00051465,-0.00109330,-0.00017560,0.00026145,0.00044567,0
 .00014206,-0.00028486,0.00002396,0.00026154,-0.00004578,0.00044180,-0.
 00097359,0.03869113,-0.10537598,-0.11102764,-0.00463606,0.01630260,0.0
 1065509,0.00635653,-0.02317194,-0.01074251,-0.04087519,0.11700215,0.11
 550760,-0.04565422,-0.04993471,0.03500638,-0.08701590,0.01822103,-0.00
 903400,-0.00369625,0.03218861,0.00558380,-0.00076813,0.01497160,0.0015
 5481,0.01424418,-0.02478765,-0.00572722,-0.01871241,0.01819938,-0.0231
 3847,-0.00487150,-0.00546017,-0.00225556,0.00160253,0.00118935,0.00025
 894,0.00097227,-0.00036075,-0.00030330,0.17502914,-0.02729265,-0.03927
 607,-0.02292885,0.01898222,-0.19094843,-0.02770798,0.00829020,-0.02436
 848,-0.00028551,0.00952781,-0.02349373,-0.00977640,0.00611637,-0.03887
 576,-0.00394625,-0.00474801,0.00634374,-0.00601489,-0.00212664,-0.0008
 1647,-0.00105353,0.00139967,0.00015970,0.00000677,0.00106130,0.0004880
 2,0.00102659,-0.01353133,0.38153297,0.02002988,-0.05140360,-0.01610536
 ,-0.01102412,-0.02032243,-0.08277189,-0.00408341,0.02742804,0.00641906
 ,0.00544164,-0.03308006,0.00370089,-0.00233282,0.00417020,0.00366097,-
 0.01233477,0.01020383,-0.00919149,-0.00177641,-0.00260466,0.00029559,-
 0.00098554,-0.00045836,0.00081321,0.00114988,0.00034569,-0.00003020,-0
 .00551221,0.01454196,0.16770605,0.01406708,-0.00547013,-0.01807191,-0.
 00859961,0.00918931,0.00189466,0.00065479,-0.00111629,0.00094280,0.000
 22537,-0.00123525,-0.00154502,0.00065295,-0.00373445,-0.00064679,-0.00
 227545,0.00024628,0.00239591,0.00000375,-0.00007765,-0.00014289,-0.000
 56361,-0.00070790,0.00019657,0.00033290,0.00002932,0.00008967,-0.04120
 382,-0.04898940,0.01856827,0.46938347,0.00378238,-0.01111344,0.0125694
 5,-0.00340681,0.00813722,0.00002017,0.00054131,-0.00021357,0.00034649,
 0.00066214,-0.00077789,-0.00061675,0.00030202,-0.00198098,-0.00021425,
 -0.00086771,0.00164136,-0.00199270,-0.00057204,-0.00039560,-0.00037735
 ,0.00062271,0.00007100,0.00002687,0.00018560,0.00002793,0.00016970,-0.
 05248969,-0.02203945,0.00991601,-0.01953671,0.20060143,0.00405092,0.01
 186916,-0.04493277,0.00544376,-0.00446618,0.00025702,-0.00037720,-0.00
 066147,-0.00017511,-0.00047083,0.00087317,0.00043583,-0.00033986,0.002
 39925,0.00009183,-0.00074988,-0.00304407,0.00619699,0.00104911,0.00063
 187,0.00044465,-0.00157888,-0.00108645,0.00004133,0.00003169,0.0001573
 4,-0.00015642,0.04273018,0.02144261,0.01292926,0.01999483,-0.01284790,
 0.29659949,-0.00413211,0.00061845,0.00233117,0.00094521,-0.00454295,-0
 .00019396,-0.00021777,0.00028077,-0.00037388,-0.00014566,0.00025473,0.
 00065173,-0.00013406,0.00064725,0.00011045,0.00056196,-0.00012177,-0.0
 0026177,0.00009249,0.00007558,0.00002033,0.00014670,0.00017048,-0.0000
 2741,-0.00002871,0.00011801,0.00000817,0.00919913,0.00634601,-0.001580
 62,-0.17871021,0.04127481,0.02214845,0.47541733,0.00168915,-0.00083192
 ,0.00058949,-0.00196832,0.00221482,0.00090243,0.00009408,-0.00014643,0
 .00027005,-0.00019774,-0.00047963,-0.00058582,0.00021057,-0.00089296,-
 0.00030382,-0.00022220,0.00022149,0.00007991,-0.00006318,-0.00004845,-
 0.00004437,-0.00001465,-0.00006383,0.00001322,0.00000408,-0.00006196,-
 0.00000648,-0.00773495,-0.00939421,0.00154364,0.05171642,-0.09354899,-
 0.00121135,0.05237753,0.58207060,0.00155848,0.00098610,-0.00501223,0.0
 0069471,0.00148696,0.00064203,0.00006288,0.00000914,0.00020823,-0.0002
 1670,-0.00016416,-0.00051861,0.00011333,0.00009317,-0.00021229,-0.0002
 0585,-0.00007137,0.00050510,0.00005644,-0.00001079,0.00002920,-0.00017
 515,-0.00010251,0.00007120,0.00000473,-0.00001410,-0.00002746,0.000781
 06,0.00137980,0.00103509,0.03682526,-0.00536543,-0.10229373,0.04029813
 ,-0.02304999,0.60958104,0.00094723,0.00048015,-0.00231237,-0.00018791,
 0.00044260,-0.00010963,0.00004255,-0.00017852,0.00012537,-0.00000656,-
 0.00001824,-0.00004480,0.00006322,-0.00007955,0.00003934,-0.00010487,-
 0.00005903,0.00025946,0.00002582,0.00000489,0.00001367,-0.00008464,-0.
 00005115,0.00002447,0.00001070,-0.00000215,-0.00001076,-0.00014204,-0.
 00079875,0.00079251,-0.03227717,0.00939331,-0.02786652,-0.11114659,0.0
 1321786,-0.11023051,0.13359108,-0.00033557,0.00010509,0.00040486,-0.00
 003367,-0.00006754,-0.00026300,-0.00004505,-0.00006452,0.00012292,0.00
 003064,0.00006034,0.00001291,0.00004654,0.00001257,0.00005979,0.000066
 13,-0.00001887,-0.00006022,0.00000254,0.00000221,0.00000272,0.00001750
 ,0.00002558,-0.00000357,-0.00000610,0.00000113,-0.00001012,0.00027900,
 0.00011269,0.00008044,0.01232888,-0.00162339,0.01096687,0.01337518,-0.
 05735933,0.02648660,-0.02280369,0.05460631,0.00014293,-0.00005188,0.00
 016084,-0.00009659,0.00011620,-0.00013883,-0.00001582,-0.00005454,0.00
 007933,0.00001849,0.00002213,-0.00001013,0.00002531,-0.00003334,0.0000
 4006,-0.00001023,-0.00000693,-0.00003922,-0.00000262,-0.00000572,-0.00
 000256,0.00000854,0.00000984,-0.00000859,-0.00000271,-0.00000132,-0.00
 000562,-0.00043652,-0.00029153,-0.00004822,0.00854452,-0.00298202,0.01
 494417,-0.12107169,0.03112307,-0.26090345,0.12540803,-0.03146627,0.270
 83432,0.00080027,-0.00067673,0.00107714,-0.00075182,0.00053568,0.00000
 439,0.00003025,-0.00006036,0.00008008,0.00002825,-0.00007923,-0.000064
 39,0.00005775,-0.00032684,-0.00000578,-0.00009898,0.00012169,-0.000095
 19,-0.00004905,-0.00002312,-0.00002325,0.00002618,-0.00000303,0.000003
 08,0.00001669,-0.00001101,0.00001249,-0.00314611,-0.00301331,0.0001852
 9,-0.03128878,-0.01906136,0.02561781,-0.09568960,-0.08025985,0.0592269
 8,0.01016115,0.01206936,-0.00861711,0.11599714,-0.00001937,0.00001681,
 -0.00006261,0.00023540,-0.00055971,-0.00015145,0.00000220,0.00007920,-
 0.00014864,0.00004646,0.00011976,0.00022308,-0.00010025,0.00015375,0.0
 0008953,0.00000397,-0.00002481,-0.00000216,0.00000426,0.00001089,0.000
 00771,0.00000290,-0.00000442,-0.00000265,0.00000772,0.00000421,0.00001
 510,0.00119429,0.00144871,-0.00036425,0.01165820,0.01435713,-0.0123283
 5,-0.08838307,-0.19330760,0.11258484,-0.00098213,-0.00126498,0.0004753
 2,0.08771931,0.19837542,-0.00040208,0.00020352,0.00002287,0.00016901,-
 0.00033876,-0.00019952,-0.00000510,-0.00002111,-0.00002325,0.00001803,
 0.00007950,0.00013614,-0.00002660,0.00009143,0.00009546,0.00004926,-0.
 00002919,-0.00001098,0.00001068,0.00000830,0.00000847,0.00000791,0.000
 01138,-0.00000354,-0.00000503,0.00000132,-0.00000114,0.00098591,0.0009
 5106,-0.00022085,0.00898474,0.00337008,-0.00309034,0.06484260,0.107807
 23,-0.13968657,0.01225589,0.02015654,-0.01355178,-0.07636241,-0.117272
 32,0.14400761,-0.00024790,0.00030054,0.00066461,-0.00024826,0.00042447
 ,0.00039544,0.00002998,-0.00005441,-0.00001312,-0.00012388,-0.00027367
 ,-0.00012871,0.00004923,-0.00010640,-0.00012753,0.00001181,-0.00000811
 ,-0.00000196,-0.00000138,-0.00001085,-0.00000009,-0.00000856,0.0000042
 0,-0.00000690,-0.00001830,-0.00003284,-0.00002021,-0.00077741,-0.00086
 016,-0.00018421,-0.01256679,0.03440680,0.02097711,-0.05544265,-0.03124
 458,-0.01864022,0.00050506,-0.01466413,-0.00616464,0.00066713,-0.01098
 355,-0.00849273,0.06266360,-0.00012865,-0.00005480,-0.00045184,0.00006
 690,-0.00070413,-0.00008814,-0.00004954,0.00002772,-0.00008304,-0.0001
 1123,0.00008400,0.00021196,-0.00006696,0.00010894,0.00007884,0.0000270
 5,-0.00002724,0.00000821,0.00001452,0.00000730,0.00000337,-0.00000047,
 0.00000777,-0.00000697,0.00000120,0.00002912,0.00000548,0.00134202,0.0
 0105140,-0.00029039,0.01126942,-0.00575677,-0.00573038,-0.02558567,-0.
 24665364,-0.11070387,-0.00072864,0.00628268,0.00310567,-0.00342296,-0.
 01730690,-0.01228034,0.02031388,0.26450049,-0.00011120,-0.00055986,0.0
 0114409,0.00016683,-0.00067986,-0.00016751,0.00003743,0.00014957,-0.00
 032044,0.00013000,0.00012493,0.00039005,-0.00016180,0.00014467,0.00009
 565,0.00000153,0.00006814,-0.00013612,-0.00002225,0.00000414,-0.000011
 20,0.00004927,0.00001839,-0.00001025,0.00001309,0.00001658,0.00003359,
 0.00018140,0.00101091,-0.00044144,0.00693322,-0.00652077,-0.00164039,-
 0.01495051,-0.11086478,-0.12072461,-0.00301215,-0.02443786,-0.01124492
 ,0.00117482,0.01638914,0.01168356,0.01077117,0.12590538,0.12225106,-0.
 02803849,-0.01498510,0.05555534,-0.00105712,-0.00122817,-0.00170273,-0
 .00019128,0.00135808,-0.00039428,0.00059575,-0.00001028,0.00066017,-0.
 00009443,-0.00045414,0.00017691,0.00315700,0.00245394,-0.00614923,-0.0
 0083266,-0.00038688,-0.00035563,0.00187758,0.00121904,-0.00033126,-0.0
 0021229,-0.00022313,0.00003501,-0.02230376,-0.00146437,-0.01115151,-0.
 08415153,-0.00532130,-0.02900128,-0.02709649,0.00563690,-0.01043717,0.
 00128197,-0.00059930,0.00150059,0.00077529,-0.00040624,-0.00095170,0.0
 0279645,-0.00151380,-0.00171106,0.07567411,-0.01141865,-0.00330688,0.0
 1464567,-0.00007813,-0.00156497,0.00025702,-0.00005899,0.00037287,-0.0
 0013682,-0.00002862,-0.00038069,0.00006401,0.00010067,0.00017157,-0.00
 016324,0.00023090,0.00109839,-0.00084907,-0.00025291,-0.00006409,-0.00
 010442,0.00013399,0.00054721,-0.00008332,0.00002237,-0.00002067,-0.000
 09696,-0.00378380,0.00105613,-0.00597717,-0.00185975,-0.03527823,-0.00
 828108,0.00664641,-0.00167179,0.01236384,0.00299541,-0.00119514,-0.001
 18005,-0.00112157,0.00037464,-0.00055895,0.00112017,-0.00064183,0.0005
 5174,-0.01884218,0.05390411,0.00147962,0.00074504,0.04509683,-0.001371
 04,0.00028263,-0.00076254,-0.00007319,0.00075379,-0.00024753,0.0005140
 7,-0.00023372,0.00031929,-0.00003407,-0.00074439,0.00002497,0.00254482
 ,0.00173085,-0.00642233,-0.00058002,-0.00040775,-0.00019193,0.00173984
 ,0.00125669,0.00002384,-0.00021869,-0.00016837,0.00003084,-0.01477629,
 -0.00155707,-0.00745821,-0.06476042,-0.00019682,-0.14828963,-0.0007664
 4,0.00176424,0.02129071,0.00668688,-0.00258112,-0.00084437,0.00147193,
 0.00030312,-0.00027641,0.00216182,-0.00210096,-0.00074157,0.02141516,-
 0.02768276,0.16855829,-0.01980512,0.01844189,-0.03919341,0.01844599,-0
 .01005641,-0.00066420,-0.00063703,0.00130750,-0.00118945,-0.00107452,0
 .00290925,0.00194453,-0.00062334,0.00776848,0.00089613,0.00148333,-0.0
 0267797,0.00333939,0.00111660,0.00051592,0.00061205,-0.00097640,-0.000
 28957,0.00005663,-0.00031550,0.00005661,-0.00033529,-0.00100634,0.0229
 5489,0.00431053,-0.03643849,0.01133423,-0.02047355,-0.02348005,0.00003
 050,0.00877956,0.00090625,-0.00102595,0.00032784,0.00284487,0.00011368
 ,-0.00159759,0.00268654,-0.00212956,-0.00086991,0.03769296,0.01117789,
 0.01184349,0.03998065,-0.00419894,0.02797471,-0.02973845,-0.00412950,-
 0.02188178,0.00128395,-0.00075299,0.00020490,-0.00013230,-0.00104703,0
 .00183895,0.00101173,0.00103893,0.00243765,0.00001331,0.00258685,-0.00
 423504,0.00436109,0.00142775,0.00094451,0.00085762,-0.00109653,-0.0003
 2305,-0.00000864,-0.00041693,-0.00012101,-0.00033184,0.04613655,-0.012
 56178,0.00796310,-0.00079844,-0.06641033,0.01725402,-0.00496937,0.0208
 4083,-0.01154529,0.00067892,-0.00013941,0.00079925,0.00731981,-0.00246
 959,-0.00225863,0.00255447,-0.00157770,-0.00182108,0.01828436,0.002210
 38,0.02258048,-0.04638197,0.06753102,-0.01503500,-0.01522539,0.0195597
 3,-0.00676050,0.00219947,0.00011308,0.00046040,0.00090887,0.00052135,-
 0.00026089,-0.00177398,-0.00080355,0.00029786,-0.00227177,-0.00034839,
 -0.00153342,0.00326179,-0.00354650,-0.00106723,-0.00071168,-0.00043405
 ,0.00061539,0.00029883,0.00002627,0.00020530,-0.00011723,0.00017653,-0
 .01028031,-0.00209063,-0.03264429,-0.00148233,0.01256615,-0.04131060,0
 .00884322,-0.00594877,-0.00168726,-0.00167535,0.00003415,0.00024832,-0
 .00275628,0.00032361,0.00117223,-0.00049846,0.00133559,0.00014718,-0.0
 0277696,0.02135502,-0.03088983,0.01936358,-0.01821761,0.09607111,-0.02
 166737,-0.01291857,-0.00616750,-0.00245272,-0.00140653,-0.00185083,-0.
 00026853,0.00118828,0.00021088,-0.00014127,0.00008670,0.00030684,0.000
 17653,0.00034052,-0.00016196,0.00314553,-0.00814337,-0.00481216,0.0008
 3484,-0.00052771,0.00064786,0.00071009,0.00049701,-0.00087346,-0.00043
 752,-0.00218142,-0.00095304,-0.00739350,0.02462020,-0.00172458,-0.0039
 1837,0.00018118,-0.00109205,0.00109292,0.00004424,-0.00010904,-0.00016
 630,0.00006166,-0.00004455,-0.00010833,-0.00001123,0.00008668,-0.00010
 691,0.00005844,0.00007854,0.00343891,0.00078700,0.00212234,0.00019430,
 0.00015587,0.00057648,0.03801070,-0.02621069,-0.02471520,0.01473472,0.
 00374661,0.00212824,0.00225808,0.00053372,-0.00151043,-0.00018637,-0.0
 0016330,0.00007196,-0.00020732,-0.00028731,0.00016259,-0.00010835,0.00
 874127,-0.02594251,-0.01494513,0.00043370,0.00004972,-0.00041979,0.000
 51452,-0.00102858,-0.00048967,-0.00401118,-0.00237031,-0.00142013,0.01
 482704,-0.02805608,0.00253247,0.00515509,0.00183328,0.00308389,-0.0004
 9615,0.00009837,0.00048760,0.00026987,-0.00011890,0.00000785,0.0001071
 4,-0.00000136,-0.00011097,-0.00023806,0.00014809,0.00004085,-0.0076203
 5,-0.00204475,-0.00566221,-0.00148539,-0.00316780,-0.00057911,-0.01851
 678,0.07833251,-0.01520327,0.00469433,-0.01801396,-0.00082928,0.001040
 06,0.00076773,0.00007228,0.00000020,0.00004093,-0.00040383,0.00081954,
 0.00000813,0.00000237,0.00002954,-0.00009538,0.00440863,-0.01497318,-0
 .00488970,0.00119293,-0.00038057,-0.00000369,-0.00083053,-0.00082972,0
 .00073951,-0.00192323,-0.00148103,0.00056773,-0.00230391,0.00356842,0.
 00769848,0.00333759,0.00006677,0.00389155,-0.00040636,-0.00003271,0.00
 044598,0.00028537,-0.00006156,0.00002944,-0.00003105,-0.00000735,-0.00
 006091,-0.00019082,0.00014999,-0.00006117,-0.00709729,-0.00162329,-0.0
 0550640,0.00084881,-0.00037470,-0.00159345,-0.01220747,0.02796531,0.04
 621684,-0.24509547,-0.08080192,0.14119411,0.00121805,0.00160799,0.0025
 8543,0.00058600,-0.00161363,-0.00035460,-0.00007472,-0.00193195,-0.000
 83044,0.00010705,0.00077048,-0.00088409,-0.02486245,-0.01556584,0.0380
 5936,0.00249587,0.00146641,0.00153736,-0.00643521,-0.00594789,-0.00158
 299,0.00102646,-0.00037607,0.00020046,0.03564415,0.00352597,0.00221220
 ,-0.05332646,-0.00143089,-0.06009381,0.00876816,-0.00331584,-0.0083869
 1,-0.00341896,0.00123602,0.00048626,-0.00027229,-0.00010255,0.00043252
 ,0.00013225,0.00064405,0.00130154,0.03668804,0.01422979,0.03060021,-0.
 02099468,-0.01639180,0.01376450,-0.01094300,0.02470024,0.03127906,0.27
 875722,-0.07065735,-0.11087051,0.05417729,-0.00088324,0.00444022,0.000
 64267,0.00025637,-0.00057558,0.00013698,-0.00047722,0.00062170,-0.0006
 7073,-0.00015839,0.00003275,0.00015671,-0.02127857,-0.00073656,0.02205
 470,-0.00125530,-0.00005734,0.00016224,-0.00531860,-0.00179121,-0.0005
 0159,0.00211299,0.00273885,0.00147643,0.00953417,-0.00236291,0.0357755
 4,-0.01806694,0.01246927,-0.01902095,0.00191377,-0.00098537,-0.0048505
 4,-0.00178114,0.00064348,0.00041426,0.00018639,-0.00000116,0.00018991,
 -0.00064778,0.00047549,0.00045978,0.02410291,-0.01356628,0.01191834,-0
 .01256401,-0.01109545,0.00465270,0.01568450,0.00613116,-0.01857007,0.0
 7929743,0.11448944,0.18859677,0.08594289,-0.28993920,0.00116784,-0.010
 63527,-0.00711499,-0.00081376,0.00288641,0.00081687,-0.00098688,0.0021
 6914,0.00195672,0.00002251,0.00136413,0.00013501,0.01011598,0.00442604
 ,0.00166576,0.00127209,-0.00030592,-0.00003623,-0.00093952,-0.00064566
 ,0.00168014,-0.00057667,0.00142248,0.00023490,-0.01331468,0.03172451,-
 0.05534665,-0.02205869,-0.00793771,0.00605687,0.00037840,-0.00204517,-
 0.00274238,-0.00062892,0.00055591,0.00046120,-0.00089855,-0.00007168,-
 0.00000106,-0.00050057,0.00093146,-0.00024556,-0.00728309,-0.00250018,
 -0.03371403,0.01200087,0.00830401,-0.00477789,0.02596702,-0.02698171,-
 0.03018166,-0.19152016,-0.08860367,0.41109220\\0.00000351,0.00000308,0
 .00000583,-0.00000727,-0.00000324,-0.00000688,-0.00000870,-0.00001059,
 -0.00000798,-0.00000810,-0.00000070,-0.00000788,-0.00001013,-0.0000001
 8,-0.00001132,-0.00000199,0.00001662,-0.00000407,0.00000019,0.00002090
 ,0.00000022,-0.00000346,0.00001308,-0.00000291,-0.00000721,0.00001690,
 -0.00000641,-0.00000141,-0.00000507,0.00000234,-0.00000483,-0.00000183
 ,-0.00000876,0.00000479,-0.00000987,0.00000322,0.00000365,-0.00001910,
 0.00000309,0.00000774,-0.00001224,0.00000690,-0.00000053,-0.00000918,-
 0.00000011,0.00001882,-0.00000697,0.00001720,0.00000053,-0.00001187,0.
 00000014,0.00000847,0.00000513,0.00000961,0.00000594,0.00001512,0.0000
 0777\\\@


 A MAN THINKING OR WORKING IS ALWAYS ALONE, 
 LET HIM BE WHERE HE WILL.

                                    -- THOREAU
 Job cpu time:       0 days  0 hours 14 minutes 24.8 seconds.
 File lengths (MBytes):  RWF=     77 Int=      0 D2E=      0 Chk=      4 Scr=      1
 Normal termination of Gaussian 09 at Wed Feb 11 13:35:09 2015.
