 Entering Gaussian System, Link 0=g09
 Initial command:
 /opt/gridware/applications/gaussian/g09/l1.exe "/lustre/SCRATCH5/gau/Gau-14710.inp" -scrdir="/lustre/SCRATCH5/gau/"
 Entering Link 1 = /opt/gridware/applications/gaussian/g09/l1.exe PID=     14711.
  
 Copyright (c) 1988,1990,1992,1993,1995,1998,2003,2009,2013,
            Gaussian, Inc.  All Rights Reserved.
  
 This is part of the Gaussian(R) 09 program.  It is based on
 the Gaussian(R) 03 system (copyright 2003, Gaussian, Inc.),
 the Gaussian(R) 98 system (copyright 1998, Gaussian, Inc.),
 the Gaussian(R) 94 system (copyright 1995, Gaussian, Inc.),
 the Gaussian 92(TM) system (copyright 1992, Gaussian, Inc.),
 the Gaussian 90(TM) system (copyright 1990, Gaussian, Inc.),
 the Gaussian 88(TM) system (copyright 1988, Gaussian, Inc.),
 the Gaussian 86(TM) system (copyright 1986, Carnegie Mellon
 University), and the Gaussian 82(TM) system (copyright 1983,
 Carnegie Mellon University). Gaussian is a federally registered
 trademark of Gaussian, Inc.
  
 This software contains proprietary and confidential information,
 including trade secrets, belonging to Gaussian, Inc.
  
 This software is provided under written license and may be
 used, copied, transmitted, or stored only in accord with that
 written license.
  
 The following legend is applicable only to US Government
 contracts under FAR:
  
                    RESTRICTED RIGHTS LEGEND
  
 Use, reproduction and disclosure by the US Government is
 subject to restrictions as set forth in subparagraphs (a)
 and (c) of the Commercial Computer Software - Restricted
 Rights clause in FAR 52.227-19.
  
 Gaussian, Inc.
 340 Quinnipiac St., Bldg. 40, Wallingford CT 06492
  
  
 ---------------------------------------------------------------
 Warning -- This program may not be used in any manner that
 competes with the business of Gaussian, Inc. or will provide
 assistance to any competitor of Gaussian, Inc.  The licensee
 of this program is prohibited from giving any competitor of
 Gaussian, Inc. access to this program.  By using this program,
 the user acknowledges that Gaussian, Inc. is engaged in the
 business of creating and licensing software in the field of
 computational chemistry and represents and warrants to the
 licensee that it is not a competitor of Gaussian, Inc. and that
 it will not use this program in any manner prohibited above.
 ---------------------------------------------------------------
  

 Cite this work as:
 Gaussian 09, Revision D.01,
 M. J. Frisch, G. W. Trucks, H. B. Schlegel, G. E. Scuseria, 
 M. A. Robb, J. R. Cheeseman, G. Scalmani, V. Barone, B. Mennucci, 
 G. A. Petersson, H. Nakatsuji, M. Caricato, X. Li, H. P. Hratchian, 
 A. F. Izmaylov, J. Bloino, G. Zheng, J. L. Sonnenberg, M. Hada, 
 M. Ehara, K. Toyota, R. Fukuda, J. Hasegawa, M. Ishida, T. Nakajima, 
 Y. Honda, O. Kitao, H. Nakai, T. Vreven, J. A. Montgomery, Jr., 
 J. E. Peralta, F. Ogliaro, M. Bearpark, J. J. Heyd, E. Brothers, 
 K. N. Kudin, V. N. Staroverov, T. Keith, R. Kobayashi, J. Normand, 
 K. Raghavachari, A. Rendell, J. C. Burant, S. S. Iyengar, J. Tomasi, 
 M. Cossi, N. Rega, J. M. Millam, M. Klene, J. E. Knox, J. B. Cross, 
 V. Bakken, C. Adamo, J. Jaramillo, R. Gomperts, R. E. Stratmann, 
 O. Yazyev, A. J. Austin, R. Cammi, C. Pomelli, J. W. Ochterski, 
 R. L. Martin, K. Morokuma, V. G. Zakrzewski, G. A. Voth, 
 P. Salvador, J. J. Dannenberg, S. Dapprich, A. D. Daniels, 
 O. Farkas, J. B. Foresman, J. V. Ortiz, J. Cioslowski, 
 and D. J. Fox, Gaussian, Inc., Wallingford CT, 2013.
 
 ******************************************
 Gaussian 09:  EM64L-G09RevD.01 24-Apr-2013
                23-Feb-2015 
 ******************************************
 %nprocshared=8
 Will use up to    8 processors via shared memory.
 %nprocl=1
 Will use up to    1 processors via Linda.
 ----------------------------------------------------------------------
 # opt=(calcfc,ts,noeigentest) freq=noraman b3lyp/gen geom=connectivity
  gfinput pseudo=read
 ----------------------------------------------------------------------
 1/5=1,10=4,11=1,14=-1,18=20,26=3,38=1,57=2/1,3;
 2/9=110,12=2,17=6,18=5,40=1/2;
 3/5=7,11=2,16=1,17=8,24=10,25=1,30=1,71=2,74=-5,140=1/1,2,3;
 4//1;
 5/5=2,38=5/2;
 8/6=4,10=90,11=11/1;
 11/6=1,8=1,9=11,15=111,16=1/1,2,10;
 10/6=1,13=1/2;
 6/7=2,8=2,9=2,10=2,28=1/1;
 7/10=1,18=20,25=1/1,2,3,16;
 1/5=1,10=4,11=1,14=-1,18=20,26=3/3(2);
 2/9=110/2;
 99//99;
 2/9=110/2;
 3/5=7,6=1,11=2,16=1,17=8,25=1,30=1,71=1,74=-5,82=7/1,2,3;
 4/5=5,16=3,69=1/1;
 5/5=2,38=5/2;
 7//1,2,3,16;
 1/5=1,11=1,14=-1,18=20,26=3/3(-5);
 2/9=110/2;
 6/7=2,8=2,9=2,10=2,19=2,28=1/1;
 99/9=1/99;
 -----------------------
 gen calculation ts624F-C H O=6-31+g(d)/F=dgdzvp
 -----------------------
 Symbolic Z-matrix:
 Charge =  0 Multiplicity = 1
 C                     1.03864  -0.44423   0.15046 
 O                     0.14066  -0.92438   0.90514 
 O                     0.23413   0.69407  -0.72018 
 O                    -1.87108  -0.6155   -0.42045 
 C                    -2.86906   0.02124   0.41467 
 H                    -2.40055   0.51502   1.27139 
 H                    -3.38905   0.73373  -0.23411 
 H                    -3.55655  -0.76608   0.74698 
 H                    -0.92912   0.23641  -0.72989 
 H                    -1.18981  -1.20177   0.23529 
 C                     2.3178    0.14147   0.67281 
 H                     3.00343  -0.66652   0.98211 
 H                     2.84725   0.74589  -0.07611 
 H                     2.13892   0.75634   1.56506 
 C                     0.16568   2.00624  -0.11717 
 H                     1.15585   2.46142  -0.22981 
 H                    -0.5738    2.57023  -0.69535 
 H                    -0.11844   1.92899   0.93699 
 F                     1.22932  -1.21061  -0.95703 
 
 Add virtual bond connecting atoms H10        and O4         Dist= 2.10D+00.
 Add virtual bond connecting atoms H9         and O3         Dist= 2.36D+00.
 Add virtual bond connecting atoms H9         and O4         Dist= 2.47D+00.
 Add virtual bond connecting atoms O3         and C1         Dist= 3.11D+00.
 Add virtual bond connecting atoms H10        and O2         Dist= 2.86D+00.

 GradGradGradGradGradGradGradGradGradGradGradGradGradGradGradGradGradGrad
 Berny optimization.
 Initialization pass.
                           ----------------------------
                           !    Initial Parameters    !
                           ! (Angstroms and Degrees)  !
 --------------------------                            --------------------------
 ! Name  Definition              Value          Derivative Info.                !
 --------------------------------------------------------------------------------
 ! R1    R(1,2)                  1.2675         calculate D2E/DX2 analytically  !
 ! R2    R(1,3)                  1.6435         calculate D2E/DX2 analytically  !
 ! R3    R(1,11)                 1.5007         calculate D2E/DX2 analytically  !
 ! R4    R(1,19)                 1.3602         calculate D2E/DX2 analytically  !
 ! R5    R(2,10)                 1.5152         calculate D2E/DX2 analytically  !
 ! R6    R(3,9)                  1.2501         calculate D2E/DX2 analytically  !
 ! R7    R(3,15)                 1.4457         calculate D2E/DX2 analytically  !
 ! R8    R(4,5)                  1.4487         calculate D2E/DX2 analytically  !
 ! R9    R(4,9)                  1.3072         calculate D2E/DX2 analytically  !
 ! R10   R(4,10)                 1.1126         calculate D2E/DX2 analytically  !
 ! R11   R(5,6)                  1.0942         calculate D2E/DX2 analytically  !
 ! R12   R(5,7)                  1.095          calculate D2E/DX2 analytically  !
 ! R13   R(5,8)                  1.0968         calculate D2E/DX2 analytically  !
 ! R14   R(11,12)                1.1039         calculate D2E/DX2 analytically  !
 ! R15   R(11,13)                1.0984         calculate D2E/DX2 analytically  !
 ! R16   R(11,14)                1.0983         calculate D2E/DX2 analytically  !
 ! R17   R(15,16)                1.0956         calculate D2E/DX2 analytically  !
 ! R18   R(15,17)                1.0951         calculate D2E/DX2 analytically  !
 ! R19   R(15,18)                1.0945         calculate D2E/DX2 analytically  !
 ! A1    A(2,1,3)              103.3558         calculate D2E/DX2 analytically  !
 ! A2    A(2,1,11)             122.9901         calculate D2E/DX2 analytically  !
 ! A3    A(2,1,19)             111.7568         calculate D2E/DX2 analytically  !
 ! A4    A(3,1,11)             109.3495         calculate D2E/DX2 analytically  !
 ! A5    A(3,1,19)              91.5779         calculate D2E/DX2 analytically  !
 ! A6    A(11,1,19)            112.569          calculate D2E/DX2 analytically  !
 ! A7    A(1,2,10)             115.3559         calculate D2E/DX2 analytically  !
 ! A8    A(1,3,9)              101.8916         calculate D2E/DX2 analytically  !
 ! A9    A(1,3,15)             115.5219         calculate D2E/DX2 analytically  !
 ! A10   A(9,3,15)             106.946          calculate D2E/DX2 analytically  !
 ! A11   A(5,4,9)              110.2684         calculate D2E/DX2 analytically  !
 ! A12   A(5,4,10)             108.2803         calculate D2E/DX2 analytically  !
 ! A13   A(9,4,10)              92.3898         calculate D2E/DX2 analytically  !
 ! A14   A(4,5,6)              110.7762         calculate D2E/DX2 analytically  !
 ! A15   A(4,5,7)              105.7583         calculate D2E/DX2 analytically  !
 ! A16   A(4,5,8)              106.9153         calculate D2E/DX2 analytically  !
 ! A17   A(6,5,7)              111.9383         calculate D2E/DX2 analytically  !
 ! A18   A(6,5,8)              110.7995         calculate D2E/DX2 analytically  !
 ! A19   A(7,5,8)              110.4227         calculate D2E/DX2 analytically  !
 ! A20   A(3,9,4)              155.1338         calculate D2E/DX2 analytically  !
 ! A21   A(2,10,4)             134.5691         calculate D2E/DX2 analytically  !
 ! A22   A(1,11,12)            109.9543         calculate D2E/DX2 analytically  !
 ! A23   A(1,11,13)            112.848          calculate D2E/DX2 analytically  !
 ! A24   A(1,11,14)            111.2506         calculate D2E/DX2 analytically  !
 ! A25   A(12,11,13)           107.1229         calculate D2E/DX2 analytically  !
 ! A26   A(12,11,14)           106.4581         calculate D2E/DX2 analytically  !
 ! A27   A(13,11,14)           108.9267         calculate D2E/DX2 analytically  !
 ! A28   A(3,15,16)            106.9428         calculate D2E/DX2 analytically  !
 ! A29   A(3,15,17)            106.2125         calculate D2E/DX2 analytically  !
 ! A30   A(3,15,18)            110.4844         calculate D2E/DX2 analytically  !
 ! A31   A(16,15,17)           110.0007         calculate D2E/DX2 analytically  !
 ! A32   A(16,15,18)           111.2818         calculate D2E/DX2 analytically  !
 ! A33   A(17,15,18)           111.6898         calculate D2E/DX2 analytically  !
 ! D1    D(3,1,2,10)            43.6513         calculate D2E/DX2 analytically  !
 ! D2    D(11,1,2,10)          167.7157         calculate D2E/DX2 analytically  !
 ! D3    D(19,1,2,10)          -53.5425         calculate D2E/DX2 analytically  !
 ! D4    D(2,1,3,9)            -27.9597         calculate D2E/DX2 analytically  !
 ! D5    D(2,1,3,15)            87.5466         calculate D2E/DX2 analytically  !
 ! D6    D(11,1,3,9)          -160.5309         calculate D2E/DX2 analytically  !
 ! D7    D(11,1,3,15)          -45.0246         calculate D2E/DX2 analytically  !
 ! D8    D(19,1,3,9)            84.849          calculate D2E/DX2 analytically  !
 ! D9    D(19,1,3,15)         -159.6447         calculate D2E/DX2 analytically  !
 ! D10   D(2,1,11,12)           76.0629         calculate D2E/DX2 analytically  !
 ! D11   D(2,1,11,13)         -164.4075         calculate D2E/DX2 analytically  !
 ! D12   D(2,1,11,14)          -41.6209         calculate D2E/DX2 analytically  !
 ! D13   D(3,1,11,12)         -162.6147         calculate D2E/DX2 analytically  !
 ! D14   D(3,1,11,13)          -43.0851         calculate D2E/DX2 analytically  !
 ! D15   D(3,1,11,14)           79.7015         calculate D2E/DX2 analytically  !
 ! D16   D(19,1,11,12)         -62.3871         calculate D2E/DX2 analytically  !
 ! D17   D(19,1,11,13)          57.1425         calculate D2E/DX2 analytically  !
 ! D18   D(19,1,11,14)         179.929          calculate D2E/DX2 analytically  !
 ! D19   D(1,2,10,4)           -49.5979         calculate D2E/DX2 analytically  !
 ! D20   D(1,3,9,4)              2.7636         calculate D2E/DX2 analytically  !
 ! D21   D(15,3,9,4)          -118.8679         calculate D2E/DX2 analytically  !
 ! D22   D(1,3,15,16)           74.8403         calculate D2E/DX2 analytically  !
 ! D23   D(1,3,15,17)         -167.7123         calculate D2E/DX2 analytically  !
 ! D24   D(1,3,15,18)          -46.4143         calculate D2E/DX2 analytically  !
 ! D25   D(9,3,15,16)         -172.5666         calculate D2E/DX2 analytically  !
 ! D26   D(9,3,15,17)          -55.1191         calculate D2E/DX2 analytically  !
 ! D27   D(9,3,15,18)           66.1789         calculate D2E/DX2 analytically  !
 ! D28   D(9,4,5,6)            -51.9849         calculate D2E/DX2 analytically  !
 ! D29   D(9,4,5,7)             69.4987         calculate D2E/DX2 analytically  !
 ! D30   D(9,4,5,8)           -172.8052         calculate D2E/DX2 analytically  !
 ! D31   D(10,4,5,6)            47.7332         calculate D2E/DX2 analytically  !
 ! D32   D(10,4,5,7)           169.2168         calculate D2E/DX2 analytically  !
 ! D33   D(10,4,5,8)           -73.0871         calculate D2E/DX2 analytically  !
 ! D34   D(5,4,9,3)            114.1418         calculate D2E/DX2 analytically  !
 ! D35   D(10,4,9,3)             3.65           calculate D2E/DX2 analytically  !
 ! D36   D(5,4,10,2)           -94.1936         calculate D2E/DX2 analytically  !
 ! D37   D(9,4,10,2)            18.0741         calculate D2E/DX2 analytically  !
 --------------------------------------------------------------------------------
 Trust Radius=3.00D-01 FncErr=1.00D-07 GrdErr=1.00D-06
 Number of steps in this run=     99 maximum allowed number of steps=    114.
 Search for a saddle point of order  1.
 GradGradGradGradGradGradGradGradGradGradGradGradGradGradGradGradGradGrad

                          Input orientation:                          
 ---------------------------------------------------------------------
 Center     Atomic      Atomic             Coordinates (Angstroms)
 Number     Number       Type             X           Y           Z
 ---------------------------------------------------------------------
      1          6           0        1.038638   -0.444228    0.150458
      2          8           0        0.140657   -0.924384    0.905138
      3          8           0        0.234125    0.694069   -0.720178
      4          8           0       -1.871075   -0.615496   -0.420445
      5          6           0       -2.869059    0.021236    0.414667
      6          1           0       -2.400549    0.515022    1.271394
      7          1           0       -3.389051    0.733726   -0.234110
      8          1           0       -3.556552   -0.766079    0.746980
      9          1           0       -0.929120    0.236408   -0.729885
     10          1           0       -1.189813   -1.201772    0.235293
     11          6           0        2.317801    0.141469    0.672809
     12          1           0        3.003432   -0.666516    0.982111
     13          1           0        2.847250    0.745892   -0.076114
     14          1           0        2.138920    0.756342    1.565055
     15          6           0        0.165676    2.006238   -0.117169
     16          1           0        1.155848    2.461422   -0.229811
     17          1           0       -0.573795    2.570231   -0.695350
     18          1           0       -0.118440    1.928985    0.936989
     19          9           0        1.229320   -1.210607   -0.957029
 ---------------------------------------------------------------------
                    Distance matrix (angstroms):
                    1          2          3          4          5
     1  C    0.000000
     2  O    1.267463   0.000000
     3  O    1.643462   2.295600   0.000000
     4  O    2.970133   2.428919   2.497332   0.000000
     5  C    3.944180   3.192671   3.371992   1.448728   0.000000
     6  H    3.742281   2.943427   3.307556   2.102554   1.094215
     7  H    4.597814   4.062764   3.655850   2.039454   1.094964
     8  H    4.644911   3.703975   4.319006   2.055818   1.096788
     9  H    2.260606   2.272699   1.250075   1.307200   2.262667
    10  H    2.355221   1.515185   2.556313   1.112578   2.085136
    11  C    1.500716   2.435154   2.566610   4.394870   5.194671
    12  H    2.145105   2.875396   3.523924   5.072532   5.939793
    13  H    2.176878   3.328411   2.691826   4.922858   5.782921
    14  H    2.157098   2.693211   2.975636   4.680193   5.190725
    15  C    2.615047   3.103914   1.445715   3.333740   3.665065
    16  H    2.932771   3.712466   2.052698   4.320420   4.750762
    17  H    3.521689   3.909519   2.042874   3.450705   3.605239
    18  H    2.754923   2.865285   2.096550   3.374721   3.387954
    19  F    1.360229   2.175954   2.162013   3.202269   4.493962
                    6          7          8          9         10
     6  H    0.000000
     7  H    1.814252   0.000000
     8  H    1.803489   1.800003   0.000000
     9  H    2.499569   2.558198   3.176399   0.000000
    10  H    2.342385   2.967009   2.460306   1.751540   0.000000
    11  C    4.770815   5.808737   5.944507   3.538228   3.781411
    12  H    5.539199   6.656103   6.564952   4.383055   4.292731
    13  H    5.422958   6.238314   6.631155   3.866259   4.493133
    14  H    4.555354   5.813430   5.951925   3.866517   4.084476
    15  C    3.276789   3.777439   4.720961   2.169400   3.500415
    16  H    4.323199   4.862207   5.794618   3.089960   4.374636
    17  H    3.380680   3.392810   4.701927   2.360970   3.933647
    18  H    2.705391   3.673828   4.372652   2.510077   3.382581
    19  F    4.595608   5.062844   5.099590   2.608507   2.697020
                   11         12         13         14         15
    11  C    0.000000
    12  H    1.103901   0.000000
    13  H    1.098421   1.771759   0.000000
    14  H    1.098258   1.764010   1.787534   0.000000
    15  C    2.955177   4.050295   2.963275   2.878508   0.000000
    16  H    2.747188   3.829663   2.414023   2.663695   1.095592
    17  H    4.016475   5.107539   3.926221   3.969691   1.095079
    18  H    3.033195   4.060141   3.349836   2.620159   1.094504
    19  F    2.381023   2.683984   2.687303   3.325232   3.490673
                   16         17         18         19
    16  H    0.000000
    17  H    1.794500   0.000000
    18  H    1.807961   1.811926   0.000000
    19  F    3.744067   4.196956   3.906507   0.000000
 Stoichiometry    C4H11FO3
 Framework group  C1[X(C4H11FO3)]
 Deg. of freedom    51
 Full point group                 C1      NOp   1
 Largest Abelian subgroup         C1      NOp   1
 Largest concise Abelian subgroup C1      NOp   1
                         Standard orientation:                         
 ---------------------------------------------------------------------
 Center     Atomic      Atomic             Coordinates (Angstroms)
 Number     Number       Type             X           Y           Z
 ---------------------------------------------------------------------
      1          6           0        1.038638   -0.444228    0.150458
      2          8           0        0.140657   -0.924384    0.905138
      3          8           0        0.234125    0.694069   -0.720178
      4          8           0       -1.871075   -0.615496   -0.420445
      5          6           0       -2.869059    0.021236    0.414667
      6          1           0       -2.400549    0.515022    1.271394
      7          1           0       -3.389051    0.733726   -0.234110
      8          1           0       -3.556552   -0.766079    0.746980
      9          1           0       -0.929120    0.236408   -0.729885
     10          1           0       -1.189813   -1.201772    0.235293
     11          6           0        2.317801    0.141469    0.672809
     12          1           0        3.003432   -0.666516    0.982111
     13          1           0        2.847250    0.745892   -0.076114
     14          1           0        2.138920    0.756342    1.565055
     15          6           0        0.165676    2.006238   -0.117169
     16          1           0        1.155848    2.461422   -0.229811
     17          1           0       -0.573795    2.570231   -0.695350
     18          1           0       -0.118440    1.928985    0.936989
     19          9           0        1.229320   -1.210607   -0.957029
 ---------------------------------------------------------------------
 Rotational constants (GHZ):      2.7524908      1.3461166      1.1357869
 General basis read from cards:  (5D, 7F)
 ======================================================================================================
                                       Pseudopotential Parameters
 ======================================================================================================
  Center     Atomic      Valence      Angular      Power
  Number     Number     Electrons     Momentum     of R      Exponent        Coefficient   SO-Coeffient
 ======================================================================================================
    1          6
                                   No pseudopotential on this center.
    2          8
                                   No pseudopotential on this center.
    3          8
                                   No pseudopotential on this center.
    4          8
                                   No pseudopotential on this center.
    5          6
                                   No pseudopotential on this center.
    6          1
                                   No pseudopotential on this center.
    7          1
                                   No pseudopotential on this center.
    8          1
                                   No pseudopotential on this center.
    9          1
                                   No pseudopotential on this center.
   10          1
                                   No pseudopotential on this center.
   11          6
                                   No pseudopotential on this center.
   12          1
                                   No pseudopotential on this center.
   13          1
                                   No pseudopotential on this center.
   14          1
                                   No pseudopotential on this center.
   15          6
                                   No pseudopotential on this center.
   16          1
                                   No pseudopotential on this center.
   17          1
                                   No pseudopotential on this center.
   18          1
                                   No pseudopotential on this center.
   19          9
                                   No pseudopotential on this center.
 ======================================================================================================
 AO basis set in the form of general basis input (Overlap normalization):
      1 0
 S   6 1.00       0.000000000000
      0.3047524880D+04  0.1834737132D-02
      0.4573695180D+03  0.1403732281D-01
      0.1039486850D+03  0.6884262226D-01
      0.2921015530D+02  0.2321844432D+00
      0.9286662960D+01  0.4679413484D+00
      0.3163926960D+01  0.3623119853D+00
 SP   3 1.00       0.000000000000
      0.7868272350D+01 -0.1193324198D+00  0.6899906659D-01
      0.1881288540D+01 -0.1608541517D+00  0.3164239610D+00
      0.5442492580D+00  0.1143456438D+01  0.7443082909D+00
 SP   1 1.00       0.000000000000
      0.1687144782D+00  0.1000000000D+01  0.1000000000D+01
 SP   1 1.00       0.000000000000
      0.4380000000D-01  0.1000000000D+01  0.1000000000D+01
 D   1 1.00       0.000000000000
      0.8000000000D+00  0.1000000000D+01
 ****
      2 0
 S   6 1.00       0.000000000000
      0.5484671660D+04  0.1831074430D-02
      0.8252349460D+03  0.1395017220D-01
      0.1880469580D+03  0.6844507810D-01
      0.5296450000D+02  0.2327143360D+00
      0.1689757040D+02  0.4701928980D+00
      0.5799635340D+01  0.3585208530D+00
 SP   3 1.00       0.000000000000
      0.1553961625D+02 -0.1107775495D+00  0.7087426823D-01
      0.3599933586D+01 -0.1480262627D+00  0.3397528391D+00
      0.1013761750D+01  0.1130767015D+01  0.7271585773D+00
 SP   1 1.00       0.000000000000
      0.2700058226D+00  0.1000000000D+01  0.1000000000D+01
 SP   1 1.00       0.000000000000
      0.8450000000D-01  0.1000000000D+01  0.1000000000D+01
 D   1 1.00       0.000000000000
      0.8000000000D+00  0.1000000000D+01
 ****
      3 0
 S   6 1.00       0.000000000000
      0.5484671660D+04  0.1831074430D-02
      0.8252349460D+03  0.1395017220D-01
      0.1880469580D+03  0.6844507810D-01
      0.5296450000D+02  0.2327143360D+00
      0.1689757040D+02  0.4701928980D+00
      0.5799635340D+01  0.3585208530D+00
 SP   3 1.00       0.000000000000
      0.1553961625D+02 -0.1107775495D+00  0.7087426823D-01
      0.3599933586D+01 -0.1480262627D+00  0.3397528391D+00
      0.1013761750D+01  0.1130767015D+01  0.7271585773D+00
 SP   1 1.00       0.000000000000
      0.2700058226D+00  0.1000000000D+01  0.1000000000D+01
 SP   1 1.00       0.000000000000
      0.8450000000D-01  0.1000000000D+01  0.1000000000D+01
 D   1 1.00       0.000000000000
      0.8000000000D+00  0.1000000000D+01
 ****
      4 0
 S   6 1.00       0.000000000000
      0.5484671660D+04  0.1831074430D-02
      0.8252349460D+03  0.1395017220D-01
      0.1880469580D+03  0.6844507810D-01
      0.5296450000D+02  0.2327143360D+00
      0.1689757040D+02  0.4701928980D+00
      0.5799635340D+01  0.3585208530D+00
 SP   3 1.00       0.000000000000
      0.1553961625D+02 -0.1107775495D+00  0.7087426823D-01
      0.3599933586D+01 -0.1480262627D+00  0.3397528391D+00
      0.1013761750D+01  0.1130767015D+01  0.7271585773D+00
 SP   1 1.00       0.000000000000
      0.2700058226D+00  0.1000000000D+01  0.1000000000D+01
 SP   1 1.00       0.000000000000
      0.8450000000D-01  0.1000000000D+01  0.1000000000D+01
 D   1 1.00       0.000000000000
      0.8000000000D+00  0.1000000000D+01
 ****
      5 0
 S   6 1.00       0.000000000000
      0.3047524880D+04  0.1834737132D-02
      0.4573695180D+03  0.1403732281D-01
      0.1039486850D+03  0.6884262226D-01
      0.2921015530D+02  0.2321844432D+00
      0.9286662960D+01  0.4679413484D+00
      0.3163926960D+01  0.3623119853D+00
 SP   3 1.00       0.000000000000
      0.7868272350D+01 -0.1193324198D+00  0.6899906659D-01
      0.1881288540D+01 -0.1608541517D+00  0.3164239610D+00
      0.5442492580D+00  0.1143456438D+01  0.7443082909D+00
 SP   1 1.00       0.000000000000
      0.1687144782D+00  0.1000000000D+01  0.1000000000D+01
 SP   1 1.00       0.000000000000
      0.4380000000D-01  0.1000000000D+01  0.1000000000D+01
 D   1 1.00       0.000000000000
      0.8000000000D+00  0.1000000000D+01
 ****
      6 0
 S   3 1.00       0.000000000000
      0.1873113696D+02  0.3349460434D-01
      0.2825394365D+01  0.2347269535D+00
      0.6401216923D+00  0.8137573261D+00
 S   1 1.00       0.000000000000
      0.1612777588D+00  0.1000000000D+01
 ****
      7 0
 S   3 1.00       0.000000000000
      0.1873113696D+02  0.3349460434D-01
      0.2825394365D+01  0.2347269535D+00
      0.6401216923D+00  0.8137573261D+00
 S   1 1.00       0.000000000000
      0.1612777588D+00  0.1000000000D+01
 ****
      8 0
 S   3 1.00       0.000000000000
      0.1873113696D+02  0.3349460434D-01
      0.2825394365D+01  0.2347269535D+00
      0.6401216923D+00  0.8137573261D+00
 S   1 1.00       0.000000000000
      0.1612777588D+00  0.1000000000D+01
 ****
      9 0
 S   3 1.00       0.000000000000
      0.1873113696D+02  0.3349460434D-01
      0.2825394365D+01  0.2347269535D+00
      0.6401216923D+00  0.8137573261D+00
 S   1 1.00       0.000000000000
      0.1612777588D+00  0.1000000000D+01
 ****
     10 0
 S   3 1.00       0.000000000000
      0.1873113696D+02  0.3349460434D-01
      0.2825394365D+01  0.2347269535D+00
      0.6401216923D+00  0.8137573261D+00
 S   1 1.00       0.000000000000
      0.1612777588D+00  0.1000000000D+01
 ****
     11 0
 S   6 1.00       0.000000000000
      0.3047524880D+04  0.1834737132D-02
      0.4573695180D+03  0.1403732281D-01
      0.1039486850D+03  0.6884262226D-01
      0.2921015530D+02  0.2321844432D+00
      0.9286662960D+01  0.4679413484D+00
      0.3163926960D+01  0.3623119853D+00
 SP   3 1.00       0.000000000000
      0.7868272350D+01 -0.1193324198D+00  0.6899906659D-01
      0.1881288540D+01 -0.1608541517D+00  0.3164239610D+00
      0.5442492580D+00  0.1143456438D+01  0.7443082909D+00
 SP   1 1.00       0.000000000000
      0.1687144782D+00  0.1000000000D+01  0.1000000000D+01
 SP   1 1.00       0.000000000000
      0.4380000000D-01  0.1000000000D+01  0.1000000000D+01
 D   1 1.00       0.000000000000
      0.8000000000D+00  0.1000000000D+01
 ****
     12 0
 S   3 1.00       0.000000000000
      0.1873113696D+02  0.3349460434D-01
      0.2825394365D+01  0.2347269535D+00
      0.6401216923D+00  0.8137573261D+00
 S   1 1.00       0.000000000000
      0.1612777588D+00  0.1000000000D+01
 ****
     13 0
 S   3 1.00       0.000000000000
      0.1873113696D+02  0.3349460434D-01
      0.2825394365D+01  0.2347269535D+00
      0.6401216923D+00  0.8137573261D+00
 S   1 1.00       0.000000000000
      0.1612777588D+00  0.1000000000D+01
 ****
     14 0
 S   3 1.00       0.000000000000
      0.1873113696D+02  0.3349460434D-01
      0.2825394365D+01  0.2347269535D+00
      0.6401216923D+00  0.8137573261D+00
 S   1 1.00       0.000000000000
      0.1612777588D+00  0.1000000000D+01
 ****
     15 0
 S   6 1.00       0.000000000000
      0.3047524880D+04  0.1834737132D-02
      0.4573695180D+03  0.1403732281D-01
      0.1039486850D+03  0.6884262226D-01
      0.2921015530D+02  0.2321844432D+00
      0.9286662960D+01  0.4679413484D+00
      0.3163926960D+01  0.3623119853D+00
 SP   3 1.00       0.000000000000
      0.7868272350D+01 -0.1193324198D+00  0.6899906659D-01
      0.1881288540D+01 -0.1608541517D+00  0.3164239610D+00
      0.5442492580D+00  0.1143456438D+01  0.7443082909D+00
 SP   1 1.00       0.000000000000
      0.1687144782D+00  0.1000000000D+01  0.1000000000D+01
 SP   1 1.00       0.000000000000
      0.4380000000D-01  0.1000000000D+01  0.1000000000D+01
 D   1 1.00       0.000000000000
      0.8000000000D+00  0.1000000000D+01
 ****
     16 0
 S   3 1.00       0.000000000000
      0.1873113696D+02  0.3349460434D-01
      0.2825394365D+01  0.2347269535D+00
      0.6401216923D+00  0.8137573261D+00
 S   1 1.00       0.000000000000
      0.1612777588D+00  0.1000000000D+01
 ****
     17 0
 S   3 1.00       0.000000000000
      0.1873113696D+02  0.3349460434D-01
      0.2825394365D+01  0.2347269535D+00
      0.6401216923D+00  0.8137573261D+00
 S   1 1.00       0.000000000000
      0.1612777588D+00  0.1000000000D+01
 ****
     18 0
 S   3 1.00       0.000000000000
      0.1873113696D+02  0.3349460434D-01
      0.2825394365D+01  0.2347269535D+00
      0.6401216923D+00  0.8137573261D+00
 S   1 1.00       0.000000000000
      0.1612777588D+00  0.1000000000D+01
 ****
     19 0
 S   6 1.00       0.000000000000
      0.6384714400D+04 -0.2030159990D-02
      0.9588865200D+03 -0.1549809992D-01
      0.2181901000D+03 -0.7577868962D-01
      0.6136473100D+02 -0.2502723487D+00
      0.1960289600D+02 -0.4801086476D+00
      0.6564883400D+01 -0.3271613784D+00
 S   2 1.00       0.000000000000
      0.1381069400D+02  0.1461855196D+00
      0.1229866500D+01 -0.1050340714D+01
 S   1 1.00       0.000000000000
      0.3584713200D+00  0.1000000000D+01
 P   4 1.00       0.000000000000
      0.4246991100D+02  0.2293373469D-01
      0.9713881100D+01  0.1407939302D+00
      0.2864038600D+01  0.4128952807D+00
      0.8746054400D+00  0.6009524210D+00
 P   1 1.00       0.000000000000
      0.2425070600D+00  0.1000000000D+01
 D   1 1.00       0.000000000000
      0.1000000000D+01  0.1000000000D+01
 ****

 There are   170 symmetry adapted cartesian basis functions of A   symmetry.
 There are   162 symmetry adapted basis functions of A   symmetry.
   162 basis functions,   298 primitive gaussians,   170 cartesian basis functions
    34 alpha electrons       34 beta electrons
       nuclear repulsion energy       452.3329082244 Hartrees.
 NAtoms=   19 NActive=   19 NUniq=   19 SFac= 1.00D+00 NAtFMM=   60 NAOKFM=F Big=F
 Integral buffers will be    131072 words long.
 Raffenetti 2 integral format.
 Two-electron integral symmetry is turned on.
 One-electron integrals computed using PRISM.
   1 Symmetry operations used in ECPInt.
 ECPInt:  NShTT=    2016 NPrTT=   10477 LenC2=    1996 LenP2D=    7407.
 LDataN:  DoStor=T MaxTD1= 4 Len=   56
 NBasis=   162 RedAO= T EigKep=  9.11D-05  NBF=   162
 NBsUse=   162 1.00D-06 EigRej= -1.00D+00 NBFU=   162
 ExpMin= 4.38D-02 ExpMax= 6.38D+03 ExpMxC= 9.59D+02 IAcc=2 IRadAn=         4 AccDes= 0.00D+00
 Harris functional with IExCor=  402 and IRadAn=       4 diagonalized for initial guess.
 HarFok:  IExCor=  402 AccDes= 0.00D+00 IRadAn=         4 IDoV= 1 UseB2=F ITyADJ=14
 ICtDFT=  3500011 ScaDFX=  1.000000  1.000000  1.000000  1.000000
 FoFCou: FMM=F IPFlag=           0 FMFlag=      100000 FMFlg1=           0
         NFxFlg=           0 DoJE=T BraDBF=F KetDBF=T FulRan=T
         wScrn=  0.000000 ICntrl=     500 IOpCl=  0 I1Cent=   200000004 NGrid=           0
         NMat0=    1 NMatS0=      1 NMatT0=    0 NMatD0=    1 NMtDS0=    0 NMtDT0=    0
 Petite list used in FoFCou.
 Requested convergence on RMS density matrix=1.00D-08 within 128 cycles.
 Requested convergence on MAX density matrix=1.00D-06.
 Requested convergence on             energy=1.00D-06.
 No special actions if energy rises.
 SCF Done:  E(RB3LYP) =  -484.534637465     A.U. after   13 cycles
            NFock= 13  Conv=0.47D-08     -V/T= 2.0071
 DoSCS=F DFT=T ScalE2(SS,OS)=  1.000000  1.000000
 Range of M.O.s used for correlation:     1   162
 NBasis=   162 NAE=    34 NBE=    34 NFC=     0 NFV=     0
 NROrb=    162 NOA=    34 NOB=    34 NVA=   128 NVB=   128

 **** Warning!!: The largest alpha MO coefficient is  0.25171811D+02

   1 Symmetry operations used in ECPInt.
 ECPInt:  NShTT=    2016 NPrTT=   10477 LenC2=    1996 LenP2D=    7407.
 LDataN:  DoStor=T MaxTD1= 5 Len=  102
 Number of processors reduced to   5 by ecpmxn.
 Symmetrizing basis deriv contribution to polar:
 IMax=3 JMax=2 DiffMx= 0.00D+00
 G2DrvN: will do    20 centers at a time, making    1 passes.
 Calling FoFCou, ICntrl=  3107 FMM=F I1Cent=   0 AccDes= 0.00D+00.
 End of G2Drv F.D. properties file   721 does not exist.
 End of G2Drv F.D. properties file   722 does not exist.
 End of G2Drv F.D. properties file   788 does not exist.
          IDoAtm=1111111111111111111
          Differentiating once with respect to nuclear coordinates.
          There are    60 degrees of freedom in the 1st order CPHF.  IDoFFX=6 NUNeed=     0.
     54 vectors produced by pass  0 Test12= 7.25D-15 1.67D-09 XBig12= 2.15D-01 6.48D-02.
 AX will form    54 AO Fock derivatives at one time.
     54 vectors produced by pass  1 Test12= 7.25D-15 1.67D-09 XBig12= 4.69D-02 3.23D-02.
     54 vectors produced by pass  2 Test12= 7.25D-15 1.67D-09 XBig12= 3.85D-04 2.42D-03.
     54 vectors produced by pass  3 Test12= 7.25D-15 1.67D-09 XBig12= 1.09D-06 1.32D-04.
     54 vectors produced by pass  4 Test12= 7.25D-15 1.67D-09 XBig12= 1.34D-09 4.35D-06.
     35 vectors produced by pass  5 Test12= 7.25D-15 1.67D-09 XBig12= 1.10D-12 1.67D-07.
      6 vectors produced by pass  6 Test12= 7.25D-15 1.67D-09 XBig12= 2.85D-15 7.89D-09.
 InvSVY:  IOpt=1 It=  1 EMax= 8.88D-16
 Solved reduced A of dimension   311 with    60 vectors.
 End of Minotr F.D. properties file   721 does not exist.
 End of Minotr F.D. properties file   722 does not exist.
 End of Minotr F.D. properties file   788 does not exist.

 **********************************************************************

            Population analysis using the SCF density.

 **********************************************************************

 Orbital symmetries:
       Occupied  (A) (A) (A) (A) (A) (A) (A) (A) (A) (A) (A) (A)
                 (A) (A) (A) (A) (A) (A) (A) (A) (A) (A) (A) (A)
                 (A) (A) (A) (A) (A) (A) (A) (A) (A) (A)
       Virtual   (A) (A) (A) (A) (A) (A) (A) (A) (A) (A) (A) (A)
                 (A) (A) (A) (A) (A) (A) (A) (A) (A) (A) (A) (A)
                 (A) (A) (A) (A) (A) (A) (A) (A) (A) (A) (A) (A)
                 (A) (A) (A) (A) (A) (A) (A) (A) (A) (A) (A) (A)
                 (A) (A) (A) (A) (A) (A) (A) (A) (A) (A) (A) (A)
                 (A) (A) (A) (A) (A) (A) (A) (A) (A) (A) (A) (A)
                 (A) (A) (A) (A) (A) (A) (A) (A) (A) (A) (A) (A)
                 (A) (A) (A) (A) (A) (A) (A) (A) (A) (A) (A) (A)
                 (A) (A) (A) (A) (A) (A) (A) (A) (A) (A) (A) (A)
                 (A) (A) (A) (A) (A) (A) (A) (A) (A) (A) (A) (A)
                 (A) (A) (A) (A) (A) (A) (A) (A)
 The electronic state is 1-A.
 Alpha  occ. eigenvalues --  -24.66268 -19.18792 -19.18457 -19.10323 -10.35203
 Alpha  occ. eigenvalues --  -10.24683 -10.24640 -10.19180  -1.21507  -1.06232
 Alpha  occ. eigenvalues --   -1.02840  -0.99137  -0.75692  -0.71459  -0.70068
 Alpha  occ. eigenvalues --   -0.59723  -0.54705  -0.53863  -0.52409  -0.49373
 Alpha  occ. eigenvalues --   -0.47354  -0.46253  -0.45602  -0.45345  -0.41867
 Alpha  occ. eigenvalues --   -0.41197  -0.40484  -0.38553  -0.37081  -0.36210
 Alpha  occ. eigenvalues --   -0.34865  -0.30219  -0.27322  -0.26027
 Alpha virt. eigenvalues --   -0.00453   0.01337   0.01375   0.02487   0.03835
 Alpha virt. eigenvalues --    0.04531   0.05222   0.06375   0.07185   0.07415
 Alpha virt. eigenvalues --    0.08031   0.09153   0.09605   0.11154   0.11868
 Alpha virt. eigenvalues --    0.13052   0.14294   0.15425   0.16336   0.16844
 Alpha virt. eigenvalues --    0.18179   0.18799   0.19058   0.20042   0.20942
 Alpha virt. eigenvalues --    0.21257   0.21882   0.22936   0.25254   0.25521
 Alpha virt. eigenvalues --    0.26125   0.27909   0.29676   0.30009   0.30529
 Alpha virt. eigenvalues --    0.31470   0.32331   0.33018   0.34004   0.36400
 Alpha virt. eigenvalues --    0.36608   0.39985   0.42100   0.45226   0.50185
 Alpha virt. eigenvalues --    0.58419   0.62948   0.64596   0.64799   0.68831
 Alpha virt. eigenvalues --    0.69845   0.71896   0.73101   0.74656   0.77527
 Alpha virt. eigenvalues --    0.78878   0.84598   0.88795   0.90191   0.91866
 Alpha virt. eigenvalues --    0.93614   0.94371   0.96141   0.98783   0.99476
 Alpha virt. eigenvalues --    1.01780   1.02528   1.04599   1.08559   1.11800
 Alpha virt. eigenvalues --    1.12199   1.20016   1.21483   1.22397   1.23264
 Alpha virt. eigenvalues --    1.24168   1.27607   1.29718   1.32334   1.33166
 Alpha virt. eigenvalues --    1.36443   1.41215   1.43545   1.48329   1.52187
 Alpha virt. eigenvalues --    1.53229   1.55813   1.59320   1.66228   1.66427
 Alpha virt. eigenvalues --    1.69697   1.74616   1.78769   1.79661   1.81906
 Alpha virt. eigenvalues --    1.86596   1.94303   1.95241   2.02571   2.03596
 Alpha virt. eigenvalues --    2.06050   2.08354   2.10975   2.13362   2.16164
 Alpha virt. eigenvalues --    2.17297   2.19414   2.22658   2.25694   2.27339
 Alpha virt. eigenvalues --    2.28949   2.30172   2.31645   2.32196   2.37573
 Alpha virt. eigenvalues --    2.38582   2.39461   2.49431   2.53654   2.61146
 Alpha virt. eigenvalues --    2.74981   2.75848   2.82478   2.85580   2.89509
 Alpha virt. eigenvalues --    3.06789   3.09919   3.22133
          Condensed to atoms (all electrons):
               1          2          3          4          5          6
     1  C    5.250680   0.420765   0.113793   0.066199  -0.022329  -0.007205
     2  O    0.420765   8.561900  -0.150743  -0.126807   0.012505   0.005494
     3  O    0.113793  -0.150743   8.838696  -0.059803   0.019895   0.001392
     4  O    0.066199  -0.126807  -0.059803   8.804017   0.042123  -0.084414
     5  C   -0.022329   0.012505   0.019895   0.042123   5.146214   0.409907
     6  H   -0.007205   0.005494   0.001392  -0.084414   0.409907   0.525509
     7  H    0.001123  -0.000855  -0.000802  -0.041533   0.394851  -0.033062
     8  H   -0.000689   0.000225  -0.001256  -0.041992   0.388709  -0.030371
     9  H   -0.022411  -0.002306   0.105035   0.098831  -0.012149   0.001135
    10  H   -0.046767   0.130759  -0.003404   0.078698  -0.000115   0.002037
    11  C   -0.597904  -0.165986  -0.091985  -0.023639   0.004357   0.002453
    12  H   -0.037712  -0.003046   0.005773   0.000032  -0.000118   0.000000
    13  H   -0.065088   0.006858  -0.000432   0.000427  -0.000122  -0.000001
    14  H    0.021726  -0.007934  -0.003669  -0.000285   0.000134   0.000003
    15  C   -0.106168   0.007363   0.040067   0.002517  -0.014516  -0.000697
    16  H   -0.011412  -0.001885  -0.036387  -0.001127   0.001551   0.000024
    17  H   -0.000218  -0.001118  -0.042555  -0.000215  -0.000668  -0.000166
    18  H   -0.015771   0.013738  -0.079626   0.000311  -0.003477   0.001153
    19  F    0.455594  -0.097609  -0.100096   0.002283  -0.001422  -0.000001
               7          8          9         10         11         12
     1  C    0.001123  -0.000689  -0.022411  -0.046767  -0.597904  -0.037712
     2  O   -0.000855   0.000225  -0.002306   0.130759  -0.165986  -0.003046
     3  O   -0.000802  -0.001256   0.105035  -0.003404  -0.091985   0.005773
     4  O   -0.041533  -0.041992   0.098831   0.078698  -0.023639   0.000032
     5  C    0.394851   0.388709  -0.012149  -0.000115   0.004357  -0.000118
     6  H   -0.033062  -0.030371   0.001135   0.002037   0.002453   0.000000
     7  H    0.506582  -0.025591  -0.003134   0.002300  -0.000201   0.000000
     8  H   -0.025591   0.504456   0.001805  -0.003640   0.000025   0.000000
     9  H   -0.003134   0.001805   0.268181  -0.005754   0.018728  -0.000061
    10  H    0.002300  -0.003640  -0.005754   0.279615   0.031177  -0.000030
    11  C   -0.000201   0.000025   0.018728   0.031177   6.580411   0.383177
    12  H    0.000000   0.000000  -0.000061  -0.000030   0.383177   0.458903
    13  H    0.000000   0.000000   0.000052  -0.000074   0.403346  -0.023970
    14  H    0.000000   0.000000  -0.000045   0.000019   0.331591  -0.022294
    15  C   -0.002243   0.001981  -0.008349   0.002706   0.038562   0.001530
    16  H    0.000002  -0.000001   0.001418   0.000008   0.006057   0.000015
    17  H    0.000101   0.000007  -0.002589  -0.000002   0.000689  -0.000002
    18  H    0.000028   0.000008  -0.000011   0.000126  -0.001504   0.000007
    19  F    0.000001   0.000000   0.002167  -0.001611  -0.193564  -0.001598
              13         14         15         16         17         18
     1  C   -0.065088   0.021726  -0.106168  -0.011412  -0.000218  -0.015771
     2  O    0.006858  -0.007934   0.007363  -0.001885  -0.001118   0.013738
     3  O   -0.000432  -0.003669   0.040067  -0.036387  -0.042555  -0.079626
     4  O    0.000427  -0.000285   0.002517  -0.001127  -0.000215   0.000311
     5  C   -0.000122   0.000134  -0.014516   0.001551  -0.000668  -0.003477
     6  H   -0.000001   0.000003  -0.000697   0.000024  -0.000166   0.001153
     7  H    0.000000   0.000000  -0.002243   0.000002   0.000101   0.000028
     8  H    0.000000   0.000000   0.001981  -0.000001   0.000007   0.000008
     9  H    0.000052  -0.000045  -0.008349   0.001418  -0.002589  -0.000011
    10  H   -0.000074   0.000019   0.002706   0.000008  -0.000002   0.000126
    11  C    0.403346   0.331591   0.038562   0.006057   0.000689  -0.001504
    12  H   -0.023970  -0.022294   0.001530   0.000015  -0.000002   0.000007
    13  H    0.490714  -0.031407  -0.006011   0.001281   0.000011   0.000158
    14  H   -0.031407   0.482278  -0.001293  -0.001504   0.000077   0.000402
    15  C   -0.006011  -0.001293   5.223487   0.390399   0.390228   0.412367
    16  H    0.001281  -0.001504   0.390399   0.502940  -0.024038  -0.034769
    17  H    0.000011   0.000077   0.390228  -0.024038   0.509748  -0.031201
    18  H    0.000158   0.000402   0.412367  -0.034769  -0.031201   0.521007
    19  F   -0.000576   0.002335  -0.007813   0.000185  -0.000135  -0.000029
              19
     1  C    0.455594
     2  O   -0.097609
     3  O   -0.100096
     4  O    0.002283
     5  C   -0.001422
     6  H   -0.000001
     7  H    0.000001
     8  H    0.000000
     9  H    0.002167
    10  H   -0.001611
    11  C   -0.193564
    12  H   -0.001598
    13  H   -0.000576
    14  H    0.002335
    15  C   -0.007813
    16  H    0.000185
    17  H   -0.000135
    18  H   -0.000029
    19  F    9.249063
 Mulliken charges:
               1
     1  C    0.603795
     2  O   -0.601317
     3  O   -0.553892
     4  O   -0.715623
     5  C   -0.365328
     6  H    0.206808
     7  H    0.202434
     8  H    0.206326
     9  H    0.559456
    10  H    0.533951
    11  C   -0.725789
    12  H    0.239392
    13  H    0.224834
    14  H    0.229865
    15  C   -0.364117
    16  H    0.207245
    17  H    0.202046
    18  H    0.217085
    19  F   -0.307174
 Sum of Mulliken charges =   0.00000
 Mulliken charges with hydrogens summed into heavy atoms:
               1
     1  C    0.603795
     2  O   -0.601317
     3  O    0.005564
     4  O   -0.181672
     5  C    0.250240
    11  C   -0.031696
    15  C    0.262260
    19  F   -0.307174
 APT charges:
               1
     1  C    0.339495
     2  O   -0.636036
     3  O   -0.271895
     4  O   -0.364169
     5  C   -1.407912
     6  H    0.241480
     7  H    0.524307
     8  H    0.636669
     9  H    0.496100
    10  H    0.480229
    11  C   -1.480474
    12  H    0.632382
    13  H    0.493355
    14  H    0.439502
    15  C   -1.266935
    16  H    0.508503
    17  H    0.506012
    18  H    0.323822
    19  F   -0.194433
 Sum of APT charges =   0.00000
 APT charges with hydrogens summed into heavy atoms:
               1
     1  C    0.339495
     2  O   -0.636036
     3  O    0.224205
     4  O    0.116059
     5  C   -0.005456
    11  C    0.084764
    15  C    0.071401
    19  F   -0.194433
 Electronic spatial extent (au):  <R**2>=           1147.3594
 Charge=              0.0000 electrons
 Dipole moment (field-independent basis, Debye):
    X=             -1.2911    Y=              3.9096    Z=              1.2594  Tot=              4.3056
 Quadrupole moment (field-independent basis, Debye-Ang):
   XX=            -40.5148   YY=            -49.0509   ZZ=            -54.8974
   XY=              0.7798   XZ=              0.1723   YZ=             -0.4963
 Traceless Quadrupole moment (field-independent basis, Debye-Ang):
   XX=              7.6396   YY=             -0.8965   ZZ=             -6.7430
   XY=              0.7798   XZ=              0.1723   YZ=             -0.4963
 Octapole moment (field-independent basis, Debye-Ang**2):
  XXX=             -6.8407  YYY=              0.0363  ZZZ=             -7.7260  XYY=             -2.2454
  XXY=             -0.1570  XXZ=              8.4664  XZZ=             -1.0589  YZZ=              1.9508
  YYZ=             -2.8525  XYZ=              2.0749
 Hexadecapole moment (field-independent basis, Debye-Ang**3):
 XXXX=           -825.7877 YYYY=           -365.4485 ZZZZ=           -192.6898 XXXY=             -8.4405
 XXXZ=            -13.0552 YYYX=              1.2686 YYYZ=             -0.5695 ZZZX=             -4.3215
 ZZZY=             10.0317 XXYY=           -207.1341 XXZZ=           -181.7367 YYZZ=            -96.7082
 XXYZ=            -14.7541 YYXZ=             -1.6351 ZZXY=             -2.3035
 N-N= 4.523329082244D+02 E-N=-2.043379518907D+03  KE= 4.811071128346D+02
  Exact polarizability:   0.000   0.000   0.000   0.000   0.000   0.000
 Approx polarizability:  96.142   2.040  89.459  -0.814  -3.542  85.301
   1 Symmetry operations used in ECPInt.
 ECPInt:  NShTT=    2016 NPrTT=   10477 LenC2=    1996 LenP2D=    7407.
 LDataN:  DoStor=T MaxTD1= 6 Len=  172
 Calling FoFJK, ICntrl=    100147 FMM=F ISym2X=0 I1Cent= 0 IOpClX= 0 NMat=1 NMatS=1 NMatT=0.
 ***** Axes restored to original set *****
 -------------------------------------------------------------------
 Center     Atomic                   Forces (Hartrees/Bohr)
 Number     Number              X              Y              Z
 -------------------------------------------------------------------
      1        6          -0.040700645   -0.006313282    0.001120885
      2        8           0.014050738   -0.012983030    0.033290497
      3        8          -0.025033996    0.031260755   -0.006593079
      4        8           0.015213024   -0.004960163    0.014231066
      5        6           0.000570871   -0.009300475   -0.009966072
      6        1          -0.001077168    0.000902052    0.000696198
      7        1          -0.001909786    0.000417712    0.004788274
      8        1          -0.001240031    0.004875594    0.001559712
      9        1           0.018613031   -0.013802479    0.006385154
     10        1          -0.006598893    0.030962951   -0.022257227
     11        6           0.014459986    0.004260447    0.007326037
     12        1          -0.006552583    0.000984695   -0.002996593
     13        1          -0.003022769   -0.002635423   -0.000179266
     14        1          -0.002112671   -0.001864157   -0.003272218
     15        6           0.004300526   -0.007525498   -0.010570043
     16        1          -0.003553821    0.003476080    0.002540321
     17        1           0.001097600    0.002871888    0.003565132
     18        1          -0.000745732    0.002174883    0.001114782
     19        9           0.024242318   -0.022802549   -0.020783561
 -------------------------------------------------------------------
 Cartesian Forces:  Max     0.040700645 RMS     0.013079508
 FormGI is forming the generalized inverse of G from B-inverse, IUseBI=4.

 GradGradGradGradGradGradGradGradGradGradGradGradGradGradGradGradGradGrad
 Berny optimization.
 Internal  Forces:  Max     0.033168114 RMS     0.007859662
 Search for a saddle point.
 Step number   1 out of a maximum of   99
 All quantities printed in internal units (Hartrees-Bohrs-Radians)
 Swapping is turned off.
 Second derivative matrix not updated -- analytic derivatives used.
 ITU=  0
     Eigenvalues ---   -0.05162   0.00159   0.00202   0.00206   0.00283
     Eigenvalues ---    0.00355   0.00589   0.00862   0.01953   0.02694
     Eigenvalues ---    0.03416   0.04365   0.04507   0.05599   0.06432
     Eigenvalues ---    0.06510   0.06550   0.06602   0.06630   0.06985
     Eigenvalues ---    0.08086   0.09963   0.11523   0.12305   0.12911
     Eigenvalues ---    0.13685   0.13938   0.14593   0.15530   0.15928
     Eigenvalues ---    0.17992   0.18665   0.18734   0.18858   0.19079
     Eigenvalues ---    0.19621   0.20305   0.31099   0.32664   0.33054
     Eigenvalues ---    0.33493   0.33533   0.33799   0.33876   0.33953
     Eigenvalues ---    0.34081   0.34145   0.36031   0.36544   0.36571
     Eigenvalues ---    0.61583
 Eigenvectors required to have negative eigenvalues:
                          R9        R6        R5        R2        R10
   1                    0.60090  -0.54272   0.38069   0.29178  -0.21870
                          R1        D2        D17       A21       D16
   1                   -0.08090  -0.07035  -0.06957  -0.06639  -0.06609
 RFO step:  Lambda0=2.276629769D-03 Lambda=-2.80709617D-02.
 Linear search not attempted -- option 19 set.
 Maximum step size (   0.300) exceeded in Quadratic search.
    -- Step size scaled by   0.697
 Iteration  1 RMS(Cart)=  0.04867184 RMS(Int)=  0.00174877
 Iteration  2 RMS(Cart)=  0.00295827 RMS(Int)=  0.00074366
 Iteration  3 RMS(Cart)=  0.00000264 RMS(Int)=  0.00074365
 Iteration  4 RMS(Cart)=  0.00000000 RMS(Int)=  0.00074365
 Variable       Old X    -DE/DX   Delta X   Delta X   Delta X     New X
                                 (Linear)    (Quad)   (Total)
    R1        2.39516   0.00285   0.00000   0.00370   0.00411   2.39927
    R2        3.10569   0.02195   0.00000   0.02963   0.02881   3.13450
    R3        2.83594   0.00296   0.00000   0.01309   0.01309   2.84903
    R4        2.57046   0.03317   0.00000   0.04657   0.04657   2.61703
    R5        2.86329   0.00034   0.00000  -0.05566  -0.05434   2.80895
    R6        2.36230  -0.01879   0.00000   0.01336   0.01226   2.37456
    R7        2.73201  -0.00054   0.00000  -0.01855  -0.01855   2.71345
    R8        2.73770  -0.00054   0.00000  -0.00727  -0.00727   2.73043
    R9        2.47025  -0.00841   0.00000  -0.16904  -0.16979   2.30046
   R10        2.10247  -0.02097   0.00000  -0.05130  -0.05022   2.05224
   R11        2.06777   0.00049   0.00000   0.00147   0.00147   2.06924
   R12        2.06918  -0.00166   0.00000  -0.00347  -0.00347   2.06571
   R13        2.07263  -0.00225   0.00000  -0.00517  -0.00517   2.06746
   R14        2.08607  -0.00563   0.00000  -0.01160  -0.01160   2.07447
   R15        2.07572  -0.00279   0.00000  -0.00628  -0.00628   2.06943
   R16        2.07541  -0.00336   0.00000  -0.00690  -0.00690   2.06851
   R17        2.07037  -0.00203   0.00000  -0.00210  -0.00210   2.06827
   R18        2.06940  -0.00115   0.00000  -0.00062  -0.00062   2.06878
   R19        2.06831   0.00112   0.00000   0.00433   0.00433   2.07265
    A1        1.80390   0.00806   0.00000   0.04902   0.04889   1.85279
    A2        2.14658  -0.00901   0.00000  -0.03307  -0.03258   2.11400
    A3        1.95052   0.01246   0.00000   0.02718   0.02440   1.97492
    A4        1.90851  -0.00474   0.00000  -0.01449  -0.01454   1.89397
    A5        1.59834   0.01077   0.00000   0.03395   0.03355   1.63188
    A6        1.96470  -0.01078   0.00000  -0.03540  -0.03554   1.92916
    A7        2.01334  -0.02391   0.00000  -0.12479  -0.12438   1.88896
    A8        1.77834  -0.01297   0.00000  -0.04798  -0.04908   1.72927
    A9        2.01624   0.00786   0.00000   0.00907   0.01018   2.02642
   A10        1.86656   0.00745   0.00000   0.04135   0.04116   1.90772
   A11        1.92455   0.00521   0.00000   0.04447   0.04336   1.96791
   A12        1.88985  -0.00036   0.00000   0.01852   0.01874   1.90858
   A13        1.61251  -0.00044   0.00000  -0.03546  -0.03521   1.57730
   A14        1.93341  -0.00028   0.00000  -0.00027  -0.00030   1.93311
   A15        1.84583   0.00632   0.00000   0.02252   0.02240   1.86823
   A16        1.86602   0.00630   0.00000   0.01530   0.01518   1.88120
   A17        1.95369  -0.00371   0.00000  -0.01430  -0.01434   1.93935
   A18        1.93382  -0.00330   0.00000  -0.01005  -0.01007   1.92375
   A19        1.92724  -0.00447   0.00000  -0.01045  -0.01069   1.91655
   A20        2.70759   0.00717   0.00000   0.03296   0.03186   2.73945
   A21        2.34867   0.01649   0.00000   0.12316   0.12594   2.47462
   A22        1.91906  -0.00560   0.00000  -0.02618  -0.02635   1.89271
   A23        1.96957  -0.00233   0.00000  -0.01207  -0.01218   1.95738
   A24        1.94169  -0.00189   0.00000  -0.00863  -0.00870   1.93299
   A25        1.86965   0.00368   0.00000   0.01621   0.01599   1.88564
   A26        1.85804   0.00391   0.00000   0.01885   0.01873   1.87678
   A27        1.90113   0.00284   0.00000   0.01468   0.01466   1.91579
   A28        1.86650   0.00696   0.00000   0.02856   0.02830   1.89480
   A29        1.85376   0.00542   0.00000   0.01716   0.01697   1.87073
   A30        1.92832   0.00085   0.00000   0.00944   0.00931   1.93763
   A31        1.91987  -0.00443   0.00000  -0.01414  -0.01448   1.90540
   A32        1.94223  -0.00381   0.00000  -0.01669  -0.01689   1.92535
   A33        1.94935  -0.00410   0.00000  -0.02062  -0.02069   1.92867
    D1        0.76186   0.00112   0.00000  -0.02621  -0.02459   0.73727
    D2        2.92719  -0.00441   0.00000  -0.02414  -0.02335   2.90384
    D3       -0.93449  -0.01798   0.00000  -0.09313  -0.09328  -1.02777
    D4       -0.48799  -0.01276   0.00000  -0.05398  -0.05292  -0.54091
    D5        1.52798  -0.00835   0.00000  -0.03038  -0.03007   1.49791
    D6       -2.80179  -0.00413   0.00000  -0.03767  -0.03679  -2.83858
    D7       -0.78583   0.00028   0.00000  -0.01407  -0.01394  -0.79977
    D8        1.48089   0.00409   0.00000  -0.01033  -0.00887   1.47202
    D9       -2.78633   0.00850   0.00000   0.01328   0.01398  -2.77235
   D10        1.32755  -0.00164   0.00000  -0.02997  -0.02985   1.29770
   D11       -2.86945  -0.00237   0.00000  -0.03540  -0.03520  -2.90465
   D12       -0.72642  -0.00179   0.00000  -0.03150  -0.03138  -0.75781
   D13       -2.83816  -0.00191   0.00000  -0.00019  -0.00012  -2.83828
   D14       -0.75198  -0.00264   0.00000  -0.00561  -0.00546  -0.75744
   D15        1.39105  -0.00206   0.00000  -0.00172  -0.00165   1.38941
   D16       -1.08886   0.00369   0.00000   0.01707   0.01681  -1.07206
   D17        0.99732   0.00296   0.00000   0.01165   0.01146   1.00878
   D18        3.14035   0.00354   0.00000   0.01554   0.01528  -3.12756
   D19       -0.86565  -0.00164   0.00000   0.02764   0.02524  -0.84041
   D20        0.04823   0.00420   0.00000   0.02357   0.02379   0.07203
   D21       -2.07464  -0.00162   0.00000   0.01871   0.01947  -2.05517
   D22        1.30621   0.00323   0.00000   0.01131   0.01169   1.31789
   D23       -2.92713   0.00418   0.00000   0.01738   0.01793  -2.90920
   D24       -0.81008   0.00305   0.00000   0.00835   0.00873  -0.80135
   D25       -3.01186  -0.00373   0.00000  -0.01618  -0.01668  -3.02854
   D26       -0.96201  -0.00278   0.00000  -0.01012  -0.01044  -0.97245
   D27        1.15504  -0.00392   0.00000  -0.01915  -0.01964   1.13540
   D28       -0.90731  -0.00061   0.00000   0.00544   0.00522  -0.90209
   D29        1.21298  -0.00134   0.00000   0.00191   0.00160   1.21458
   D30       -3.01602  -0.00035   0.00000   0.00829   0.00817  -3.00785
   D31        0.83310   0.00081   0.00000  -0.00921  -0.00899   0.82411
   D32        2.95339   0.00007   0.00000  -0.01274  -0.01261   2.94078
   D33       -1.27561   0.00106   0.00000  -0.00636  -0.00604  -1.28165
   D34        1.99215   0.00268   0.00000   0.03100   0.03038   2.02253
   D35        0.06370   0.00230   0.00000   0.01738   0.01751   0.08121
   D36       -1.64399  -0.00152   0.00000  -0.03100  -0.03186  -1.67585
   D37        0.31545   0.00382   0.00000   0.00659   0.00438   0.31983
         Item               Value     Threshold  Converged?
 Maximum Force            0.033168     0.000450     NO 
 RMS     Force            0.007860     0.000300     NO 
 Maximum Displacement     0.177056     0.001800     NO 
 RMS     Displacement     0.048565     0.001200     NO 
 Predicted change in Energy=-1.300602D-02
 GradGradGradGradGradGradGradGradGradGradGradGradGradGradGradGradGradGrad

                          Input orientation:                          
 ---------------------------------------------------------------------
 Center     Atomic      Atomic             Coordinates (Angstroms)
 Number     Number       Type             X           Y           Z
 ---------------------------------------------------------------------
      1          6           0        1.012831   -0.451172    0.165830
      2          8           0        0.163435   -0.932267    0.977655
      3          8           0        0.213423    0.715233   -0.701211
      4          8           0       -1.810920   -0.584526   -0.403112
      5          6           0       -2.870173    0.004938    0.383147
      6          1           0       -2.461327    0.535594    1.249321
      7          1           0       -3.416102    0.686386   -0.274509
      8          1           0       -3.531359   -0.802398    0.711760
      9          1           0       -0.938870    0.214140   -0.692259
     10          1           0       -1.123248   -1.108078    0.254457
     11          6           0        2.317727    0.125066    0.653872
     12          1           0        2.975577   -0.703654    0.946346
     13          1           0        2.828267    0.705903   -0.121510
     14          1           0        2.159274    0.748603    1.539458
     15          6           0        0.167217    2.022421   -0.108820
     16          1           0        1.148096    2.493383   -0.226954
     17          1           0       -0.578835    2.602017   -0.661955
     18          1           0       -0.101679    1.963878    0.952892
     19          9           0        1.220879   -1.253509   -0.943605
 ---------------------------------------------------------------------
                    Distance matrix (angstroms):
                    1          2          3          4          5
     1  C    0.000000
     2  O    1.269640   0.000000
     3  O    1.658708   2.352732   0.000000
     4  O    2.883582   2.434239   2.424087   0.000000
     5  C    3.915734   3.230258   3.344984   1.444883   0.000000
     6  H    3.770601   3.019569   3.315288   2.099579   1.094992
     7  H    4.593842   4.123232   3.654636   2.051430   1.093125
     8  H    4.590322   3.706625   4.280547   2.061630   1.094050
     9  H    2.233404   2.306066   1.256564   1.217351   2.220404
    10  H    2.236562   1.486431   2.454476   1.086000   2.075358
    11  C    1.507643   2.421520   2.571505   4.320469   5.196347
    12  H    2.127281   2.821593   3.515278   4.974513   5.915411
    13  H    2.171910   3.315583   2.678348   4.823542   5.763527
    14  H    2.154215   2.669141   2.967835   4.616627   5.213964
    15  C    2.628527   3.148114   1.435898   3.285696   3.679402
    16  H    2.973715   3.762409   2.064062   4.273210   4.765612
    17  H    3.541270   3.966163   2.046746   3.426235   3.617635
    18  H    2.773818   2.908359   2.096297   3.354789   3.438984
    19  F    1.384874   2.216445   2.224785   3.151425   4.481146
                    6          7          8          9         10
     6  H    0.000000
     7  H    1.804548   0.000000
     8  H    1.795596   1.789550   0.000000
     9  H    2.488160   2.556210   3.118592   0.000000
    10  H    2.341339   2.959238   2.470135   1.636621   0.000000
    11  C    4.833472   5.835561   5.922444   3.524972   3.677021
    12  H    5.584573   6.654041   6.511912   4.341690   4.176438
    13  H    5.466991   6.246274   6.588941   3.841732   4.364212
    14  H    4.634599   5.863375   5.956004   3.855477   3.984148
    15  C    3.311260   3.827874   4.725718   2.198569   3.405479
    16  H    4.363515   4.909114   5.800056   3.125201   4.285007
    17  H    3.386275   3.445264   4.711107   2.415056   3.860182
    18  H    2.774131   3.758178   4.412837   2.543421   3.311847
    19  F    4.644186   5.070748   5.052475   2.623297   2.636558
                   11         12         13         14         15
    11  C    0.000000
    12  H    1.097763   0.000000
    13  H    1.095098   1.774504   0.000000
    14  H    1.094609   1.768384   1.791142   0.000000
    15  C    2.967549   4.053609   2.968934   2.882312   0.000000
    16  H    2.784388   3.864889   2.455439   2.680849   1.094480
    17  H    4.031967   5.113505   3.936454   3.972229   1.094753
    18  H    3.053550   4.072502   3.364732   2.633033   1.096797
    19  F    2.378125   2.636896   2.664363   3.324852   3.541015
                   16         17         18         19
    16  H    0.000000
    17  H    1.784185   0.000000
    18  H    1.798430   1.800731   0.000000
    19  F    3.815506   4.264197   3.962000   0.000000
 Stoichiometry    C4H11FO3
 Framework group  C1[X(C4H11FO3)]
 Deg. of freedom    51
 Full point group                 C1      NOp   1
 Largest Abelian subgroup         C1      NOp   1
 Largest concise Abelian subgroup C1      NOp   1
                         Standard orientation:                         
 ---------------------------------------------------------------------
 Center     Atomic      Atomic             Coordinates (Angstroms)
 Number     Number       Type             X           Y           Z
 ---------------------------------------------------------------------
      1          6           0        1.015759   -0.437241    0.145971
      2          8           0        0.175554   -0.940541    0.953888
      3          8           0        0.197877    0.729614   -0.703046
      4          8           0       -1.807739   -0.601322   -0.416147
      5          6           0       -2.872340   -0.036763    0.381089
      6          1           0       -2.467932    0.487851    1.253008
      7          1           0       -3.429540    0.645883   -0.265784
      8          1           0       -3.521492   -0.857282    0.700927
      9          1           0       -0.947500    0.212864   -0.697277
     10          1           0       -1.110946   -1.124177    0.232311
     11          6           0        2.314302    0.150117    0.637687
     12          1           0        2.984233   -0.673411    0.917113
     13          1           0        2.814453    0.748061   -0.131436
     14          1           0        2.150273    0.759643    1.531970
     15          6           0        0.135898    2.028081   -0.093172
     16          1           0        1.109936    2.513830   -0.207996
     17          1           0       -0.619692    2.604792   -0.636284
     18          1           0       -0.128775    1.951815    0.968476
     19          9           0        1.231080   -1.221893   -0.974670
 ---------------------------------------------------------------------
 Rotational constants (GHZ):      2.7049574      1.3610639      1.1397458
 Basis read from rwf:  (5D, 7F)
 Pseudo-potential data read from rwf file.
 There are   170 symmetry adapted cartesian basis functions of A   symmetry.
 There are   162 symmetry adapted basis functions of A   symmetry.
   162 basis functions,   298 primitive gaussians,   170 cartesian basis functions
    34 alpha electrons       34 beta electrons
       nuclear repulsion energy       452.0755594663 Hartrees.
 NAtoms=   19 NActive=   19 NUniq=   19 SFac= 1.00D+00 NAtFMM=   60 NAOKFM=F Big=F
 Integral buffers will be    131072 words long.
 Raffenetti 2 integral format.
 Two-electron integral symmetry is turned on.
 One-electron integrals computed using PRISM.
   1 Symmetry operations used in ECPInt.
 ECPInt:  NShTT=    2016 NPrTT=   10477 LenC2=    1995 LenP2D=    7397.
 LDataN:  DoStor=T MaxTD1= 4 Len=   56
 NBasis=   162 RedAO= T EigKep=  9.26D-05  NBF=   162
 NBsUse=   162 1.00D-06 EigRej= -1.00D+00 NBFU=   162
 Initial guess from the checkpoint file:  "/lustre/SCRATCH5/gau/Gau-14711.chk"
 B after Tr=     0.000000    0.000000    0.000000
         Rot=    0.999973   -0.004169   -0.001065   -0.005946 Ang=  -0.84 deg.
 ExpMin= 4.38D-02 ExpMax= 6.38D+03 ExpMxC= 9.59D+02 IAcc=2 IRadAn=         4 AccDes= 0.00D+00
 Harris functional with IExCor=  402 and IRadAn=       4 diagonalized for initial guess.
 HarFok:  IExCor=  402 AccDes= 0.00D+00 IRadAn=         4 IDoV= 1 UseB2=F ITyADJ=14
 ICtDFT=  3500011 ScaDFX=  1.000000  1.000000  1.000000  1.000000
 FoFCou: FMM=F IPFlag=           0 FMFlag=      100000 FMFlg1=           0
         NFxFlg=           0 DoJE=T BraDBF=F KetDBF=T FulRan=T
         wScrn=  0.000000 ICntrl=     500 IOpCl=  0 I1Cent=   200000004 NGrid=           0
         NMat0=    1 NMatS0=      1 NMatT0=    0 NMatD0=    1 NMtDS0=    0 NMtDT0=    0
 Petite list used in FoFCou.
 Requested convergence on RMS density matrix=1.00D-08 within 128 cycles.
 Requested convergence on MAX density matrix=1.00D-06.
 Requested convergence on             energy=1.00D-06.
 No special actions if energy rises.
 SCF Done:  E(RB3LYP) =  -484.547432997     A.U. after   12 cycles
            NFock= 12  Conv=0.32D-08     -V/T= 2.0071
   1 Symmetry operations used in ECPInt.
 ECPInt:  NShTT=    2016 NPrTT=   10477 LenC2=    1995 LenP2D=    7397.
 LDataN:  DoStor=T MaxTD1= 5 Len=  102
 Calling FoFJK, ICntrl=      2127 FMM=F ISym2X=0 I1Cent= 0 IOpClX= 0 NMat=1 NMatS=1 NMatT=0.
 ***** Axes restored to original set *****
 -------------------------------------------------------------------
 Center     Atomic                   Forces (Hartrees/Bohr)
 Number     Number              X              Y              Z
 -------------------------------------------------------------------
      1        6          -0.018333151   -0.003292021    0.001706259
      2        8           0.006884645   -0.007109215    0.012926718
      3        8          -0.009511680    0.015104735   -0.003869582
      4        8           0.003404144   -0.003437397    0.005937257
      5        6           0.000300611   -0.004267256   -0.004401837
      6        1          -0.000551868    0.000362674    0.000259953
      7        1          -0.000758195    0.000300090    0.001907235
      8        1          -0.000638391    0.001874682    0.000654204
      9        1           0.009143979   -0.004831044    0.001630850
     10        1          -0.002536451    0.014213807   -0.007536141
     11        6           0.006174361    0.001997345    0.002201389
     12        1          -0.002605188    0.000203708   -0.000945538
     13        1          -0.001014069   -0.001247836   -0.000217842
     14        1          -0.000998167   -0.000468299   -0.001302303
     15        6           0.002057445   -0.003880059   -0.003976294
     16        1          -0.001318569    0.001551055    0.001192299
     17        1           0.000343373    0.001270899    0.001518692
     18        1          -0.000413834    0.001105032    0.000475307
     19        9           0.010371003   -0.009450899   -0.008160625
 -------------------------------------------------------------------
 Cartesian Forces:  Max     0.018333151 RMS     0.005617750

 GradGradGradGradGradGradGradGradGradGradGradGradGradGradGradGradGradGrad
 Berny optimization.
 FormGI is forming the generalized inverse of G from B-inverse, IUseBI=4.
 Internal  Forces:  Max     0.013572630 RMS     0.003286279
 Search for a saddle point.
 Step number   2 out of a maximum of   99
 All quantities printed in internal units (Hartrees-Bohrs-Radians)
 Swapping is turned off.
 Update second derivatives using D2CorX and points    1    2
 ITU=  0  0
     Eigenvalues ---   -0.04776   0.00160   0.00197   0.00203   0.00258
     Eigenvalues ---    0.00354   0.00577   0.00901   0.01951   0.02698
     Eigenvalues ---    0.03425   0.04364   0.04506   0.05635   0.06430
     Eigenvalues ---    0.06519   0.06553   0.06595   0.06629   0.07030
     Eigenvalues ---    0.08303   0.09890   0.11763   0.12302   0.13155
     Eigenvalues ---    0.13681   0.13932   0.14582   0.15552   0.15730
     Eigenvalues ---    0.17924   0.18657   0.18756   0.18831   0.19075
     Eigenvalues ---    0.19605   0.20575   0.31077   0.32663   0.33052
     Eigenvalues ---    0.33490   0.33532   0.33798   0.33876   0.33951
     Eigenvalues ---    0.34080   0.34144   0.35981   0.36443   0.36568
     Eigenvalues ---    0.61567
 Eigenvectors required to have negative eigenvalues:
                          R9        R6        R5        R2        R10
   1                    0.56951  -0.55873   0.39437   0.29238  -0.23587
                          R1        D2        D17       D16       D18
   1                   -0.08063  -0.07857  -0.07090  -0.06679  -0.06328
 RFO step:  Lambda0=8.049667386D-04 Lambda=-6.75401743D-03.
 Linear search not attempted -- option 19 set.
 Iteration  1 RMS(Cart)=  0.08069227 RMS(Int)=  0.00621908
 Iteration  2 RMS(Cart)=  0.00852679 RMS(Int)=  0.00164492
 Iteration  3 RMS(Cart)=  0.00018282 RMS(Int)=  0.00164071
 Iteration  4 RMS(Cart)=  0.00000061 RMS(Int)=  0.00164071
 Variable       Old X    -DE/DX   Delta X   Delta X   Delta X     New X
                                 (Linear)    (Quad)   (Total)
    R1        2.39927   0.00160   0.00000   0.00851   0.00893   2.40820
    R2        3.13450   0.01025   0.00000   0.02092   0.01967   3.15418
    R3        2.84903   0.00144   0.00000   0.00915   0.00915   2.85818
    R4        2.61703   0.01357   0.00000   0.02847   0.02847   2.64551
    R5        2.80895   0.00083   0.00000  -0.15804  -0.15701   2.65194
    R6        2.37456  -0.00656   0.00000   0.01019   0.00946   2.38402
    R7        2.71345  -0.00030   0.00000  -0.01036  -0.01036   2.70310
    R8        2.73043  -0.00036   0.00000  -0.01296  -0.01296   2.71747
    R9        2.30046  -0.00069   0.00000  -0.06402  -0.06426   2.23620
   R10        2.05224  -0.00749   0.00000   0.01571   0.01690   2.06914
   R11        2.06924   0.00018   0.00000   0.00303   0.00303   2.07227
   R12        2.06571  -0.00058   0.00000  -0.00095  -0.00095   2.06476
   R13        2.06746  -0.00080   0.00000  -0.00202  -0.00202   2.06544
   R14        2.07447  -0.00197   0.00000  -0.00624  -0.00624   2.06823
   R15        2.06943  -0.00098   0.00000  -0.00386  -0.00386   2.06558
   R16        2.06851  -0.00118   0.00000  -0.00402  -0.00402   2.06449
   R17        2.06827  -0.00064   0.00000  -0.00100  -0.00100   2.06727
   R18        2.06878  -0.00033   0.00000  -0.00010  -0.00010   2.06869
   R19        2.07265   0.00050   0.00000   0.00270   0.00270   2.07535
    A1        1.85279   0.00376   0.00000   0.04003   0.03753   1.89032
    A2        2.11400  -0.00325   0.00000  -0.02074  -0.01876   2.09524
    A3        1.97492   0.00450   0.00000   0.01286   0.01066   1.98558
    A4        1.89397  -0.00264   0.00000  -0.01523  -0.01481   1.87916
    A5        1.63188   0.00464   0.00000   0.02792   0.02857   1.66046
    A6        1.92916  -0.00482   0.00000  -0.02887  -0.02939   1.89976
    A7        1.88896  -0.00972   0.00000  -0.08272  -0.08800   1.80096
    A8        1.72927  -0.00582   0.00000  -0.03888  -0.04017   1.68909
    A9        2.02642   0.00284   0.00000  -0.01318  -0.01437   2.01205
   A10        1.90772   0.00361   0.00000   0.02206   0.02146   1.92918
   A11        1.96791   0.00253   0.00000   0.04771   0.04556   2.01347
   A12        1.90858   0.00030   0.00000   0.03839   0.04203   1.95061
   A13        1.57730  -0.00076   0.00000  -0.05036  -0.05128   1.52602
   A14        1.93311  -0.00004   0.00000   0.00703   0.00697   1.94008
   A15        1.86823   0.00247   0.00000   0.01925   0.01914   1.88737
   A16        1.88120   0.00249   0.00000   0.01169   0.01158   1.89279
   A17        1.93935  -0.00158   0.00000  -0.01742  -0.01748   1.92188
   A18        1.92375  -0.00137   0.00000  -0.01147  -0.01151   1.91224
   A19        1.91655  -0.00176   0.00000  -0.00745  -0.00762   1.90893
   A20        2.73945   0.00241   0.00000  -0.00710  -0.00950   2.72995
   A21        2.47462   0.00818   0.00000   0.16469   0.16654   2.64115
   A22        1.89271  -0.00246   0.00000  -0.02024  -0.02036   1.87236
   A23        1.95738  -0.00096   0.00000  -0.01282  -0.01291   1.94447
   A24        1.93299  -0.00083   0.00000  -0.00294  -0.00296   1.93003
   A25        1.88564   0.00148   0.00000   0.01200   0.01181   1.89745
   A26        1.87678   0.00168   0.00000   0.01296   0.01292   1.88970
   A27        1.91579   0.00122   0.00000   0.01209   0.01208   1.92787
   A28        1.89480   0.00294   0.00000   0.01897   0.01886   1.91366
   A29        1.87073   0.00221   0.00000   0.01082   0.01074   1.88147
   A30        1.93763   0.00051   0.00000   0.00581   0.00576   1.94339
   A31        1.90540  -0.00189   0.00000  -0.00831  -0.00846   1.89694
   A32        1.92535  -0.00173   0.00000  -0.01024  -0.01032   1.91503
   A33        1.92867  -0.00189   0.00000  -0.01612  -0.01613   1.91254
    D1        0.73727   0.00061   0.00000  -0.02324  -0.02092   0.71635
    D2        2.90384  -0.00205   0.00000  -0.02314  -0.02146   2.88238
    D3       -1.02777  -0.00830   0.00000  -0.08000  -0.07805  -1.10583
    D4       -0.54091  -0.00535   0.00000  -0.06702  -0.06495  -0.60586
    D5        1.49791  -0.00349   0.00000  -0.07083  -0.06981   1.42810
    D6       -2.83858  -0.00210   0.00000  -0.05875  -0.05745  -2.89604
    D7       -0.79977  -0.00025   0.00000  -0.06256  -0.06231  -0.86208
    D8        1.47202   0.00182   0.00000  -0.03542  -0.03366   1.43835
    D9       -2.77235   0.00367   0.00000  -0.03923  -0.03852  -2.81087
   D10        1.29770  -0.00100   0.00000  -0.04872  -0.04798   1.24971
   D11       -2.90465  -0.00136   0.00000  -0.05487  -0.05405  -2.95870
   D12       -0.75781  -0.00107   0.00000  -0.05054  -0.04978  -0.80758
   D13       -2.83828  -0.00074   0.00000  -0.02293  -0.02384  -2.86212
   D14       -0.75744  -0.00110   0.00000  -0.02908  -0.02990  -0.78734
   D15        1.38941  -0.00082   0.00000  -0.02476  -0.02563   1.36377
   D16       -1.07206   0.00140   0.00000  -0.00976  -0.00971  -1.08176
   D17        1.00878   0.00104   0.00000  -0.01591  -0.01577   0.99301
   D18       -3.12756   0.00132   0.00000  -0.01159  -0.01150  -3.13906
   D19       -0.84041  -0.00055   0.00000   0.12467   0.12279  -0.71761
   D20        0.07203   0.00194   0.00000   0.05701   0.05205   0.12408
   D21       -2.05517   0.00022   0.00000   0.08291   0.08048  -1.97469
   D22        1.31789   0.00147   0.00000   0.01211   0.01346   1.33135
   D23       -2.90920   0.00199   0.00000   0.01818   0.01961  -2.88959
   D24       -0.80135   0.00137   0.00000   0.00874   0.01008  -0.79127
   D25       -3.02854  -0.00181   0.00000  -0.02929  -0.03069  -3.05923
   D26       -0.97245  -0.00130   0.00000  -0.02322  -0.02454  -0.99698
   D27        1.13540  -0.00192   0.00000  -0.03266  -0.03406   1.10134
   D28       -0.90209  -0.00013   0.00000   0.00299   0.00249  -0.89960
   D29        1.21458  -0.00053   0.00000  -0.00201  -0.00255   1.21203
   D30       -3.00785   0.00000   0.00000   0.00547   0.00504  -3.00282
   D31        0.82411   0.00020   0.00000  -0.01708  -0.01660   0.80752
   D32        2.94078  -0.00020   0.00000  -0.02208  -0.02164   2.91914
   D33       -1.28165   0.00033   0.00000  -0.01460  -0.01405  -1.29570
   D34        2.02253   0.00157   0.00000   0.07219   0.06797   2.09050
   D35        0.08121   0.00116   0.00000   0.04474   0.03844   0.11965
   D36       -1.67585  -0.00160   0.00000  -0.14040  -0.14233  -1.81818
   D37        0.31983   0.00087   0.00000  -0.10241  -0.10738   0.21245
         Item               Value     Threshold  Converged?
 Maximum Force            0.013573     0.000450     NO 
[...]
 ,-0.00023610,0.00211090,0.00854864,0.00010497,0.00038569,0.00863165,0.
 00386479,-0.00021234,-0.16310630,0.04352432,0.04240753,0.50129880,0.00
 161747,-0.00199026,0.00144261,-0.00175678,0.00109277,-0.00073670,-0.01
 117899,-0.00908722,-0.00133010,0.04901056,-0.10506985,-0.00967298,0.04
 745223,0.58093963,0.00244016,0.00208764,-0.00448681,-0.01181756,-0.001
 62882,-0.00505928,-0.00291482,-0.00239827,0.00110170,0.05600800,-0.014
 91602,-0.11098774,0.05432755,-0.03744938,0.57798110,-0.00009896,0.0001
 2509,0.00069523,0.00005439,-0.00046934,-0.00048128,-0.00064351,-0.0004
 1630,-0.00040953,-0.00347057,0.02554508,0.02971823,-0.07205516,-0.0474
 4400,-0.05703105,0.07662216,-0.00016843,0.00036064,-0.00081670,0.00049
 197,-0.00000163,0.00113412,0.00154894,0.00067227,0.00009110,0.00886985
 ,-0.00701063,-0.01150887,-0.04376886,-0.15161327,-0.11482145,0.0415741
 9,0.16033263,-0.00032259,-0.00093489,0.00068112,0.00180142,0.00031897,
 0.00031733,0.00100743,0.00147343,-0.00007251,0.00969672,-0.01047893,-0
 .00927713,-0.05246203,-0.11541053,-0.19453546,0.04979644,0.13395623,0.
 20896559,0.00097077,0.00125339,-0.00207371,-0.00388119,-0.00076554,-0.
 00111773,-0.00025699,-0.00109133,0.00058009,-0.02869325,0.02129886,-0.
 01783338,-0.11031302,0.05734237,-0.09326058,-0.00241939,0.00330378,-0.
 00697100,0.12949233,-0.00051611,-0.00020999,0.00073888,0.00191168,0.00
 025044,0.00074060,0.00052197,0.00034396,0.00002370,0.01407844,-0.00706
 742,0.00687243,0.06030678,-0.11447354,0.09341370,-0.01108220,0.0124499
 2,-0.01493319,-0.07460339,0.11940259,0.00000250,-0.00021006,0.00042267
 ,0.00138993,0.00021337,0.00088620,-0.00041348,-0.00012556,-0.00011527,
 0.01383757,-0.01246338,0.01647003,-0.10148289,0.09911667,-0.20085771,-
 0.01021547,0.01237194,-0.01508410,0.10161376,-0.10208065,0.20714749,0.
 00073524,-0.00117321,0.00087840,-0.00032363,0.00058258,-0.00087986,-0.
 00359487,-0.00227879,-0.00056054,-0.03085080,-0.01765676,0.01886571,-0
 .12351796,-0.10950927,0.04367978,-0.00264636,-0.00764353,0.00204050,0.
 01179301,0.01256251,-0.00519552,0.14427505,0.00002707,0.00011891,-0.00
 023244,-0.00030352,-0.00008250,0.00001745,0.00154535,0.00131814,0.0000
 8850,0.01432888,0.01721248,-0.00951103,-0.11768988,-0.21866483,0.07452
 956,-0.00930848,-0.01350762,0.00738331,-0.00807590,-0.01035896,0.00353
 666,0.11950489,0.22610400,-0.00042028,0.00034718,-0.00005346,0.0004420
 2,0.00004810,0.00015158,0.00198369,0.00148978,0.00007978,0.01639489,0.
 00897730,-0.00650204,0.04523901,0.06922819,-0.08300458,-0.01397688,-0.
 01931225,0.01068169,0.01298642,0.01888003,-0.00658228,-0.05937446,-0.0
 7571913,0.08540585,-0.01696285,0.04136665,-0.03602126,-0.02842839,-0.0
 1413905,0.01003504,0.00622355,0.01543696,0.01209801,-0.02898889,0.0177
 2788,-0.01889971,-0.02243501,0.00597642,0.00925896,0.00253230,-0.00238
 252,-0.00223000,0.00088947,-0.00138245,0.00015104,0.00428117,-0.000300
 90,-0.00245865,0.02229572,0.01019493,0.03669253,-0.01830876,-0.0197407
 0,-0.00902513,0.00494152,0.04423181,-0.02848368,0.00824359,-0.00222091
 ,-0.06762464,0.00386001,-0.00026570,0.02392729,-0.00351192,0.00177181,
 -0.00139967,-0.00232979,0.00116331,-0.00040305,0.00053865,0.00671665,-
 0.00250276,-0.00348999,-0.04774178,0.09278208,-0.01422881,-0.00859682,
 0.01076533,0.00946431,0.00092350,-0.00212137,0.00314501,0.00075838,-0.
 03290336,-0.00267980,-0.00214267,-0.03091246,0.00822693,0.00137529,-0.
 00598883,0.00042778,0.00093762,-0.00008218,-0.00136529,0.00011805,0.00
 054662,-0.00062753,-0.00053898,0.00039869,0.00784487,-0.01419537,0.080
 88027,-0.03331281,-0.03458527,0.05483897,0.04322546,0.01428625,0.00178
 515,-0.02626075,0.00796049,-0.01187123,-0.06491647,-0.00061417,-0.0073
 1122,-0.02472852,0.01095326,-0.00028368,0.00264964,-0.00170685,-0.0026
 3961,0.00280955,-0.00202526,0.00036384,0.00067014,0.00010757,-0.001188
 10,0.04469812,0.01475271,0.00108384,0.04835908,-0.00794925,0.00489696,
 -0.01080142,-0.00819307,-0.02497311,0.00287057,0.00560835,0.00116435,-
 0.00052437,0.01683928,-0.04245840,0.01750438,0.00981027,-0.00631517,0.
 00304846,0.00002317,0.00008909,0.00110659,0.00011384,0.00020709,-0.000
 96547,-0.00153472,0.00056276,-0.00001167,-0.00147187,-0.01741836,0.024
 74201,-0.01100355,0.08618954,0.00421042,-0.01558756,0.04521839,0.03290
 991,0.00984259,-0.03449678,-0.01545424,0.00481216,-0.00793819,-0.03915
 936,0.02779820,-0.10620418,0.00304293,-0.00702151,0.02373643,0.0017264
 4,-0.00229842,-0.00144174,0.00673969,-0.00340863,-0.00268390,0.0011690
 2,0.00044749,-0.00036864,0.01737366,0.02578421,-0.01507554,-0.01538325
 ,-0.04158088,0.11405255,-0.17713618,-0.04708479,-0.03146874,-0.0279788
 3,-0.01471715,0.00524194,-0.01525822,0.00400666,-0.00849342,-0.0019247
 6,0.00040836,-0.00104653,0.00050856,-0.00017726,-0.00031675,-0.0000030
 4,0.00002666,0.00003808,-0.00010161,0.00007373,0.00000915,-0.00006786,
 -0.00001043,0.00004454,0.00084346,0.00141984,-0.00034511,0.00346896,-0
 .00127453,0.00236448,0.50199182,-0.04178817,-0.08897296,-0.01355449,-0
 .02392145,0.00073290,0.00264993,0.02713109,-0.00194543,0.01339286,-0.0
 0066124,0.00371946,-0.00383323,-0.00001741,0.00026774,-0.00025656,-0.0
 0001327,-0.00005363,0.00009452,-0.00016947,0.00004066,0.00004042,0.000
 13662,-0.00003394,-0.00003883,-0.00438413,-0.00594907,0.00265059,0.004
 74435,-0.00060449,0.00358486,-0.01799065,0.58172892,-0.02898832,-0.014
 54037,-0.08235214,0.03570731,0.01417562,0.00629300,-0.01511423,0.00279
 788,-0.00375683,0.00233905,-0.00331115,0.00417082,-0.00030702,0.000012
 70,0.00056809,-0.00000302,0.00002216,-0.00011015,0.00023543,-0.0000939
 4,-0.00008289,-0.00005758,0.00001583,-0.00001721,0.00266300,0.00275135
 ,-0.00140170,-0.00554138,0.00272209,-0.00551548,-0.03480564,-0.0030133
 3,0.59853870,-0.01755737,0.02706002,-0.01025190,0.00232402,-0.00249592
 ,0.00075825,-0.00589944,-0.00034080,-0.00215579,-0.00007450,-0.0009714
 9,0.00090258,0.00010311,-0.00010764,0.00002267,-0.00000130,0.00002258,
 -0.00001309,0.00002892,-0.00000088,-0.00000744,-0.00005475,0.00000847,
 0.00002130,0.00145736,0.00168593,-0.00074049,-0.00096474,0.00009024,-0
 .00062538,-0.12715571,0.11229998,-0.04810472,0.13675247,-0.00630264,0.
 00767211,-0.00356957,0.00024950,0.00010250,-0.00026718,-0.00267485,0.0
 0114868,-0.00169445,0.00001209,-0.00011718,0.00011709,0.00002849,-0.00
 001050,-0.00002620,-0.00000706,-0.00000243,0.00001382,-0.00000500,0.00
 000109,-0.00000381,0.00000158,0.00000628,0.00000340,-0.00000348,0.0002
 3570,-0.00017270,-0.00001284,0.00008391,-0.00011663,0.11447727,-0.2103
 5024,0.07003102,-0.12343338,0.22604072,-0.00531134,0.00822159,-0.00400
 567,0.00151542,-0.00013404,-0.00017433,-0.00324851,-0.00026938,-0.0003
 6847,-0.00023485,-0.00051099,0.00035255,0.00004502,-0.00006378,0.00000
 299,-0.00000404,0.00000762,-0.00000276,0.00000900,0.00000266,-0.000004
 94,-0.00002702,0.00000892,0.00001580,0.00078680,0.00093003,-0.00025455
 ,-0.00036261,0.00003163,-0.00024321,-0.04813988,0.06909092,-0.07601185
 ,0.05431444,-0.07561910,0.07865640,-0.01079389,-0.01096269,0.02885219,
 -0.00921123,-0.00374566,-0.00170100,0.00228291,0.00105232,-0.00075191,
 -0.00081706,0.00144319,-0.00160708,0.00019843,0.00001823,-0.00025362,-
 0.00000722,-0.00001215,0.00005589,-0.00011143,0.00004512,0.00002914,0.
 00002602,-0.00000977,0.00001116,-0.00129859,-0.00121059,0.00043711,0.0
 0257568,-0.00103635,0.00205515,-0.10614456,-0.05227059,0.09523077,0.01
 011067,0.00664771,-0.01503079,0.11397024,-0.00139963,-0.00550693,0.011
 18098,-0.00406285,0.00027666,-0.00058516,0.00082794,-0.00001993,-0.000
 62515,-0.00076576,0.00038122,-0.00074049,0.00015457,-0.00004895,-0.000
 14928,0.00000743,0.00000763,0.00002051,-0.00005244,0.00003119,0.000023
 90,-0.00001168,-0.00000869,0.00001186,-0.00017900,-0.00019508,0.000144
 55,0.00124953,-0.00005037,0.00101469,-0.05325513,-0.09583950,0.0857538
 8,-0.01313067,-0.00953986,0.01893224,0.05801205,0.09917943,-0.00391209
 ,-0.00427698,0.00592200,-0.00280184,-0.00086834,0.00146171,0.00020225,
 -0.00056533,0.00065448,-0.00003139,0.00003775,-0.00015201,0.00001873,-
 0.00001835,0.00003066,-0.00000608,0.00000025,-0.00000983,0.00001141,0.
 00000402,-0.00000390,-0.00000157,-0.00000366,-0.00000038,0.00006110,0.
 00000253,0.00006641,-0.00004808,-0.00005277,0.00027985,0.10057318,0.08
 837218,-0.21910001,0.00437283,0.00280282,-0.00747564,-0.10752667,-0.09
 679658,0.23337921,0.00681383,-0.02042895,-0.02203504,0.00083323,0.0021
 3434,0.00082040,0.00076181,0.00088507,0.00130550,0.00020940,0.00006874
 ,0.00005073,0.00000288,-0.00001389,-0.00000411,-0.00002298,0.00000628,
 0.00001916,0.00000443,-0.00000223,-0.00000246,0.00001036,0.00000867,0.
 00000056,-0.00024387,-0.00033988,0.00004633,-0.00015567,0.00017833,-0.
 00015298,-0.05265283,0.01680198,0.02188354,-0.00137336,0.01090730,0.01
 455937,-0.00160046,0.01153809,0.00952167,0.05373756,0.00565924,-0.0082
 7217,-0.00755533,-0.00057461,0.00097865,0.00168290,-0.00054029,-0.0000
 9650,-0.00002483,-0.00011406,-0.00014878,0.00014951,0.00009333,-0.0000
 6237,-0.00002817,-0.00001083,0.00002248,0.00000780,0.00000027,0.000007
 25,0.00000229,-0.00001986,-0.00000173,0.00000430,0.00029281,0.00017060
 ,-0.00017668,-0.00015205,0.00012059,-0.00007005,0.01337503,-0.16770510
 ,-0.13432391,0.00117713,-0.01579774,-0.01918792,-0.00006395,0.01137282
 ,0.01111668,-0.01808664,0.18023847,0.00401565,-0.00529235,-0.00827877,
 0.00029669,0.00135400,0.00097326,-0.00046452,0.00119935,0.00023917,0.0
 0002896,0.00011985,-0.00007708,0.00002893,-0.00001806,-0.00003201,-0.0
 0001677,0.00000267,0.00003460,-0.00001254,-0.00000239,-0.00000572,0.00
 000781,0.00001309,0.00000453,-0.00023712,-0.00022045,0.00004274,-0.000
 01089,-0.00003663,-0.00000141,0.01780372,-0.13496334,-0.19993409,-0.00
 014796,0.00787795,0.00959163,0.00090438,-0.01689549,-0.01609091,-0.019
 68878,0.14852150,0.21334137,0.00256089,0.00314281,0.01288424,0.0014528
 3,0.00021287,-0.00122734,-0.08507637,0.00566242,-0.01175504,-0.0065774
 4,-0.00182422,0.00442194,-0.00024716,-0.00178891,0.00047006,-0.0001585
 4,-0.00005508,0.00004507,-0.00012893,-0.00001510,-0.00009950,-0.000624
 02,0.00018746,0.00018937,0.01383022,-0.00975911,-0.01104064,-0.0016386
 6,0.00019881,-0.00136038,-0.00138516,0.00111557,-0.00149242,0.00006810
 ,-0.00025701,0.00014892,-0.00065210,0.00058397,0.00026562,-0.00038813,
 0.00071646,-0.00044014,0.60401732,0.01185051,-0.03361702,0.00501032,0.
 00190915,0.00625535,-0.00665146,0.00413291,-0.17488015,-0.05273236,0.0
 1062101,0.00780735,-0.00301982,-0.00394993,0.00232759,0.00215278,0.000
 14753,-0.00051037,-0.00088695,0.00053436,-0.00013821,0.00015380,0.0005
 4380,-0.00048806,-0.00050628,-0.01569350,-0.01883448,-0.00297469,-0.00
 086575,-0.00165539,0.00015239,-0.00024858,0.00236796,0.00080072,-0.001
 74713,-0.00084005,-0.00086926,-0.00002084,0.00047274,0.00048187,0.0006
 1127,-0.00047056,-0.00121120,0.00890413,0.48227122,0.01089442,-0.01023
 831,0.02122623,0.00351644,0.00533412,-0.00967120,-0.01050521,-0.061680
 84,-0.11401792,0.00663240,0.00287264,-0.00131775,-0.00154263,0.0017476
 8,0.00178800,0.00046372,-0.00033758,-0.00057790,0.00002913,-0.00025653
 ,-0.00018081,0.00022410,-0.00027278,-0.00046524,-0.00767336,-0.0055912
 8,0.00020578,-0.00213987,0.00018686,-0.00050350,-0.00141156,0.00225933
 ,-0.00092179,-0.00036268,-0.00004470,-0.00031111,0.00029571,-0.0002482
 0,-0.00012308,-0.00129943,0.00043737,-0.00019889,0.01416087,-0.0645425
 0,0.55557052,-0.00090085,0.00137881,-0.00116261,0.00022008,-0.00030226
 ,0.00029234,0.00886130,-0.00257270,-0.00275450,-0.00011739,-0.00012149
 ,0.00011220,0.00000457,-0.00001264,0.00014302,0.00001348,-0.00000736,-
 0.00015102,0.00005586,0.00003304,0.00002987,-0.00002654,-0.00006931,-0
 .00002856,0.00130429,0.00139563,0.00026998,-0.00015829,0.00022350,-0.0
 0011965,-0.00013441,0.00053694,-0.00071211,0.00022981,0.00029529,0.000
 29266,-0.00017107,0.00005087,-0.00006756,-0.00037877,0.00068205,0.0002
 5752,-0.27009289,-0.10331249,0.02209168,0.28541532,-0.00421092,0.00192
 399,-0.00192171,0.00100535,-0.00055554,0.00110932,-0.02946789,-0.03003
 902,-0.00688036,-0.00361705,-0.00189351,0.00192238,0.00045580,-0.00089
 011,-0.00016179,-0.00004011,0.00005799,0.00016380,-0.00010758,0.000024
 82,-0.00004918,-0.00030491,0.00014910,0.00012774,0.00739921,0.00141882
 ,-0.00206903,-0.00050172,0.00051215,-0.00060610,0.00003332,-0.00036887
 ,0.00025052,0.00020538,0.00035227,-0.00002452,0.00058313,-0.00027838,-
 0.00036470,0.00037740,-0.00031313,0.00066629,-0.09646749,-0.09358156,0
 .01327800,0.11286840,0.11333701,0.00055781,0.00138606,-0.00092095,-0.0
 0059238,0.00012828,0.00071075,-0.01815889,-0.01560298,0.00046534,-0.00
 207740,-0.00084347,0.00081691,0.00020528,-0.00059112,-0.00039335,-0.00
 012955,0.00010193,0.00020609,0.00001550,0.00004637,0.00004236,-0.00010
 065,0.00011691,0.00017854,0.00368414,0.00040921,-0.00125785,-0.0000444
 6,-0.00004692,-0.00028418,-0.00014194,-0.00012802,0.00055185,0.0000741
 2,-0.00013083,-0.00017421,0.00011334,0.00001474,0.00006018,-0.00026551
 ,0.00049007,-0.00054866,0.02494644,0.01390361,-0.05499331,-0.02169371,
 -0.00534898,0.05368221,0.00014315,-0.00192864,0.00078281,0.00032420,0.
 00022345,-0.00031037,0.00361936,0.00292031,0.00262742,0.00062376,0.000
 62162,-0.00036838,-0.00021174,0.00008577,0.00014212,0.00000380,-0.0000
 7747,0.00001163,0.00001528,-0.00003984,-0.00003467,0.00003339,0.000006
 19,-0.00001362,-0.00059444,-0.00092067,0.00048593,0.00001865,-0.000008
 23,0.00003833,0.00000558,0.00003758,-0.00028860,0.00014278,0.00021325,
 0.00013346,0.00011748,-0.00017435,-0.00017413,-0.00015720,0.00009812,0
 .00038148,-0.17989331,0.09786190,-0.08947431,-0.01880309,0.01584402,-0
 .01532590,0.18704771,-0.00368802,0.00570475,-0.00817802,-0.00169191,-0
 .00127559,0.00247786,0.02366340,-0.03502195,0.01107949,-0.00178095,-0.
 00002476,-0.00050902,0.00043129,-0.00032573,-0.00022515,-0.00003482,-0
 .00000533,0.00027350,-0.00024783,-0.00001505,-0.00008806,-0.00007726,0
 .00014443,0.00004832,0.00220166,0.00015379,0.00047500,0.00174256,-0.00
 009697,0.00089335,-0.00008036,-0.00016881,0.00018994,0.00019344,0.0002
 1673,0.00018899,0.00007303,-0.00010355,-0.00014698,0.00013827,0.000058
 43,0.00035537,0.09321835,-0.12006248,0.06893681,-0.00889531,0.01007013
 ,-0.00689268,-0.10891858,0.14436269,-0.00089370,0.00193210,-0.00415285
 ,-0.00085471,-0.00054517,0.00179086,0.01512555,-0.01697105,0.01028158,
 0.00046402,0.00020693,-0.00032542,-0.00018622,0.00017207,0.00029981,-0
 .00005562,0.00001539,-0.00025805,0.00006991,0.00006096,0.00007455,0.00
 002644,-0.00011056,-0.00007313,-0.00047418,-0.00008802,0.00075678,0.00
 012036,-0.00000910,0.00003364,-0.00005869,-0.00034229,-0.00019567,0.00
 004693,0.00013056,0.00015430,-0.00000847,0.00007131,0.00005251,0.00024
 226,0.00018537,0.00030769,-0.09209246,0.07411446,-0.11580651,0.0031587
 8,-0.00202536,0.00240938,0.09703468,-0.07138982,0.11745687,0.00089455,
 -0.00006917,0.00185320,-0.00070584,-0.00020135,-0.00053705,0.00298143,
 0.00424985,0.00112993,0.00001249,0.00059902,-0.00013536,-0.00015800,-0
 .00019906,-0.00036111,-0.00022062,-0.00012709,0.00013723,-0.00000255,0
 .00003662,0.00004442,0.00003221,0.00005627,0.00005571,-0.00057524,-0.0
 0033686,-0.00075300,0.00070526,-0.00035932,0.00043582,-0.00025293,0.00
 014462,0.00064698,0.00005272,-0.00010739,-0.00024189,0.00017073,-0.000
 06962,-0.00014764,-0.00063612,0.00001263,-0.00032360,-0.07221879,-0.01
 066246,0.05984831,-0.00561194,-0.00477102,0.02900619,0.00750208,0.0023
 7198,-0.02244540,0.06827943,0.00065257,0.00268271,-0.00468456,-0.00117
 533,0.00075707,0.00170272,0.00866450,-0.00928569,-0.03909901,-0.000537
 39,-0.00071742,0.00061203,-0.00003141,-0.00018313,0.00004292,-0.000209
 61,0.00004746,-0.00001407,0.00001804,0.00002873,0.00003316,-0.00004589
 ,0.00001595,0.00002605,0.00244599,0.00154042,-0.00086628,-0.00058426,-
 0.00013134,-0.00060428,0.00003728,-0.00045868,0.00024450,0.00009611,0.
 00005110,0.00003611,-0.00008069,-0.00004149,-0.00004678,0.00019602,0.0
 0009321,0.00003940,-0.01095419,-0.05702700,0.04158232,-0.00177146,0.00
 004163,0.01308165,-0.00605075,-0.00078477,0.01606346,0.00942811,0.0633
 6239,-0.00204894,0.00482441,-0.00411397,-0.00154609,-0.00101113,0.0025
 7195,0.00306635,-0.01529810,-0.01534842,-0.00207222,-0.00078196,0.0006
 1473,0.00057031,-0.00061923,-0.00080528,-0.00018710,0.00013686,0.00048
 881,-0.00004018,0.00004569,0.00001897,-0.00004560,0.00019591,0.0002400
 9,0.00334089,0.00159398,-0.00099573,0.00063130,-0.00019870,0.00012942,
 0.00014468,-0.00045676,-0.00001559,0.00011177,0.00009336,0.00016317,-0
 .00010998,0.00008874,0.00004608,0.00011601,0.00017454,0.00030146,0.060
 99732,0.03613736,-0.28221854,0.00010104,0.00179598,-0.00049545,0.00430
 160,0.00317134,-0.01259289,-0.06782849,-0.02930519,0.31153229,-0.07026
 509,-0.01210809,0.00122697,0.00207454,0.01696096,0.03934752,-0.0004174
 8,0.02788783,0.00869103,-0.00290287,0.00062745,-0.00014216,0.00123646,
 -0.00026786,-0.00024906,-0.00012812,0.00010511,0.00013978,-0.00015126,
 0.00009756,-0.00001978,-0.00014979,-0.00001265,0.00009187,0.00117162,-
 0.00079641,0.00034857,0.00295538,-0.00025490,0.00018940,0.00337771,-0.
 02173237,-0.02329104,0.00181120,-0.00002880,0.00079584,0.00135542,0.00
 067668,-0.00030973,-0.00476410,-0.00254476,-0.00238283,-0.00284785,-0.
 00061587,-0.00374773,0.00029054,0.00071669,-0.00007243,0.00006256,0.00
 138106,0.00078054,-0.00024889,-0.00009763,0.00049733,0.06754003,-0.019
 90925,-0.10004403,-0.04475900,0.01417134,0.02100242,-0.01059999,0.0157
 2549,-0.04821212,-0.01816886,0.00513162,0.00221103,0.00099226,-0.00026
 754,0.00017992,0.00029795,-0.00015827,0.00006447,0.00017589,0.00009025
 ,-0.00012151,-0.00004470,0.00020725,0.00001705,-0.00011408,-0.00516890
 ,-0.00508530,-0.00039176,-0.00374500,-0.00012284,-0.00303587,0.0009807
 2,-0.01640692,-0.02448552,-0.00061136,0.00074689,-0.00077175,0.0015384
 9,-0.00008895,0.00032237,-0.00498014,-0.00019441,-0.00150956,0.0071782
 7,0.00060313,0.00657758,-0.00039953,0.00003221,-0.00009385,0.00020632,
 -0.00282594,-0.00147125,0.00000424,0.00000886,-0.00058710,-0.00999400,
 0.14823602,-0.01725130,-0.04537160,-0.11207452,0.04608556,-0.01751149,
 -0.06487793,0.00262886,-0.00719728,0.00906692,0.00583227,-0.00182422,0
 .00561551,-0.00041566,-0.00016349,0.00064229,-0.00031145,0.00031739,0.
 00007657,0.00038405,-0.00017176,-0.00000737,-0.00002143,0.00003494,-0.
 00008959,0.00069679,-0.00131951,-0.00266904,-0.01199910,0.00201534,-0.
 00869353,0.00000851,-0.02554874,-0.02070705,0.00178457,0.00057515,0.00
 008991,-0.00099531,-0.00121705,0.00100267,-0.00511724,-0.00140545,0.00
 033111,0.00097805,0.00048721,0.00251705,-0.00005935,0.00013772,-0.0000
 5562,0.00005053,-0.00066025,-0.00021343,-0.00038426,0.00115586,0.00047
 893,-0.02189409,0.09766722,0.18956714\\-0.00000885,0.00001479,-0.00000
 945,0.00000212,-0.00000874,0.00000387,0.00000024,0.00003619,-0.0000127
 9,-0.00003389,-0.00000614,0.00003514,-0.00000825,0.00000148,-0.0000020
 2,0.00000144,-0.00000335,0.00000562,-0.00000180,0.00000535,0.00000570,
 -0.00000089,0.00000101,0.,0.00002605,0.00001464,-0.00002754,0.00000108
 ,-0.00002026,-0.00000996,-0.00000014,-0.00000641,-0.00000263,0.0000011
 8,-0.00000503,-0.00000701,0.00000017,-0.00000063,-0.00000425,0.0000023
 2,-0.00000716,-0.00000342,0.00000794,-0.00000346,0.00001303,0.00000110
 ,0.00000300,0.00000594,0.00000007,0.00000220,0.00000955,0.00000226,-0.
 00000432,0.00000817,0.00000785,-0.00001317,-0.00000794\\\@


 IF AT FIRST YOU DON'T SUCCEED, TRY, TRY AGAIN.
 THEN GIVE UP;
 THERE'S NO USE BEING A DAMN FOOL ABOUT IT.

                                 -- W. C. FIELDS
 Job cpu time:       0 days  0 hours 12 minutes 31.6 seconds.
 File lengths (MBytes):  RWF=     63 Int=      0 D2E=      0 Chk=      3 Scr=      1
 Normal termination of Gaussian 09 at Mon Feb 23 12:17:46 2015.
