 Entering Gaussian System, Link 0=g09
 Initial command:
 /opt/gridware/applications/gaussian/g09/l1.exe "/lustre/SCRATCH5/gau/Gau-22378.inp" -scrdir="/lustre/SCRATCH5/gau/"
 Entering Link 1 = /opt/gridware/applications/gaussian/g09/l1.exe PID=     22379.
  
 Copyright (c) 1988,1990,1992,1993,1995,1998,2003,2009,2013,
            Gaussian, Inc.  All Rights Reserved.
  
 This is part of the Gaussian(R) 09 program.  It is based on
 the Gaussian(R) 03 system (copyright 2003, Gaussian, Inc.),
 the Gaussian(R) 98 system (copyright 1998, Gaussian, Inc.),
 the Gaussian(R) 94 system (copyright 1995, Gaussian, Inc.),
 the Gaussian 92(TM) system (copyright 1992, Gaussian, Inc.),
 the Gaussian 90(TM) system (copyright 1990, Gaussian, Inc.),
 the Gaussian 88(TM) system (copyright 1988, Gaussian, Inc.),
 the Gaussian 86(TM) system (copyright 1986, Carnegie Mellon
 University), and the Gaussian 82(TM) system (copyright 1983,
 Carnegie Mellon University). Gaussian is a federally registered
 trademark of Gaussian, Inc.
  
 This software contains proprietary and confidential information,
 including trade secrets, belonging to Gaussian, Inc.
  
 This software is provided under written license and may be
 used, copied, transmitted, or stored only in accord with that
 written license.
  
 The following legend is applicable only to US Government
 contracts under FAR:
  
                    RESTRICTED RIGHTS LEGEND
  
 Use, reproduction and disclosure by the US Government is
 subject to restrictions as set forth in subparagraphs (a)
 and (c) of the Commercial Computer Software - Restricted
 Rights clause in FAR 52.227-19.
  
 Gaussian, Inc.
 340 Quinnipiac St., Bldg. 40, Wallingford CT 06492
  
  
 ---------------------------------------------------------------
 Warning -- This program may not be used in any manner that
 competes with the business of Gaussian, Inc. or will provide
 assistance to any competitor of Gaussian, Inc.  The licensee
 of this program is prohibited from giving any competitor of
 Gaussian, Inc. access to this program.  By using this program,
 the user acknowledges that Gaussian, Inc. is engaged in the
 business of creating and licensing software in the field of
 computational chemistry and represents and warrants to the
 licensee that it is not a competitor of Gaussian, Inc. and that
 it will not use this program in any manner prohibited above.
 ---------------------------------------------------------------
  

 Cite this work as:
 Gaussian 09, Revision D.01,
 M. J. Frisch, G. W. Trucks, H. B. Schlegel, G. E. Scuseria, 
 M. A. Robb, J. R. Cheeseman, G. Scalmani, V. Barone, B. Mennucci, 
 G. A. Petersson, H. Nakatsuji, M. Caricato, X. Li, H. P. Hratchian, 
 A. F. Izmaylov, J. Bloino, G. Zheng, J. L. Sonnenberg, M. Hada, 
 M. Ehara, K. Toyota, R. Fukuda, J. Hasegawa, M. Ishida, T. Nakajima, 
 Y. Honda, O. Kitao, H. Nakai, T. Vreven, J. A. Montgomery, Jr., 
 J. E. Peralta, F. Ogliaro, M. Bearpark, J. J. Heyd, E. Brothers, 
 K. N. Kudin, V. N. Staroverov, T. Keith, R. Kobayashi, J. Normand, 
 K. Raghavachari, A. Rendell, J. C. Burant, S. S. Iyengar, J. Tomasi, 
 M. Cossi, N. Rega, J. M. Millam, M. Klene, J. E. Knox, J. B. Cross, 
 V. Bakken, C. Adamo, J. Jaramillo, R. Gomperts, R. E. Stratmann, 
 O. Yazyev, A. J. Austin, R. Cammi, C. Pomelli, J. W. Ochterski, 
 R. L. Martin, K. Morokuma, V. G. Zakrzewski, G. A. Voth, 
 P. Salvador, J. J. Dannenberg, S. Dapprich, A. D. Daniels, 
 O. Farkas, J. B. Foresman, J. V. Ortiz, J. Cioslowski, 
 and D. J. Fox, Gaussian, Inc., Wallingford CT, 2013.
 
 ******************************************
 Gaussian 09:  EM64L-G09RevD.01 24-Apr-2013
                19-Feb-2015 
 ******************************************
 %nprocshared=8
 Will use up to    8 processors via shared memory.
 %nprocl=1
 Will use up to    1 processors via Linda.
 ----------------------------------------------------------------------
 # opt=(calcfc,ts,noeigentest) freq=noraman b3lyp/gen pseudo=read gfinp
 ut geom=connectivity
 ----------------------------------------------------------------------
 1/5=1,10=4,11=1,14=-1,18=20,26=3,38=1,57=2/1,3;
 2/9=110,12=2,17=6,18=5,40=1/2;
 3/5=7,11=2,16=1,17=8,24=10,25=1,30=1,71=2,74=-5,140=1/1,2,3;
 4//1;
 5/5=2,38=5/2;
 8/6=4,10=90,11=11/1;
 11/6=1,8=1,9=11,15=111,16=1/1,2,10;
 10/6=1,13=1/2;
 6/7=2,8=2,9=2,10=2,28=1/1;
 7/10=1,18=20,25=1/1,2,3,16;
 1/5=1,10=4,11=1,14=-1,18=20,26=3/3(2);
 2/9=110/2;
 99//99;
 2/9=110/2;
 3/5=7,6=1,11=2,16=1,17=8,25=1,30=1,71=1,74=-5,82=7/1,2,3;
 4/5=5,16=3,69=1/1;
 5/5=2,38=5/2;
 7//1,2,3,16;
 1/5=1,11=1,14=-1,18=20,26=3/3(-5);
 2/9=110/2;
 6/7=2,8=2,9=2,10=2,19=2,28=1/1;
 99/9=1/99;
 -------------------------
 gen calculation ts624F-C H O=6-31+g(d)/F=def2tzvp
 -------------------------
 Symbolic Z-matrix:
 Charge =  0 Multiplicity = 1
 C                     1.03864  -0.44423   0.15046 
 O                     0.14066  -0.92438   0.90514 
 O                     0.23413   0.69407  -0.72018 
 O                    -1.87108  -0.6155   -0.42045 
 C                    -2.86906   0.02124   0.41467 
 H                    -2.40055   0.51502   1.27139 
 H                    -3.38905   0.73373  -0.23411 
 H                    -3.55655  -0.76608   0.74698 
 H                    -0.92912   0.23641  -0.72989 
 H                    -1.18981  -1.20177   0.23529 
 C                     2.3178    0.14147   0.67281 
 H                     3.00343  -0.66652   0.98211 
 H                     2.84725   0.74589  -0.07611 
 H                     2.13892   0.75634   1.56506 
 C                     0.16568   2.00624  -0.11717 
 H                     1.15585   2.46142  -0.22981 
 H                    -0.5738    2.57023  -0.69535 
 H                    -0.11844   1.92899   0.93699 
 F                     1.22932  -1.21061  -0.95703 
 
 Add virtual bond connecting atoms H10        and O4         Dist= 2.10D+00.
 Add virtual bond connecting atoms H9         and O3         Dist= 2.36D+00.
 Add virtual bond connecting atoms H9         and O4         Dist= 2.47D+00.
 Add virtual bond connecting atoms O3         and C1         Dist= 3.11D+00.
 Add virtual bond connecting atoms H10        and O2         Dist= 2.86D+00.

 GradGradGradGradGradGradGradGradGradGradGradGradGradGradGradGradGradGrad
 Berny optimization.
 Initialization pass.
                           ----------------------------
                           !    Initial Parameters    !
                           ! (Angstroms and Degrees)  !
 --------------------------                            --------------------------
 ! Name  Definition              Value          Derivative Info.                !
 --------------------------------------------------------------------------------
 ! R1    R(1,2)                  1.2675         calculate D2E/DX2 analytically  !
 ! R2    R(1,3)                  1.6435         calculate D2E/DX2 analytically  !
 ! R3    R(1,11)                 1.5007         calculate D2E/DX2 analytically  !
 ! R4    R(1,19)                 1.3602         calculate D2E/DX2 analytically  !
 ! R5    R(2,10)                 1.5152         calculate D2E/DX2 analytically  !
 ! R6    R(3,9)                  1.2501         calculate D2E/DX2 analytically  !
 ! R7    R(3,15)                 1.4457         calculate D2E/DX2 analytically  !
 ! R8    R(4,5)                  1.4487         calculate D2E/DX2 analytically  !
 ! R9    R(4,9)                  1.3072         calculate D2E/DX2 analytically  !
 ! R10   R(4,10)                 1.1126         calculate D2E/DX2 analytically  !
 ! R11   R(5,6)                  1.0942         calculate D2E/DX2 analytically  !
 ! R12   R(5,7)                  1.095          calculate D2E/DX2 analytically  !
 ! R13   R(5,8)                  1.0968         calculate D2E/DX2 analytically  !
 ! R14   R(11,12)                1.1039         calculate D2E/DX2 analytically  !
 ! R15   R(11,13)                1.0984         calculate D2E/DX2 analytically  !
 ! R16   R(11,14)                1.0983         calculate D2E/DX2 analytically  !
 ! R17   R(15,16)                1.0956         calculate D2E/DX2 analytically  !
 ! R18   R(15,17)                1.0951         calculate D2E/DX2 analytically  !
 ! R19   R(15,18)                1.0945         calculate D2E/DX2 analytically  !
 ! A1    A(2,1,3)              103.3558         calculate D2E/DX2 analytically  !
 ! A2    A(2,1,11)             122.9901         calculate D2E/DX2 analytically  !
 ! A3    A(2,1,19)             111.7568         calculate D2E/DX2 analytically  !
 ! A4    A(3,1,11)             109.3495         calculate D2E/DX2 analytically  !
 ! A5    A(3,1,19)              91.5779         calculate D2E/DX2 analytically  !
 ! A6    A(11,1,19)            112.569          calculate D2E/DX2 analytically  !
 ! A7    A(1,2,10)             115.3559         calculate D2E/DX2 analytically  !
 ! A8    A(1,3,9)              101.8916         calculate D2E/DX2 analytically  !
 ! A9    A(1,3,15)             115.5219         calculate D2E/DX2 analytically  !
 ! A10   A(9,3,15)             106.946          calculate D2E/DX2 analytically  !
 ! A11   A(5,4,9)              110.2684         calculate D2E/DX2 analytically  !
 ! A12   A(5,4,10)             108.2803         calculate D2E/DX2 analytically  !
 ! A13   A(9,4,10)              92.3898         calculate D2E/DX2 analytically  !
 ! A14   A(4,5,6)              110.7762         calculate D2E/DX2 analytically  !
 ! A15   A(4,5,7)              105.7583         calculate D2E/DX2 analytically  !
 ! A16   A(4,5,8)              106.9153         calculate D2E/DX2 analytically  !
 ! A17   A(6,5,7)              111.9383         calculate D2E/DX2 analytically  !
 ! A18   A(6,5,8)              110.7995         calculate D2E/DX2 analytically  !
 ! A19   A(7,5,8)              110.4227         calculate D2E/DX2 analytically  !
 ! A20   A(3,9,4)              155.1338         calculate D2E/DX2 analytically  !
 ! A21   A(2,10,4)             134.5691         calculate D2E/DX2 analytically  !
 ! A22   A(1,11,12)            109.9543         calculate D2E/DX2 analytically  !
 ! A23   A(1,11,13)            112.848          calculate D2E/DX2 analytically  !
 ! A24   A(1,11,14)            111.2506         calculate D2E/DX2 analytically  !
 ! A25   A(12,11,13)           107.1229         calculate D2E/DX2 analytically  !
 ! A26   A(12,11,14)           106.4581         calculate D2E/DX2 analytically  !
 ! A27   A(13,11,14)           108.9267         calculate D2E/DX2 analytically  !
 ! A28   A(3,15,16)            106.9428         calculate D2E/DX2 analytically  !
 ! A29   A(3,15,17)            106.2125         calculate D2E/DX2 analytically  !
 ! A30   A(3,15,18)            110.4844         calculate D2E/DX2 analytically  !
 ! A31   A(16,15,17)           110.0007         calculate D2E/DX2 analytically  !
 ! A32   A(16,15,18)           111.2818         calculate D2E/DX2 analytically  !
 ! A33   A(17,15,18)           111.6898         calculate D2E/DX2 analytically  !
 ! D1    D(3,1,2,10)            43.6513         calculate D2E/DX2 analytically  !
 ! D2    D(11,1,2,10)          167.7157         calculate D2E/DX2 analytically  !
 ! D3    D(19,1,2,10)          -53.5425         calculate D2E/DX2 analytically  !
 ! D4    D(2,1,3,9)            -27.9597         calculate D2E/DX2 analytically  !
 ! D5    D(2,1,3,15)            87.5466         calculate D2E/DX2 analytically  !
 ! D6    D(11,1,3,9)          -160.5309         calculate D2E/DX2 analytically  !
 ! D7    D(11,1,3,15)          -45.0246         calculate D2E/DX2 analytically  !
 ! D8    D(19,1,3,9)            84.849          calculate D2E/DX2 analytically  !
 ! D9    D(19,1,3,15)         -159.6447         calculate D2E/DX2 analytically  !
 ! D10   D(2,1,11,12)           76.0629         calculate D2E/DX2 analytically  !
 ! D11   D(2,1,11,13)         -164.4075         calculate D2E/DX2 analytically  !
 ! D12   D(2,1,11,14)          -41.6209         calculate D2E/DX2 analytically  !
 ! D13   D(3,1,11,12)         -162.6147         calculate D2E/DX2 analytically  !
 ! D14   D(3,1,11,13)          -43.0851         calculate D2E/DX2 analytically  !
 ! D15   D(3,1,11,14)           79.7015         calculate D2E/DX2 analytically  !
 ! D16   D(19,1,11,12)         -62.3871         calculate D2E/DX2 analytically  !
 ! D17   D(19,1,11,13)          57.1425         calculate D2E/DX2 analytically  !
 ! D18   D(19,1,11,14)         179.929          calculate D2E/DX2 analytically  !
 ! D19   D(1,2,10,4)           -49.5979         calculate D2E/DX2 analytically  !
 ! D20   D(1,3,9,4)              2.7636         calculate D2E/DX2 analytically  !
 ! D21   D(15,3,9,4)          -118.8679         calculate D2E/DX2 analytically  !
 ! D22   D(1,3,15,16)           74.8403         calculate D2E/DX2 analytically  !
 ! D23   D(1,3,15,17)         -167.7123         calculate D2E/DX2 analytically  !
 ! D24   D(1,3,15,18)          -46.4143         calculate D2E/DX2 analytically  !
 ! D25   D(9,3,15,16)         -172.5666         calculate D2E/DX2 analytically  !
 ! D26   D(9,3,15,17)          -55.1191         calculate D2E/DX2 analytically  !
 ! D27   D(9,3,15,18)           66.1789         calculate D2E/DX2 analytically  !
 ! D28   D(9,4,5,6)            -51.9849         calculate D2E/DX2 analytically  !
 ! D29   D(9,4,5,7)             69.4987         calculate D2E/DX2 analytically  !
 ! D30   D(9,4,5,8)           -172.8052         calculate D2E/DX2 analytically  !
 ! D31   D(10,4,5,6)            47.7332         calculate D2E/DX2 analytically  !
 ! D32   D(10,4,5,7)           169.2168         calculate D2E/DX2 analytically  !
 ! D33   D(10,4,5,8)           -73.0871         calculate D2E/DX2 analytically  !
 ! D34   D(5,4,9,3)            114.1418         calculate D2E/DX2 analytically  !
 ! D35   D(10,4,9,3)             3.65           calculate D2E/DX2 analytically  !
 ! D36   D(5,4,10,2)           -94.1936         calculate D2E/DX2 analytically  !
 ! D37   D(9,4,10,2)            18.0741         calculate D2E/DX2 analytically  !
 --------------------------------------------------------------------------------
 Trust Radius=3.00D-01 FncErr=1.00D-07 GrdErr=1.00D-06
 Number of steps in this run=     99 maximum allowed number of steps=    114.
 Search for a saddle point of order  1.
 GradGradGradGradGradGradGradGradGradGradGradGradGradGradGradGradGradGrad

                          Input orientation:                          
 ---------------------------------------------------------------------
 Center     Atomic      Atomic             Coordinates (Angstroms)
 Number     Number       Type             X           Y           Z
 ---------------------------------------------------------------------
      1          6           0        1.038638   -0.444228    0.150458
      2          8           0        0.140657   -0.924384    0.905138
      3          8           0        0.234125    0.694069   -0.720178
      4          8           0       -1.871075   -0.615496   -0.420445
      5          6           0       -2.869059    0.021236    0.414667
      6          1           0       -2.400549    0.515022    1.271394
      7          1           0       -3.389051    0.733726   -0.234110
      8          1           0       -3.556552   -0.766079    0.746980
      9          1           0       -0.929120    0.236408   -0.729885
     10          1           0       -1.189813   -1.201772    0.235293
     11          6           0        2.317801    0.141469    0.672809
     12          1           0        3.003432   -0.666516    0.982111
     13          1           0        2.847250    0.745892   -0.076114
     14          1           0        2.138920    0.756342    1.565055
     15          6           0        0.165676    2.006238   -0.117169
     16          1           0        1.155848    2.461422   -0.229811
     17          1           0       -0.573795    2.570231   -0.695350
     18          1           0       -0.118440    1.928985    0.936989
     19          9           0        1.229320   -1.210607   -0.957029
 ---------------------------------------------------------------------
                    Distance matrix (angstroms):
                    1          2          3          4          5
     1  C    0.000000
     2  O    1.267463   0.000000
     3  O    1.643462   2.295600   0.000000
     4  O    2.970133   2.428919   2.497332   0.000000
     5  C    3.944180   3.192671   3.371992   1.448728   0.000000
     6  H    3.742281   2.943427   3.307556   2.102554   1.094215
     7  H    4.597814   4.062764   3.655850   2.039454   1.094964
     8  H    4.644911   3.703975   4.319006   2.055818   1.096788
     9  H    2.260606   2.272699   1.250075   1.307200   2.262667
    10  H    2.355221   1.515185   2.556313   1.112578   2.085136
    11  C    1.500716   2.435154   2.566610   4.394870   5.194671
    12  H    2.145105   2.875396   3.523924   5.072532   5.939793
    13  H    2.176878   3.328411   2.691826   4.922858   5.782921
    14  H    2.157098   2.693211   2.975636   4.680193   5.190725
    15  C    2.615047   3.103914   1.445715   3.333740   3.665065
    16  H    2.932771   3.712466   2.052698   4.320420   4.750762
    17  H    3.521689   3.909519   2.042874   3.450705   3.605239
    18  H    2.754923   2.865285   2.096550   3.374721   3.387954
    19  F    1.360229   2.175954   2.162013   3.202269   4.493962
                    6          7          8          9         10
     6  H    0.000000
     7  H    1.814252   0.000000
     8  H    1.803489   1.800003   0.000000
     9  H    2.499569   2.558198   3.176399   0.000000
    10  H    2.342385   2.967009   2.460306   1.751540   0.000000
    11  C    4.770815   5.808737   5.944507   3.538228   3.781411
    12  H    5.539199   6.656103   6.564952   4.383055   4.292731
    13  H    5.422958   6.238314   6.631155   3.866259   4.493133
    14  H    4.555354   5.813430   5.951925   3.866517   4.084476
    15  C    3.276789   3.777439   4.720961   2.169400   3.500415
    16  H    4.323199   4.862207   5.794618   3.089960   4.374636
    17  H    3.380680   3.392810   4.701927   2.360970   3.933647
    18  H    2.705391   3.673828   4.372652   2.510077   3.382581
    19  F    4.595608   5.062844   5.099590   2.608507   2.697020
                   11         12         13         14         15
    11  C    0.000000
    12  H    1.103901   0.000000
    13  H    1.098421   1.771759   0.000000
    14  H    1.098258   1.764010   1.787534   0.000000
    15  C    2.955177   4.050295   2.963275   2.878508   0.000000
    16  H    2.747188   3.829663   2.414023   2.663695   1.095592
    17  H    4.016475   5.107539   3.926221   3.969691   1.095079
    18  H    3.033195   4.060141   3.349836   2.620159   1.094504
    19  F    2.381023   2.683984   2.687303   3.325232   3.490673
                   16         17         18         19
    16  H    0.000000
    17  H    1.794500   0.000000
    18  H    1.807961   1.811926   0.000000
    19  F    3.744067   4.196956   3.906507   0.000000
 Stoichiometry    C4H11FO3
 Framework group  C1[X(C4H11FO3)]
 Deg. of freedom    51
 Full point group                 C1      NOp   1
 Largest Abelian subgroup         C1      NOp   1
 Largest concise Abelian subgroup C1      NOp   1
                         Standard orientation:                         
 ---------------------------------------------------------------------
 Center     Atomic      Atomic             Coordinates (Angstroms)
 Number     Number       Type             X           Y           Z
 ---------------------------------------------------------------------
      1          6           0        1.038638   -0.444228    0.150458
      2          8           0        0.140657   -0.924384    0.905138
      3          8           0        0.234125    0.694069   -0.720178
      4          8           0       -1.871075   -0.615496   -0.420445
      5          6           0       -2.869059    0.021236    0.414667
      6          1           0       -2.400549    0.515022    1.271394
      7          1           0       -3.389051    0.733726   -0.234110
      8          1           0       -3.556552   -0.766079    0.746980
      9          1           0       -0.929120    0.236408   -0.729885
     10          1           0       -1.189813   -1.201772    0.235293
     11          6           0        2.317801    0.141469    0.672809
     12          1           0        3.003432   -0.666516    0.982111
     13          1           0        2.847250    0.745892   -0.076114
     14          1           0        2.138920    0.756342    1.565055
     15          6           0        0.165676    2.006238   -0.117169
     16          1           0        1.155848    2.461422   -0.229811
     17          1           0       -0.573795    2.570231   -0.695350
     18          1           0       -0.118440    1.928985    0.936989
     19          9           0        1.229320   -1.210607   -0.957029
 ---------------------------------------------------------------------
 Rotational constants (GHZ):      2.7524908      1.3461166      1.1357869
 General basis read from cards:  (5D, 7F)
 ======================================================================================================
                                       Pseudopotential Parameters
 ======================================================================================================
  Center     Atomic      Valence      Angular      Power
  Number     Number     Electrons     Momentum     of R      Exponent        Coefficient   SO-Coeffient
 ======================================================================================================
    1          6
                                   No pseudopotential on this center.
    2          8
                                   No pseudopotential on this center.
    3          8
                                   No pseudopotential on this center.
    4          8
                                   No pseudopotential on this center.
    5          6
                                   No pseudopotential on this center.
    6          1
                                   No pseudopotential on this center.
    7          1
                                   No pseudopotential on this center.
    8          1
                                   No pseudopotential on this center.
    9          1
                                   No pseudopotential on this center.
   10          1
                                   No pseudopotential on this center.
   11          6
                                   No pseudopotential on this center.
   12          1
                                   No pseudopotential on this center.
   13          1
                                   No pseudopotential on this center.
   14          1
                                   No pseudopotential on this center.
   15          6
                                   No pseudopotential on this center.
   16          1
                                   No pseudopotential on this center.
   17          1
                                   No pseudopotential on this center.
   18          1
                                   No pseudopotential on this center.
   19          9
                                   No pseudopotential on this center.
 ======================================================================================================
 AO basis set in the form of general basis input (Overlap normalization):
      1 0
 S   6 1.00       0.000000000000
      0.3047524880D+04  0.1834737132D-02
      0.4573695180D+03  0.1403732281D-01
      0.1039486850D+03  0.6884262226D-01
      0.2921015530D+02  0.2321844432D+00
      0.9286662960D+01  0.4679413484D+00
      0.3163926960D+01  0.3623119853D+00
 SP   3 1.00       0.000000000000
      0.7868272350D+01 -0.1193324198D+00  0.6899906659D-01
      0.1881288540D+01 -0.1608541517D+00  0.3164239610D+00
      0.5442492580D+00  0.1143456438D+01  0.7443082909D+00
 SP   1 1.00       0.000000000000
      0.1687144782D+00  0.1000000000D+01  0.1000000000D+01
 SP   1 1.00       0.000000000000
      0.4380000000D-01  0.1000000000D+01  0.1000000000D+01
 D   1 1.00       0.000000000000
      0.8000000000D+00  0.1000000000D+01
 ****
      2 0
 S   6 1.00       0.000000000000
      0.5484671660D+04  0.1831074430D-02
      0.8252349460D+03  0.1395017220D-01
      0.1880469580D+03  0.6844507810D-01
      0.5296450000D+02  0.2327143360D+00
      0.1689757040D+02  0.4701928980D+00
      0.5799635340D+01  0.3585208530D+00
 SP   3 1.00       0.000000000000
      0.1553961625D+02 -0.1107775495D+00  0.7087426823D-01
      0.3599933586D+01 -0.1480262627D+00  0.3397528391D+00
      0.1013761750D+01  0.1130767015D+01  0.7271585773D+00
 SP   1 1.00       0.000000000000
      0.2700058226D+00  0.1000000000D+01  0.1000000000D+01
 SP   1 1.00       0.000000000000
      0.8450000000D-01  0.1000000000D+01  0.1000000000D+01
 D   1 1.00       0.000000000000
      0.8000000000D+00  0.1000000000D+01
 ****
      3 0
 S   6 1.00       0.000000000000
      0.5484671660D+04  0.1831074430D-02
      0.8252349460D+03  0.1395017220D-01
      0.1880469580D+03  0.6844507810D-01
      0.5296450000D+02  0.2327143360D+00
      0.1689757040D+02  0.4701928980D+00
      0.5799635340D+01  0.3585208530D+00
 SP   3 1.00       0.000000000000
      0.1553961625D+02 -0.1107775495D+00  0.7087426823D-01
      0.3599933586D+01 -0.1480262627D+00  0.3397528391D+00
      0.1013761750D+01  0.1130767015D+01  0.7271585773D+00
 SP   1 1.00       0.000000000000
      0.2700058226D+00  0.1000000000D+01  0.1000000000D+01
 SP   1 1.00       0.000000000000
      0.8450000000D-01  0.1000000000D+01  0.1000000000D+01
 D   1 1.00       0.000000000000
      0.8000000000D+00  0.1000000000D+01
 ****
      4 0
 S   6 1.00       0.000000000000
      0.5484671660D+04  0.1831074430D-02
      0.8252349460D+03  0.1395017220D-01
      0.1880469580D+03  0.6844507810D-01
      0.5296450000D+02  0.2327143360D+00
      0.1689757040D+02  0.4701928980D+00
      0.5799635340D+01  0.3585208530D+00
 SP   3 1.00       0.000000000000
      0.1553961625D+02 -0.1107775495D+00  0.7087426823D-01
      0.3599933586D+01 -0.1480262627D+00  0.3397528391D+00
      0.1013761750D+01  0.1130767015D+01  0.7271585773D+00
 SP   1 1.00       0.000000000000
      0.2700058226D+00  0.1000000000D+01  0.1000000000D+01
 SP   1 1.00       0.000000000000
      0.8450000000D-01  0.1000000000D+01  0.1000000000D+01
 D   1 1.00       0.000000000000
      0.8000000000D+00  0.1000000000D+01
 ****
      5 0
 S   6 1.00       0.000000000000
      0.3047524880D+04  0.1834737132D-02
      0.4573695180D+03  0.1403732281D-01
      0.1039486850D+03  0.6884262226D-01
      0.2921015530D+02  0.2321844432D+00
      0.9286662960D+01  0.4679413484D+00
      0.3163926960D+01  0.3623119853D+00
 SP   3 1.00       0.000000000000
      0.7868272350D+01 -0.1193324198D+00  0.6899906659D-01
      0.1881288540D+01 -0.1608541517D+00  0.3164239610D+00
      0.5442492580D+00  0.1143456438D+01  0.7443082909D+00
 SP   1 1.00       0.000000000000
      0.1687144782D+00  0.1000000000D+01  0.1000000000D+01
 SP   1 1.00       0.000000000000
      0.4380000000D-01  0.1000000000D+01  0.1000000000D+01
 D   1 1.00       0.000000000000
      0.8000000000D+00  0.1000000000D+01
 ****
      6 0
 S   3 1.00       0.000000000000
      0.1873113696D+02  0.3349460434D-01
      0.2825394365D+01  0.2347269535D+00
      0.6401216923D+00  0.8137573261D+00
 S   1 1.00       0.000000000000
      0.1612777588D+00  0.1000000000D+01
 ****
      7 0
 S   3 1.00       0.000000000000
      0.1873113696D+02  0.3349460434D-01
      0.2825394365D+01  0.2347269535D+00
      0.6401216923D+00  0.8137573261D+00
 S   1 1.00       0.000000000000
      0.1612777588D+00  0.1000000000D+01
 ****
      8 0
 S   3 1.00       0.000000000000
      0.1873113696D+02  0.3349460434D-01
      0.2825394365D+01  0.2347269535D+00
      0.6401216923D+00  0.8137573261D+00
 S   1 1.00       0.000000000000
      0.1612777588D+00  0.1000000000D+01
 ****
      9 0
 S   3 1.00       0.000000000000
      0.1873113696D+02  0.3349460434D-01
      0.2825394365D+01  0.2347269535D+00
      0.6401216923D+00  0.8137573261D+00
 S   1 1.00       0.000000000000
      0.1612777588D+00  0.1000000000D+01
 ****
     10 0
 S   3 1.00       0.000000000000
      0.1873113696D+02  0.3349460434D-01
      0.2825394365D+01  0.2347269535D+00
      0.6401216923D+00  0.8137573261D+00
 S   1 1.00       0.000000000000
      0.1612777588D+00  0.1000000000D+01
 ****
     11 0
 S   6 1.00       0.000000000000
      0.3047524880D+04  0.1834737132D-02
      0.4573695180D+03  0.1403732281D-01
      0.1039486850D+03  0.6884262226D-01
      0.2921015530D+02  0.2321844432D+00
      0.9286662960D+01  0.4679413484D+00
      0.3163926960D+01  0.3623119853D+00
 SP   3 1.00       0.000000000000
      0.7868272350D+01 -0.1193324198D+00  0.6899906659D-01
      0.1881288540D+01 -0.1608541517D+00  0.3164239610D+00
      0.5442492580D+00  0.1143456438D+01  0.7443082909D+00
 SP   1 1.00       0.000000000000
      0.1687144782D+00  0.1000000000D+01  0.1000000000D+01
 SP   1 1.00       0.000000000000
      0.4380000000D-01  0.1000000000D+01  0.1000000000D+01
 D   1 1.00       0.000000000000
      0.8000000000D+00  0.1000000000D+01
 ****
     12 0
 S   3 1.00       0.000000000000
      0.1873113696D+02  0.3349460434D-01
      0.2825394365D+01  0.2347269535D+00
      0.6401216923D+00  0.8137573261D+00
 S   1 1.00       0.000000000000
      0.1612777588D+00  0.1000000000D+01
 ****
     13 0
 S   3 1.00       0.000000000000
      0.1873113696D+02  0.3349460434D-01
      0.2825394365D+01  0.2347269535D+00
      0.6401216923D+00  0.8137573261D+00
 S   1 1.00       0.000000000000
      0.1612777588D+00  0.1000000000D+01
 ****
     14 0
 S   3 1.00       0.000000000000
      0.1873113696D+02  0.3349460434D-01
      0.2825394365D+01  0.2347269535D+00
      0.6401216923D+00  0.8137573261D+00
 S   1 1.00       0.000000000000
      0.1612777588D+00  0.1000000000D+01
 ****
     15 0
 S   6 1.00       0.000000000000
      0.3047524880D+04  0.1834737132D-02
      0.4573695180D+03  0.1403732281D-01
      0.1039486850D+03  0.6884262226D-01
      0.2921015530D+02  0.2321844432D+00
      0.9286662960D+01  0.4679413484D+00
      0.3163926960D+01  0.3623119853D+00
 SP   3 1.00       0.000000000000
      0.7868272350D+01 -0.1193324198D+00  0.6899906659D-01
      0.1881288540D+01 -0.1608541517D+00  0.3164239610D+00
      0.5442492580D+00  0.1143456438D+01  0.7443082909D+00
 SP   1 1.00       0.000000000000
      0.1687144782D+00  0.1000000000D+01  0.1000000000D+01
 SP   1 1.00       0.000000000000
      0.4380000000D-01  0.1000000000D+01  0.1000000000D+01
 D   1 1.00       0.000000000000
      0.8000000000D+00  0.1000000000D+01
 ****
     16 0
 S   3 1.00       0.000000000000
      0.1873113696D+02  0.3349460434D-01
      0.2825394365D+01  0.2347269535D+00
      0.6401216923D+00  0.8137573261D+00
 S   1 1.00       0.000000000000
      0.1612777588D+00  0.1000000000D+01
 ****
     17 0
 S   3 1.00       0.000000000000
      0.1873113696D+02  0.3349460434D-01
      0.2825394365D+01  0.2347269535D+00
      0.6401216923D+00  0.8137573261D+00
 S   1 1.00       0.000000000000
      0.1612777588D+00  0.1000000000D+01
 ****
     18 0
 S   3 1.00       0.000000000000
      0.1873113696D+02  0.3349460434D-01
      0.2825394365D+01  0.2347269535D+00
      0.6401216923D+00  0.8137573261D+00
 S   1 1.00       0.000000000000
      0.1612777588D+00  0.1000000000D+01
 ****
     19 0
 S   6 1.00       0.000000000000
      0.3547910044D+05  0.5618499111D-03
      0.5318472898D+04  0.4355197381D-02
      0.1210481098D+04  0.2261824715D-01
      0.3428551814D+03  0.9140305514D-01
      0.1120194318D+03  0.2911687069D+00
      0.4071474025D+02  0.6777270856D+00
 S   2 1.00       0.000000000000
      0.1603967811D+02  0.6329641788D+00
      0.6503818674D+01  0.4013647573D+00
 S   1 1.00       0.000000000000
      0.1544047751D+01  0.1000000000D+01
 S   1 1.00       0.000000000000
      0.6122345286D+00  0.1000000000D+01
 S   1 1.00       0.000000000000
      0.2402797970D+00  0.1000000000D+01
 P   4 1.00       0.000000000000
      0.8023390048D+02  0.1232134514D-01
      0.1859401074D+02  0.8571339535D-01
      0.5686790265D+01  0.3263310550D+00
      0.1951100629D+01  0.6997111464D+00
 P   1 1.00       0.000000000000
      0.6697021130D+00  0.1000000000D+01
 P   1 1.00       0.000000000000
      0.2165130041D+00  0.1000000000D+01
 D   1 1.00       0.000000000000
      0.3107000000D+01  0.1000000000D+01
 D   1 1.00       0.000000000000
      0.8550000000D+00  0.1000000000D+01
 F   1 1.00       0.000000000000
      0.1917000000D+01  0.1000000000D+01
 ****

 There are   191 symmetry adapted cartesian basis functions of A   symmetry.
 There are   179 symmetry adapted basis functions of A   symmetry.
   179 basis functions,   319 primitive gaussians,   191 cartesian basis functions
    34 alpha electrons       34 beta electrons
       nuclear repulsion energy       452.3329082244 Hartrees.
 NAtoms=   19 NActive=   19 NUniq=   19 SFac= 1.00D+00 NAtFMM=   60 NAOKFM=F Big=F
 Integral buffers will be    131072 words long.
 Raffenetti 2 integral format.
 Two-electron integral symmetry is turned on.
 One-electron integrals computed using PRISM.
 PrsmSu:  requested number of processors reduced to:   4 ShMem   1 Linda.
   1 Symmetry operations used in ECPInt.
 ECPInt:  NShTT=    2346 NPrTT=   11207 LenC2=    2314 LenP2D=    8014.
 LDataN:  DoStor=T MaxTD1= 6 Len=  172
 NBasis=   179 RedAO= T EigKep=  8.86D-05  NBF=   179
 NBsUse=   179 1.00D-06 EigRej= -1.00D+00 NBFU=   179
 ExpMin= 4.38D-02 ExpMax= 3.55D+04 ExpMxC= 1.21D+03 IAcc=2 IRadAn=         4 AccDes= 0.00D+00
 Harris functional with IExCor=  402 and IRadAn=       4 diagonalized for initial guess.
 HarFok:  IExCor=  402 AccDes= 0.00D+00 IRadAn=         4 IDoV= 1 UseB2=F ITyADJ=14
 ICtDFT=  3500011 ScaDFX=  1.000000  1.000000  1.000000  1.000000
 FoFCou: FMM=F IPFlag=           0 FMFlag=      100000 FMFlg1=           0
         NFxFlg=           0 DoJE=T BraDBF=F KetDBF=T FulRan=T
         wScrn=  0.000000 ICntrl=     500 IOpCl=  0 I1Cent=   200000004 NGrid=           0
         NMat0=    1 NMatS0=      1 NMatT0=    0 NMatD0=    1 NMtDS0=    0 NMtDT0=    0
 Petite list used in FoFCou.
 Requested convergence on RMS density matrix=1.00D-08 within 128 cycles.
 Requested convergence on MAX density matrix=1.00D-06.
 Requested convergence on             energy=1.00D-06.
 No special actions if energy rises.
 SCF Done:  E(RB3LYP) =  -484.554511188     A.U. after   13 cycles
            NFock= 13  Conv=0.40D-08     -V/T= 2.0060
 DoSCS=F DFT=T ScalE2(SS,OS)=  1.000000  1.000000
 Range of M.O.s used for correlation:     1   179
 NBasis=   179 NAE=    34 NBE=    34 NFC=     0 NFV=     0
 NROrb=    179 NOA=    34 NOB=    34 NVA=   145 NVB=   145

 **** Warning!!: The largest alpha MO coefficient is  0.25542701D+02

 PrsmSu:  requested number of processors reduced to:   4 ShMem   1 Linda.
 PrsmSu:  requested number of processors reduced to:   7 ShMem   1 Linda.
   1 Symmetry operations used in ECPInt.
 ECPInt:  NShTT=    2346 NPrTT=   11207 LenC2=    2314 LenP2D=    8014.
 LDataN:  DoStor=T MaxTD1= 7 Len=  274
 Number of processors reduced to   5 by ecpmxn.
 Symmetrizing basis deriv contribution to polar:
 IMax=3 JMax=2 DiffMx= 0.00D+00
 G2DrvN: will do     7 centers at a time, making    3 passes.
 Calling FoFCou, ICntrl=  3107 FMM=F I1Cent=   0 AccDes= 0.00D+00.
 Calling FoFCou, ICntrl=  3107 FMM=F I1Cent=   0 AccDes= 0.00D+00.
 Calling FoFCou, ICntrl=  3107 FMM=F I1Cent=   0 AccDes= 0.00D+00.
 End of G2Drv F.D. properties file   721 does not exist.
 End of G2Drv F.D. properties file   722 does not exist.
 End of G2Drv F.D. properties file   788 does not exist.
          IDoAtm=1111111111111111111
          Differentiating once with respect to nuclear coordinates.
 PrRfSu:  requested number of processors reduced to:   6 ShMem   1 Linda.
          There are    60 degrees of freedom in the 1st order CPHF.  IDoFFX=6 NUNeed=     0.
     54 vectors produced by pass  0 Test12= 8.22D-15 1.67D-09 XBig12= 2.07D-01 5.96D-02.
 AX will form    54 AO Fock derivatives at one time.
 PrRfSu:  requested number of processors reduced to:   6 ShMem   1 Linda.
     54 vectors produced by pass  1 Test12= 8.22D-15 1.67D-09 XBig12= 4.28D-02 3.42D-02.
 PrRfSu:  requested number of processors reduced to:   6 ShMem   1 Linda.
     54 vectors produced by pass  2 Test12= 8.22D-15 1.67D-09 XBig12= 4.16D-04 2.20D-03.
 PrRfSu:  requested number of processors reduced to:   6 ShMem   1 Linda.
     54 vectors produced by pass  3 Test12= 8.22D-15 1.67D-09 XBig12= 1.21D-06 1.27D-04.
 PrRfSu:  requested number of processors reduced to:   6 ShMem   1 Linda.
     54 vectors produced by pass  4 Test12= 8.22D-15 1.67D-09 XBig12= 1.67D-09 4.46D-06.
 PrRfSu:  requested number of processors reduced to:   6 ShMem   1 Linda.
     37 vectors produced by pass  5 Test12= 8.22D-15 1.67D-09 XBig12= 1.58D-12 1.99D-07.
 PrRfSu:  requested number of processors reduced to:   6 ShMem   1 Linda.
      5 vectors produced by pass  6 Test12= 8.22D-15 1.67D-09 XBig12= 2.85D-15 8.70D-09.
 InvSVY:  IOpt=1 It=  1 EMax= 6.11D-16
 Solved reduced A of dimension   312 with    60 vectors.
 End of Minotr F.D. properties file   721 does not exist.
 End of Minotr F.D. properties file   722 does not exist.
 End of Minotr F.D. properties file   788 does not exist.

 **********************************************************************

            Population analysis using the SCF density.

 **********************************************************************

 Orbital symmetries:
       Occupied  (A) (A) (A) (A) (A) (A) (A) (A) (A) (A) (A) (A)
                 (A) (A) (A) (A) (A) (A) (A) (A) (A) (A) (A) (A)
                 (A) (A) (A) (A) (A) (A) (A) (A) (A) (A)
       Virtual   (A) (A) (A) (A) (A) (A) (A) (A) (A) (A) (A) (A)
                 (A) (A) (A) (A) (A) (A) (A) (A) (A) (A) (A) (A)
                 (A) (A) (A) (A) (A) (A) (A) (A) (A) (A) (A) (A)
                 (A) (A) (A) (A) (A) (A) (A) (A) (A) (A) (A) (A)
                 (A) (A) (A) (A) (A) (A) (A) (A) (A) (A) (A) (A)
                 (A) (A) (A) (A) (A) (A) (A) (A) (A) (A) (A) (A)
                 (A) (A) (A) (A) (A) (A) (A) (A) (A) (A) (A) (A)
                 (A) (A) (A) (A) (A) (A) (A) (A) (A) (A) (A) (A)
                 (A) (A) (A) (A) (A) (A) (A) (A) (A) (A) (A) (A)
                 (A) (A) (A) (A) (A) (A) (A) (A) (A) (A) (A) (A)
                 (A) (A) (A) (A) (A) (A) (A) (A) (A) (A) (A) (A)
                 (A) (A) (A) (A) (A) (A) (A) (A) (A) (A) (A) (A)
                 (A)
 The electronic state is 1-A.
 Alpha  occ. eigenvalues --  -24.65771 -19.18773 -19.18411 -19.10270 -10.35164
 Alpha  occ. eigenvalues --  -10.24671 -10.24607 -10.19141  -1.21252  -1.06187
 Alpha  occ. eigenvalues --   -1.02807  -0.99079  -0.75635  -0.71427  -0.70043
 Alpha  occ. eigenvalues --   -0.59624  -0.54661  -0.53822  -0.52329  -0.49312
 Alpha  occ. eigenvalues --   -0.47306  -0.46212  -0.45563  -0.45316  -0.41829
 Alpha  occ. eigenvalues --   -0.41156  -0.40440  -0.38501  -0.37020  -0.36166
 Alpha  occ. eigenvalues --   -0.34826  -0.30187  -0.27275  -0.25984
 Alpha virt. eigenvalues --   -0.00440   0.01346   0.01381   0.02498   0.03844
 Alpha virt. eigenvalues --    0.04549   0.05227   0.06389   0.07193   0.07387
 Alpha virt. eigenvalues --    0.08044   0.09124   0.09559   0.11096   0.11880
 Alpha virt. eigenvalues --    0.13028   0.14240   0.15355   0.16342   0.16835
 Alpha virt. eigenvalues --    0.18144   0.18795   0.19034   0.20044   0.20910
 Alpha virt. eigenvalues --    0.21266   0.21900   0.22938   0.25228   0.25521
 Alpha virt. eigenvalues --    0.25963   0.27768   0.29694   0.30018   0.30553
 Alpha virt. eigenvalues --    0.31431   0.32281   0.32935   0.33908   0.36387
 Alpha virt. eigenvalues --    0.36568   0.39905   0.42129   0.45203   0.50146
 Alpha virt. eigenvalues --    0.58334   0.61962   0.63213   0.64681   0.67457
 Alpha virt. eigenvalues --    0.68037   0.71120   0.71867   0.73459   0.74649
 Alpha virt. eigenvalues --    0.76634   0.78101   0.79809   0.83110   0.87598
 Alpha virt. eigenvalues --    0.89119   0.92824   0.93903   0.95924   0.96845
 Alpha virt. eigenvalues --    0.99905   1.01297   1.04526   1.07580   1.08949
 Alpha virt. eigenvalues --    1.11926   1.13858   1.18317   1.21252   1.22325
 Alpha virt. eigenvalues --    1.23085   1.23490   1.27705   1.29525   1.32532
 Alpha virt. eigenvalues --    1.34049   1.39113   1.41055   1.43605   1.49121
 Alpha virt. eigenvalues --    1.52422   1.54186   1.55697   1.60356   1.65904
 Alpha virt. eigenvalues --    1.68456   1.73026   1.74943   1.78130   1.80976
 Alpha virt. eigenvalues --    1.84889   1.90319   1.93948   1.96309   1.97392
 Alpha virt. eigenvalues --    2.01706   2.03731   2.05957   2.06345   2.11477
 Alpha virt. eigenvalues --    2.13503   2.16009   2.17555   2.18581   2.21221
 Alpha virt. eigenvalues --    2.23710   2.28394   2.29226   2.29983   2.31318
 Alpha virt. eigenvalues --    2.34188   2.37614   2.46938   2.47657   2.56649
 Alpha virt. eigenvalues --    2.65186   2.69767   2.79213   2.81723   2.85476
 Alpha virt. eigenvalues --    2.88062   2.98228   3.09566   3.37489   3.42981
 Alpha virt. eigenvalues --    3.74911   4.19510   6.86357   6.86849   6.88112
 Alpha virt. eigenvalues --    6.88893   6.95881   6.99195   7.10253   8.28418
 Alpha virt. eigenvalues --    8.31620   8.47179   8.54877   8.81059  56.91841
          Condensed to atoms (all electrons):
               1          2          3          4          5          6
     1  C    5.101538   0.423100   0.143889   0.061391  -0.016631  -0.006302
     2  O    0.423100   8.568518  -0.152893  -0.123287   0.011581   0.005556
     3  O    0.143889  -0.152893   8.836051  -0.060089   0.021251   0.001599
     4  O    0.061391  -0.123287  -0.060089   8.805624   0.042973  -0.084195
     5  C   -0.016631   0.011581   0.021251   0.042973   5.145067   0.409493
     6  H   -0.006302   0.005556   0.001599  -0.084195   0.409493   0.525202
     7  H    0.000788  -0.000831  -0.000908  -0.041583   0.395042  -0.033015
     8  H   -0.000514   0.000224  -0.001231  -0.041959   0.388656  -0.030439
     9  H   -0.012508  -0.002275   0.107311   0.097665  -0.012799   0.000990
    10  H   -0.037952   0.129253  -0.002382   0.076167  -0.000207   0.001998
    11  C   -0.377733  -0.171912  -0.108188  -0.024909   0.001465   0.002132
    12  H   -0.039513  -0.003031   0.005922   0.000026  -0.000127   0.000000
    13  H   -0.067451   0.007012  -0.000380   0.000433  -0.000112  -0.000001
    14  H    0.011772  -0.006609  -0.003709  -0.000232   0.000113   0.000004
    15  C   -0.084977   0.010910   0.029795   0.002842  -0.015336  -0.000874
    16  H   -0.012231  -0.001814  -0.037344  -0.001170   0.001519   0.000023
    17  H    0.001161  -0.001256  -0.043065  -0.000294  -0.000709  -0.000167
    18  H   -0.013917   0.014128  -0.079602   0.000446  -0.003443   0.001162
    19  F    0.325112  -0.097905  -0.093164   0.003968  -0.002082  -0.000007
               7          8          9         10         11         12
     1  C    0.000788  -0.000514  -0.012508  -0.037952  -0.377733  -0.039513
     2  O   -0.000831   0.000224  -0.002275   0.129253  -0.171912  -0.003031
     3  O   -0.000908  -0.001231   0.107311  -0.002382  -0.108188   0.005922
     4  O   -0.041583  -0.041959   0.097665   0.076167  -0.024909   0.000026
     5  C    0.395042   0.388656  -0.012799  -0.000207   0.001465  -0.000127
     6  H   -0.033015  -0.030439   0.000990   0.001998   0.002132   0.000000
     7  H    0.506589  -0.025586  -0.003056   0.002286  -0.000097   0.000000
     8  H   -0.025586   0.504577   0.001786  -0.003651  -0.000049   0.000000
     9  H   -0.003056   0.001786   0.266328  -0.006195   0.013494  -0.000063
    10  H    0.002286  -0.003651  -0.006195   0.281240   0.027704  -0.000030
    11  C   -0.000097  -0.000049   0.013494   0.027704   6.399321   0.384601
    12  H    0.000000   0.000000  -0.000063  -0.000030   0.384601   0.459389
    13  H    0.000000   0.000000   0.000057  -0.000074   0.405366  -0.024020
    14  H    0.000000   0.000000  -0.000037   0.000014   0.338819  -0.022359
    15  C   -0.002127   0.001929  -0.009772   0.001724   0.024304   0.001650
    16  H    0.000002  -0.000001   0.001389   0.000008   0.007011   0.000014
    17  H    0.000100   0.000007  -0.002709   0.000002   0.000287  -0.000002
    18  H    0.000029   0.000007   0.000030   0.000110  -0.002915   0.000007
    19  F    0.000002   0.000000   0.000813  -0.003499  -0.164590  -0.002290
              13         14         15         16         17         18
     1  C   -0.067451   0.011772  -0.084977  -0.012231   0.001161  -0.013917
     2  O    0.007012  -0.006609   0.010910  -0.001814  -0.001256   0.014128
     3  O   -0.000380  -0.003709   0.029795  -0.037344  -0.043065  -0.079602
     4  O    0.000433  -0.000232   0.002842  -0.001170  -0.000294   0.000446
     5  C   -0.000112   0.000113  -0.015336   0.001519  -0.000709  -0.003443
     6  H   -0.000001   0.000004  -0.000874   0.000023  -0.000167   0.001162
     7  H    0.000000   0.000000  -0.002127   0.000002   0.000100   0.000029
     8  H    0.000000   0.000000   0.001929  -0.000001   0.000007   0.000007
     9  H    0.000057  -0.000037  -0.009772   0.001389  -0.002709   0.000030
    10  H   -0.000074   0.000014   0.001724   0.000008   0.000002   0.000110
    11  C    0.405366   0.338819   0.024304   0.007011   0.000287  -0.002915
    12  H   -0.024020  -0.022359   0.001650   0.000014  -0.000002   0.000007
    13  H    0.490973  -0.031447  -0.005802   0.001289   0.000011   0.000158
    14  H   -0.031447   0.483652  -0.000684  -0.001535   0.000074   0.000471
    15  C   -0.005802  -0.000684   5.223715   0.391352   0.389782   0.411544
    16  H    0.001289  -0.001535   0.391352   0.503125  -0.024024  -0.034847
    17  H    0.000011   0.000074   0.389782  -0.024024   0.510472  -0.031276
    18  H    0.000158   0.000471   0.411544  -0.034847  -0.031276   0.521602
    19  F   -0.001012   0.002873   0.000431   0.000114  -0.000174   0.000008
              19
     1  C    0.325112
     2  O   -0.097905
     3  O   -0.093164
     4  O    0.003968
     5  C   -0.002082
     6  H   -0.000007
     7  H    0.000002
     8  H    0.000000
     9  H    0.000813
    10  H   -0.003499
    11  C   -0.164590
    12  H   -0.002290
    13  H   -0.001012
    14  H    0.002873
    15  C    0.000431
    16  H    0.000114
    17  H   -0.000174
    18  H    0.000008
    19  F    9.284329
 Mulliken charges:
               1
     1  C    0.600977
     2  O   -0.608467
     3  O   -0.562862
     4  O   -0.713816
     5  C   -0.365714
     6  H    0.206841
     7  H    0.202365
     8  H    0.206244
     9  H    0.559551
    10  H    0.533485
    11  C   -0.754111
    12  H    0.239825
    13  H    0.224999
    14  H    0.228819
    15  C   -0.370408
    16  H    0.207119
    17  H    0.201782
    18  H    0.216298
    19  F   -0.252927
 Sum of Mulliken charges =   0.00000
 Mulliken charges with hydrogens summed into heavy atoms:
               1
     1  C    0.600977
     2  O   -0.608467
     3  O   -0.003311
     4  O   -0.180330
     5  C    0.249736
    11  C   -0.060468
    15  C    0.254791
    19  F   -0.252927
 APT charges:
               1
     1  C    0.362208
     2  O   -0.633796
     3  O   -0.269977
     4  O   -0.365096
     5  C   -1.408009
     6  H    0.241676
     7  H    0.524267
     8  H    0.636491
     9  H    0.496298
    10  H    0.480471
    11  C   -1.498593
    12  H    0.631410
    13  H    0.492861
    14  H    0.438618
    15  C   -1.270521
    16  H    0.508199
    17  H    0.504985
    18  H    0.323662
    19  F   -0.195155
 Sum of APT charges =   0.00000
 APT charges with hydrogens summed into heavy atoms:
               1
     1  C    0.362208
     2  O   -0.633796
     3  O    0.226322
     4  O    0.115374
     5  C   -0.005575
    11  C    0.064297
    15  C    0.066325
    19  F   -0.195155
 Electronic spatial extent (au):  <R**2>=           1147.2461
 Charge=              0.0000 electrons
 Dipole moment (field-independent basis, Debye):
    X=             -1.2811    Y=              3.8775    Z=              1.2281  Tot=              4.2643
 Quadrupole moment (field-independent basis, Debye-Ang):
   XX=            -40.4887   YY=            -48.9915   ZZ=            -54.8305
   XY=              0.7324   XZ=              0.1156   YZ=             -0.4421
 Traceless Quadrupole moment (field-independent basis, Debye-Ang):
   XX=              7.6149   YY=             -0.8879   ZZ=             -6.7270
   XY=              0.7324   XZ=              0.1156   YZ=             -0.4421
 Octapole moment (field-independent basis, Debye-Ang**2):
  XXX=             -6.7022  YYY=             -0.2304  ZZZ=             -7.8768  XYY=             -2.1376
  XXY=             -0.2699  XXZ=              8.3410  XZZ=             -0.9832  YZZ=              1.8584
  YYZ=             -2.9616  XYZ=              2.1403
 Hexadecapole moment (field-independent basis, Debye-Ang**3):
 XXXX=           -825.7614 YYYY=           -365.2105 ZZZZ=           -192.4044 XXXY=             -8.7408
 XXXZ=            -13.3403 YYYX=              0.9853 YYYZ=             -0.3080 ZZZX=             -4.5572
 ZZZY=             10.2375 XXYY=           -206.9889 XXZZ=           -181.6283 YYZZ=            -96.5798
 XXYZ=            -14.6014 YYXZ=             -1.7879 ZZXY=             -2.4289
 N-N= 4.523329082244D+02 E-N=-2.043990026731D+03  KE= 4.816484999236D+02
  Exact polarizability:   0.000   0.000   0.000   0.000   0.000   0.000
 Approx polarizability:  96.710   2.015  89.827  -0.833  -3.586  85.658
 PrsmSu:  requested number of processors reduced to:   4 ShMem   1 Linda.
 PrsmSu:  requested number of processors reduced to:   4 ShMem   1 Linda.
   1 Symmetry operations used in ECPInt.
 ECPInt:  NShTT=    2346 NPrTT=   11207 LenC2=    2314 LenP2D=    8014.
 LDataN:  DoStor=T MaxTD1= 8 Len=  415
 Calling FoFJK, ICntrl=    100147 FMM=F ISym2X=0 I1Cent= 0 IOpClX= 0 NMat=1 NMatS=1 NMatT=0.
 CoulSu:  requested number of processors reduced to:   4 ShMem   1 Linda.
 ***** Axes restored to original set *****
 -------------------------------------------------------------------
 Center     Atomic                   Forces (Hartrees/Bohr)
 Number     Number              X              Y              Z
 -------------------------------------------------------------------
      1        6          -0.040087553   -0.007623112   -0.001094390
      2        8           0.013804470   -0.013067669    0.033574737
      3        8          -0.025033800    0.031147522   -0.006526672
      4        8           0.015072697   -0.005001753    0.014208673
      5        6           0.000580449   -0.009308747   -0.009979376
      6        1          -0.001079378    0.000903001    0.000698089
      7        1          -0.001911982    0.000424347    0.004789947
      8        1          -0.001245040    0.004878105    0.001563438
      9        1           0.018750429   -0.013757634    0.006389257
     10        1          -0.006487106    0.031014464   -0.022239687
     11        6           0.014454547    0.004331261    0.007452133
     12        1          -0.006549004    0.000971941   -0.002980640
     13        1          -0.003039136   -0.002605816   -0.000186901
     14        1          -0.002113537   -0.001866164   -0.003261483
     15        6           0.004251456   -0.007536891   -0.010628404
     16        1          -0.003546572    0.003484035    0.002547312
     17        1           0.001089452    0.002909202    0.003575830
     18        1          -0.000725926    0.002168164    0.001114958
     19        9           0.023815534   -0.021464258   -0.019016820
 -------------------------------------------------------------------
 Cartesian Forces:  Max     0.040087553 RMS     0.012964469
 FormGI is forming the generalized inverse of G from B-inverse, IUseBI=4.

 GradGradGradGradGradGradGradGradGradGradGradGradGradGradGradGradGradGrad
 Berny optimization.
 Internal  Forces:  Max     0.030915228 RMS     0.007755385
 Search for a saddle point.
 Step number   1 out of a maximum of   99
 All quantities printed in internal units (Hartrees-Bohrs-Radians)
 Swapping is turned off.
 Second derivative matrix not updated -- analytic derivatives used.
 ITU=  0
     Eigenvalues ---   -0.05164   0.00158   0.00200   0.00204   0.00279
     Eigenvalues ---    0.00354   0.00588   0.00855   0.01945   0.02670
     Eigenvalues ---    0.03413   0.04366   0.04505   0.05598   0.06417
     Eigenvalues ---    0.06505   0.06551   0.06599   0.06624   0.06969
     Eigenvalues ---    0.08078   0.09946   0.11492   0.12297   0.12889
     Eigenvalues ---    0.13674   0.13936   0.14581   0.15491   0.15914
     Eigenvalues ---    0.17929   0.18636   0.18733   0.18841   0.19076
     Eigenvalues ---    0.19589   0.20286   0.31057   0.32659   0.33042
     Eigenvalues ---    0.33490   0.33529   0.33798   0.33874   0.33949
     Eigenvalues ---    0.34080   0.34144   0.35788   0.36348   0.36567
     Eigenvalues ---    0.61506
 Eigenvectors required to have negative eigenvalues:
                          R9        R6        R5        R2        R10
   1                    0.60052  -0.54232   0.38113   0.29233  -0.21889
                          R1        D2        D17       A21       D16
   1                   -0.08083  -0.07027  -0.06969  -0.06649  -0.06617
 RFO step:  Lambda0=2.293089989D-03 Lambda=-2.78766546D-02.
 Linear search not attempted -- option 19 set.
 Maximum step size (   0.300) exceeded in Quadratic search.
    -- Step size scaled by   0.695
 Iteration  1 RMS(Cart)=  0.04862458 RMS(Int)=  0.00175059
 Iteration  2 RMS(Cart)=  0.00297420 RMS(Int)=  0.00074713
 Iteration  3 RMS(Cart)=  0.00000263 RMS(Int)=  0.00074713
 Iteration  4 RMS(Cart)=  0.00000000 RMS(Int)=  0.00074713
 Variable       Old X    -DE/DX   Delta X   Delta X   Delta X     New X
                                 (Linear)    (Quad)   (Total)
    R1        2.39516   0.00317   0.00000   0.00462   0.00502   2.40018
    R2        3.10569   0.02188   0.00000   0.03090   0.03005   3.13574
    R3        2.83594   0.00303   0.00000   0.01328   0.01328   2.84922
    R4        2.57046   0.03092   0.00000   0.04215   0.04215   2.61261
    R5        2.86329   0.00029   0.00000  -0.05882  -0.05749   2.80580
    R6        2.36230  -0.01885   0.00000   0.01251   0.01142   2.37371
    R7        2.73201  -0.00053   0.00000  -0.01867  -0.01867   2.71334
    R8        2.73770  -0.00054   0.00000  -0.00742  -0.00742   2.73028
    R9        2.47025  -0.00834   0.00000  -0.16815  -0.16888   2.30137
   R10        2.10247  -0.02092   0.00000  -0.04978  -0.04868   2.05379
   R11        2.06777   0.00049   0.00000   0.00150   0.00150   2.06927
   R12        2.06918  -0.00165   0.00000  -0.00343  -0.00343   2.06576
   R13        2.07263  -0.00225   0.00000  -0.00513  -0.00513   2.06750
   R14        2.08607  -0.00561   0.00000  -0.01152  -0.01152   2.07455
   R15        2.07572  -0.00277   0.00000  -0.00621  -0.00621   2.06950
   R16        2.07541  -0.00335   0.00000  -0.00691  -0.00691   2.06850
   R17        2.07037  -0.00202   0.00000  -0.00206  -0.00206   2.06831
   R18        2.06940  -0.00113   0.00000  -0.00057  -0.00057   2.06883
   R19        2.06831   0.00111   0.00000   0.00432   0.00432   2.07264
    A1        1.80390   0.00809   0.00000   0.04852   0.04832   1.85222
    A2        2.14658  -0.00913   0.00000  -0.03418  -0.03366   2.11292
    A3        1.95052   0.01248   0.00000   0.02779   0.02503   1.97555
    A4        1.90851  -0.00470   0.00000  -0.01485  -0.01486   1.89365
    A5        1.59834   0.01066   0.00000   0.03420   0.03378   1.63212
    A6        1.96470  -0.01065   0.00000  -0.03419  -0.03432   1.93038
    A7        2.01334  -0.02400   0.00000  -0.12487  -0.12447   1.88887
    A8        1.77834  -0.01296   0.00000  -0.04809  -0.04923   1.72912
    A9        2.01624   0.00791   0.00000   0.00957   0.01069   2.02693
   A10        1.86656   0.00743   0.00000   0.04117   0.04102   1.90758
   A11        1.92455   0.00522   0.00000   0.04451   0.04340   1.96794
   A12        1.88985  -0.00035   0.00000   0.01874   0.01895   1.90880
   A13        1.61251  -0.00047   0.00000  -0.03625  -0.03596   1.57655
   A14        1.93341  -0.00028   0.00000  -0.00017  -0.00020   1.93321
   A15        1.84583   0.00632   0.00000   0.02262   0.02249   1.86832
   A16        1.86602   0.00632   0.00000   0.01537   0.01525   1.88127
   A17        1.95369  -0.00371   0.00000  -0.01442  -0.01445   1.93924
   A18        1.93382  -0.00331   0.00000  -0.01014  -0.01016   1.92365
   A19        1.92724  -0.00447   0.00000  -0.01048  -0.01073   1.91651
   A20        2.70759   0.00722   0.00000   0.03292   0.03183   2.73942
   A21        2.34867   0.01654   0.00000   0.12441   0.12722   2.47590
   A22        1.91906  -0.00560   0.00000  -0.02610  -0.02628   1.89279
   A23        1.96957  -0.00234   0.00000  -0.01203  -0.01214   1.95743
   A24        1.94169  -0.00189   0.00000  -0.00870  -0.00877   1.93291
   A25        1.86965   0.00370   0.00000   0.01629   0.01608   1.88573
   A26        1.85804   0.00390   0.00000   0.01877   0.01865   1.87670
   A27        1.90113   0.00284   0.00000   0.01464   0.01462   1.91575
   A28        1.86650   0.00695   0.00000   0.02851   0.02825   1.89476
   A29        1.85376   0.00548   0.00000   0.01739   0.01719   1.87095
   A30        1.92832   0.00083   0.00000   0.00937   0.00924   1.93756
   A31        1.91987  -0.00445   0.00000  -0.01417  -0.01452   1.90536
   A32        1.94223  -0.00382   0.00000  -0.01676  -0.01695   1.92528
   A33        1.94935  -0.00410   0.00000  -0.02061  -0.02068   1.92867
    D1        0.76186   0.00110   0.00000  -0.02578  -0.02418   0.73768
    D2        2.92719  -0.00445   0.00000  -0.02549  -0.02472   2.90247
    D3       -0.93449  -0.01790   0.00000  -0.09293  -0.09310  -1.02760
    D4       -0.48799  -0.01278   0.00000  -0.05456  -0.05351  -0.54150
    D5        1.52798  -0.00837   0.00000  -0.03100  -0.03070   1.49727
    D6       -2.80179  -0.00404   0.00000  -0.03630  -0.03541  -2.83720
    D7       -0.78583   0.00036   0.00000  -0.01273  -0.01260  -0.79843
    D8        1.48089   0.00407   0.00000  -0.01028  -0.00883   1.47206
    D9       -2.78633   0.00847   0.00000   0.01329   0.01398  -2.77235
   D10        1.32755  -0.00161   0.00000  -0.02894  -0.02883   1.29872
   D11       -2.86945  -0.00233   0.00000  -0.03418  -0.03399  -2.90345
   D12       -0.72642  -0.00175   0.00000  -0.03037  -0.03026  -0.75668
   D13       -2.83816  -0.00191   0.00000  -0.00112  -0.00104  -2.83920
   D14       -0.75198  -0.00262   0.00000  -0.00636  -0.00621  -0.75819
   D15        1.39105  -0.00205   0.00000  -0.00255  -0.00247   1.38858
   D16       -1.08886   0.00364   0.00000   0.01678   0.01651  -1.07235
   D17        0.99732   0.00293   0.00000   0.01154   0.01135   1.00867
   D18        3.14035   0.00350   0.00000   0.01535   0.01508  -3.12775
   D19       -0.86565  -0.00159   0.00000   0.02759   0.02516  -0.84049
   D20        0.04823   0.00424   0.00000   0.02422   0.02443   0.07266
   D21       -2.07464  -0.00163   0.00000   0.01891   0.01966  -2.05498
   D22        1.30621   0.00322   0.00000   0.01134   0.01172   1.31793
   D23       -2.92713   0.00418   0.00000   0.01745   0.01801  -2.90912
   D24       -0.81008   0.00306   0.00000   0.00853   0.00892  -0.80116
   D25       -3.01186  -0.00373   0.00000  -0.01613  -0.01664  -3.02850
   D26       -0.96201  -0.00277   0.00000  -0.01002  -0.01034  -0.97235
   D27        1.15504  -0.00389   0.00000  -0.01894  -0.01944   1.13560
   D28       -0.90731  -0.00060   0.00000   0.00582   0.00558  -0.90173
   D29        1.21298  -0.00134   0.00000   0.00227   0.00194   1.21492
   D30       -3.01602  -0.00034   0.00000   0.00868   0.00854  -3.00748
   D31        0.83310   0.00080   0.00000  -0.00961  -0.00938   0.82372
   D32        2.95339   0.00006   0.00000  -0.01317  -0.01302   2.94037
   D33       -1.27561   0.00105   0.00000  -0.00675  -0.00642  -1.28203
   D34        1.99215   0.00269   0.00000   0.03120   0.03057   2.02271
   D35        0.06370   0.00230   0.00000   0.01766   0.01779   0.08150
   D36       -1.64399  -0.00150   0.00000  -0.03110  -0.03196  -1.67595
   D37        0.31545   0.00383   0.00000   0.00629   0.00406   0.31951
         Item               Value     Threshold  Converged?
 Maximum Force            0.030915     0.000450     NO 
 RMS     Force            0.007755     0.000300     NO 
 Maximum Displacement     0.177828     0.001800     NO 
 RMS     Displacement     0.048528     0.001200     NO 
 Predicted change in Energy=-1.288247D-02
 GradGradGradGradGradGradGradGradGradGradGradGradGradGradGradGradGradGrad

                          Input orientation:                          
 ---------------------------------------------------------------------
 Center     Atomic      Atomic             Coordinates (Angstroms)
 Number     Number       Type             X           Y           Z
 ---------------------------------------------------------------------
      1          6           0        1.013207   -0.452100    0.164684
      2          8           0        0.163433   -0.932763    0.977119
      3          8           0        0.213313    0.715382   -0.701711
      4          8           0       -1.810903   -0.584471   -0.402966
      5          6           0       -2.870049    0.005016    0.383268
      6          1           0       -2.461218    0.536197    1.249150
      7          1           0       -3.416397    0.686088   -0.274474
      8          1           0       -3.530980   -0.802322    0.712461
      9          1           0       -0.938579    0.214498   -0.692481
     10          1           0       -1.122054   -1.107669    0.255001
     11          6           0        2.317482    0.124727    0.653996
     12          1           0        2.975619   -0.703703    0.946802
     13          1           0        2.828311    0.706240   -0.120738
     14          1           0        2.157901    0.747821    1.539683
     15          6           0        0.167122    2.022417   -0.109131
     16          1           0        1.147949    2.493482   -0.227493
     17          1           0       -0.579166    2.602201   -0.661802
     18          1           0       -0.101315    1.963589    0.952676
     19          9           0        1.220537   -1.252671   -0.943240
 ---------------------------------------------------------------------
                    Distance matrix (angstroms):
                    1          2          3          4          5
     1  C    0.000000
     2  O    1.270120   0.000000
     3  O    1.659363   2.353156   0.000000
     4  O    2.883634   2.433915   2.424112   0.000000
     5  C    3.916174   3.230186   3.344985   1.444802   0.000000
     6  H    3.771529   3.020039   3.315281   2.099595   1.095011
     7  H    4.594532   4.123390   3.654886   2.051449   1.093151
     8  H    4.590463   3.706177   4.280543   2.061627   1.094072
     9  H    2.233507   2.306123   1.256116   1.217834   2.220743
    10  H    2.235457   1.484763   2.453981   1.086817   2.076057
    11  C    1.507743   2.421286   2.571836   4.320150   5.195970
    12  H    2.127457   2.821662   3.515925   4.974624   5.915378
    13  H    2.172054   3.315599   2.678773   4.823680   5.763423
    14  H    2.154241   2.668098   2.967545   4.615224   5.212422
    15  C    2.629461   3.148498   1.435835   3.285542   3.679235
    16  H    2.974628   3.762914   2.063992   4.273101   4.765480
    17  H    3.542243   3.966546   2.046876   3.426230   3.617414
    18  H    2.774643   2.908530   2.096189   3.354559   3.438913
    19  F    1.382532   2.215308   2.223976   3.150875   4.480435
                    6          7          8          9         10
     6  H    0.000000
     7  H    1.804512   0.000000
     8  H    1.795567   1.789563   0.000000
     9  H    2.488344   2.556700   3.119027   0.000000
    10  H    2.341792   2.960054   2.470918   1.636921   0.000000
    11  C    4.833166   5.835628   5.921769   3.524626   3.675378
    12  H    5.584618   6.654390   6.511565   4.341807   4.175248
    13  H    5.466683   6.246633   6.588670   3.841635   4.363122
    14  H    4.633082   5.862404   5.954041   3.854241   3.981376
    15  C    3.310883   3.828149   4.725476   2.198054   3.404703
    16  H    4.363202   4.909393   5.799847   3.124673   4.284157
    17  H    3.385591   3.445489   4.710900   2.414798   3.859844
    18  H    2.773893   3.758680   4.412547   2.543005   3.310783
    19  F    4.643484   5.070226   5.051839   2.622450   2.635249
                   11         12         13         14         15
    11  C    0.000000
    12  H    1.097805   0.000000
    13  H    1.095133   1.774621   0.000000
    14  H    1.094602   1.768359   1.791138   0.000000
    15  C    2.967766   4.053933   2.968902   2.882079   0.000000
    16  H    2.784929   3.865402   2.455452   2.681463   1.094502
    17  H    4.032341   5.114011   3.936791   3.972002   1.094779
    18  H    3.053064   4.072101   3.363905   2.631867   1.096793
    19  F    2.377326   2.637032   2.664354   3.323481   3.540003
                   16         17         18         19
    16  H    0.000000
    17  H    1.784201   0.000000
    18  H    1.798402   1.800752   0.000000
    19  F    3.814607   4.263588   3.960570   0.000000
 Stoichiometry    C4H11FO3
 Framework group  C1[X(C4H11FO3)]
 Deg. of freedom    51
 Full point group                 C1      NOp   1
 Largest Abelian subgroup         C1      NOp   1
 Largest concise Abelian subgroup C1      NOp   1
                         Standard orientation:                         
 ---------------------------------------------------------------------
 Center     Atomic      Atomic             Coordinates (Angstroms)
 Number     Number       Type             X           Y           Z
 ---------------------------------------------------------------------
      1          6           0        1.016215   -0.438122    0.144756
      2          8           0        0.175646   -0.941477    0.953015
      3          8           0        0.197762    0.730156   -0.703034
      4          8           0       -1.807625   -0.601187   -0.416212
      5          6           0       -2.872185   -0.037089    0.381256
      6          1           0       -2.467864    0.487648    1.253165
      7          1           0       -3.429837    0.645457   -0.265377
      8          1           0       -3.521023   -0.857827    0.701245
      9          1           0       -0.947175    0.213520   -0.697275
     10          1           0       -1.109633   -1.123948    0.232401
     11          6           0        2.314073    0.149656    0.638080
     12          1           0        2.984346   -0.673670    0.917445
     13          1           0        2.814477    0.748697   -0.130074
     14          1           0        2.148849    0.758260    1.532762
     15          6           0        0.135682    2.028155   -0.092323
     16          1           0        1.109629    2.514145   -0.207104
     17          1           0       -0.620179    2.605257   -0.634697
     18          1           0       -0.128551    1.951055    0.969369
     19          9           0        1.230889   -1.220459   -0.974735
 ---------------------------------------------------------------------
 Rotational constants (GHZ):      2.7054793      1.3612816      1.1398893
 Basis read from rwf:  (5D, 7F)
 Pseudo-potential data read from rwf file.
 There are   191 symmetry adapted cartesian basis functions of A   symmetry.
 There are   179 symmetry adapted basis functions of A   symmetry.
   179 basis functions,   319 primitive gaussians,   191 cartesian basis functions
    34 alpha electrons       34 beta electrons
       nuclear repulsion energy       452.1212582676 Hartrees.
 NAtoms=   19 NActive=   19 NUniq=   19 SFac= 1.00D+00 NAtFMM=   60 NAOKFM=F Big=F
 Integral buffers will be    131072 words long.
 Raffenetti 2 integral format.
 Two-electron integral symmetry is turned on.
 One-electron integrals computed using PRISM.
 PrsmSu:  requested number of processors reduced to:   4 ShMem   1 Linda.
   1 Symmetry operations used in ECPInt.
 ECPInt:  NShTT=    2346 NPrTT=   11207 LenC2=    2315 LenP2D=    8010.
 LDataN:  DoStor=T MaxTD1= 6 Len=  172
 NBasis=   179 RedAO= T EigKep=  9.03D-05  NBF=   179
 NBsUse=   179 1.00D-06 EigRej= -1.00D+00 NBFU=   179
 Initial guess from the checkpoint file:  "/lustre/SCRATCH5/gau/Gau-22379.chk"
 B after Tr=     0.000000    0.000000    0.000000
         Rot=    0.999972   -0.004460   -0.001072   -0.005980 Ang=  -0.86 deg.
 ExpMin= 4.38D-02 ExpMax= 3.55D+04 ExpMxC= 1.21D+03 IAcc=2 IRadAn=         4 AccDes= 0.00D+00
 Harris functional with IExCor=  402 and IRadAn=       4 diagonalized for initial guess.
 HarFok:  IExCor=  402 AccDes= 0.00D+00 IRadAn=         4 IDoV= 1 UseB2=F ITyADJ=14
 ICtDFT=  3500011 ScaDFX=  1.000000  1.000000  1.000000  1.000000
 FoFCou: FMM=F IPFlag=           0 FMFlag=      100000 FMFlg1=           0
         NFxFlg=           0 DoJE=T BraDBF=F KetDBF=T FulRan=T
         wScrn=  0.000000 ICntrl=     500 IOpCl=  0 I1Cent=   200000004 NGrid=           0
         NMat0=    1 NMatS0=      1 NMatT0=    0 NMatD0=    1 NMtDS0=    0 NMtDT0=    0
 Petite list used in FoFCou.
 Requested convergence on RMS density matrix=1.00D-08 within 128 cycles.
 Requested convergence on MAX density matrix=1.00D-06.
 Requested convergence on             energy=1.00D-06.
 No special actions if energy rises.
 SCF Done:  E(RB3LYP) =  -484.567180241     A.U. after   12 cycles
            NFock= 12  Conv=0.29D-08     -V/T= 2.0060
 PrsmSu:  requested number of processors reduced to:   4 ShMem   1 Linda.
   1 Symmetry operations used in ECPInt.
 ECPInt:  NShTT=    2346 NPrTT=   11207 LenC2=    2315 LenP2D=    8010.
 LDataN:  DoStor=T MaxTD1= 7 Len=  274
 Calling FoFJK, ICntrl=      2127 FMM=F ISym2X=0 I1Cent= 0 IOpClX= 0 NMat=1 NMatS=1 NMatT=0.
 ***** Axes restored to original set *****
 -------------------------------------------------------------------
 Center     Atomic                   Forces (Hartrees/Bohr)
 Number     Number              X              Y              Z
 -------------------------------------------------------------------
      1        6          -0.018032286   -0.004049379    0.000656112
      2        8           0.006716000   -0.007141542    0.013057316
      3        8          -0.009577898    0.015129382   -0.003832246
      4        8           0.003352815   -0.003469439    0.005949858
      5        6           0.000317982   -0.004286905   -0.004424642
      6        1          -0.000555681    0.000363927    0.000262738
      7        1          -0.000763675    0.000303815    0.001916102
      8        1          -0.000643888    0.001882620    0.000657183
      9        1           0.009248172   -0.004828719    0.001650040
     10        1          -0.002434788    0.014309782   -0.007532927
     11        6           0.006154042    0.002075013    0.002299213
     12        1          -0.002611443    0.000202523   -0.000942987
     13        1          -0.001024787   -0.001233512   -0.000218540
     14        1          -0.000997133   -0.000474561   -0.001302665
     15        6           0.002034510   -0.003888672   -0.004023309
     16        1          -0.001321697    0.001558792    0.001198681
     17        1           0.000342269    0.001288341    0.001530703
     18        1          -0.000403448    0.001105252    0.000480321
     19        9           0.010200934   -0.008846720   -0.007380950
 -------------------------------------------------------------------
 Cartesian Forces:  Max     0.018032286 RMS     0.005577609

 GradGradGradGradGradGradGradGradGradGradGradGradGradGradGradGradGradGrad
 Berny optimization.
 FormGI is forming the generalized inverse of G from B-inverse, IUseBI=4.
 Internal  Forces:  Max     0.012568964 RMS     0.003250177
 Search for a saddle point.
 Step number   2 out of a maximum of   99
 All quantities printed in internal units (Hartrees-Bohrs-Radians)
 Swapping is turned off.
 Update second derivatives using D2CorX and points    1    2
 ITU=  0  0
     Eigenvalues ---   -0.04779   0.00159   0.00192   0.00202   0.00256
     Eigenvalues ---    0.00353   0.00574   0.00890   0.01943   0.02674
     Eigenvalues ---    0.03421   0.04364   0.04504   0.05633   0.06415
     Eigenvalues ---    0.06513   0.06553   0.06592   0.06625   0.07016
     Eigenvalues ---    0.08292   0.09875   0.11721   0.12292   0.13140
     Eigenvalues ---    0.13669   0.13930   0.14571   0.15517   0.15713
     Eigenvalues ---    0.17857   0.18628   0.18755   0.18815   0.19072
     Eigenvalues ---    0.19574   0.20558   0.31036   0.32658   0.33040
     Eigenvalues ---    0.33488   0.33528   0.33797   0.33874   0.33948
     Eigenvalues ---    0.34079   0.34143   0.35695   0.36310   0.36566
     Eigenvalues ---    0.61493
 Eigenvectors required to have negative eigenvalues:
                          R9        R6        R5        R2        R10
   1                    0.56952  -0.55871   0.39407   0.29285  -0.23558
                          R1        D2        D17       D16       D18
   1                   -0.08060  -0.07842  -0.07102  -0.06692  -0.06342
 RFO step:  Lambda0=8.142637498D-04 Lambda=-6.76856926D-03.
 Linear search not attempted -- option 19 set.
 Iteration  1 RMS(Cart)=  0.08044378 RMS(Int)=  0.00641900
 Iteration  2 RMS(Cart)=  0.00873804 RMS(Int)=  0.00169665
 Iteration  3 RMS(Cart)=  0.00020096 RMS(Int)=  0.00169176
 Iteration  4 RMS(Cart)=  0.00000069 RMS(Int)=  0.00169176
 Variable       Old X    -DE/DX   Delta X   Delta X   Delta X     New X
                                 (Linear)    (Quad)   (Total)
    R1        2.40018   0.00174   0.00000   0.00927   0.00966   2.40984
    R2        3.13574   0.01028   0.00000   0.02428   0.02293   3.15867
    R3        2.84922   0.00147   0.00000   0.00916   0.00916   2.85838
    R4        2.61261   0.01257   0.00000   0.02383   0.02383   2.63643
    R5        2.80580   0.00074   0.00000  -0.16785  -0.16678   2.63901
    R6        2.37371  -0.00662   0.00000   0.00769   0.00697   2.38069
    R7        2.71334  -0.00030   0.00000  -0.01059  -0.01059   2.70275
    R8        2.73028  -0.00036   0.00000  -0.01351  -0.01351   2.71677
    R9        2.30137  -0.00067   0.00000  -0.06185  -0.06203   2.23934
   R10        2.05379  -0.00750   0.00000   0.01895   0.02021   2.07400
   R11        2.06927   0.00018   0.00000   0.00316   0.00316   2.07244
   R12        2.06576  -0.00058   0.00000  -0.00086  -0.00086   2.06490
   R13        2.06750  -0.00080   0.00000  -0.00194  -0.00194   2.06556
   R14        2.07455  -0.00197   0.00000  -0.00620  -0.00620   2.06835
   R15        2.06950  -0.00098   0.00000  -0.00385  -0.00385   2.06565
   R16        2.06850  -0.00118   0.00000  -0.00411  -0.00411   2.06439
   R17        2.06831  -0.00064   0.00000  -0.00098  -0.00098   2.06733
   R18        2.06883  -0.00033   0.00000  -0.00006  -0.00006   2.06877
   R19        2.07264   0.00051   0.00000   0.00272   0.00272   2.07536
    A1        1.85222   0.00375   0.00000   0.03882   0.03612   1.88834
    A2        2.11292  -0.00332   0.00000  -0.02195  -0.01987   2.09305
    A3        1.97555   0.00453   0.00000   0.01385   0.01170   1.98725
    A4        1.89365  -0.00264   0.00000  -0.01608  -0.01556   1.87809
    A5        1.63212   0.00462   0.00000   0.02821   0.02887   1.66099
    A6        1.93038  -0.00475   0.00000  -0.02686  -0.02737   1.90300
    A7        1.88887  -0.00977   0.00000  -0.08259  -0.08809   1.80078
    A8        1.72912  -0.00585   0.00000  -0.03943  -0.04081   1.68830
    A9        2.02693   0.00289   0.00000  -0.01222  -0.01345   2.01348
   A10        1.90758   0.00361   0.00000   0.02222   0.02169   1.92927
   A11        1.96794   0.00253   0.00000   0.04801   0.04578   2.01372
   A12        1.90880   0.00030   0.00000   0.03887   0.04261   1.95141
   A13        1.57655  -0.00077   0.00000  -0.05233  -0.05316   1.52338
   A14        1.93321  -0.00004   0.00000   0.00733   0.00728   1.94049
   A15        1.86832   0.00248   0.00000   0.01970   0.01958   1.88791
   A16        1.88127   0.00251   0.00000   0.01200   0.01189   1.89316
   A17        1.93924  -0.00159   0.00000  -0.01783  -0.01790   1.92134
   A18        1.92365  -0.00138   0.00000  -0.01184  -0.01189   1.91176
   A19        1.91651  -0.00177   0.00000  -0.00769  -0.00787   1.90864
   A20        2.73942   0.00244   0.00000  -0.00763  -0.01002   2.72940
   A21        2.47590   0.00824   0.00000   0.16879   0.17072   2.64662
   A22        1.89279  -0.00246   0.00000  -0.02011  -0.02023   1.87256
   A23        1.95743  -0.00096   0.00000  -0.01275  -0.01284   1.94459
   A24        1.93291  -0.00083   0.00000  -0.00319  -0.00322   1.92970
   A25        1.88573   0.00149   0.00000   0.01209   0.01191   1.89764
   A26        1.87670   0.00168   0.00000   0.01291   0.01287   1.88956
   A27        1.91575   0.00122   0.00000   0.01210   0.01210   1.92784
   A28        1.89476   0.00295   0.00000   0.01901   0.01890   1.91365
   A29        1.87095   0.00224   0.00000   0.01111   0.01103   1.88198
   A30        1.93756   0.00051   0.00000   0.00585   0.00580   1.94336
   A31        1.90536  -0.00191   0.00000  -0.00840  -0.00856   1.89680
   A32        1.92528  -0.00174   0.00000  -0.01036  -0.01045   1.91483
   A33        1.92867  -0.00190   0.00000  -0.01626  -0.01628   1.91239
    D1        0.73768   0.00061   0.00000  -0.02329  -0.02102   0.71666
    D2        2.90247  -0.00211   0.00000  -0.02645  -0.02481   2.87766
    D3       -1.02760  -0.00828   0.00000  -0.08020  -0.07824  -1.10584
    D4       -0.54150  -0.00537   0.00000  -0.06750  -0.06540  -0.60690
    D5        1.49727  -0.00352   0.00000  -0.07107  -0.07004   1.42723
    D6       -2.83720  -0.00204   0.00000  -0.05624  -0.05493  -2.89213
    D7       -0.79843  -0.00019   0.00000  -0.05981  -0.05957  -0.85800
    D8        1.47206   0.00182   0.00000  -0.03500  -0.03324   1.43882
    D9       -2.77235   0.00367   0.00000  -0.03857  -0.03789  -2.81023
   D10        1.29872  -0.00096   0.00000  -0.04661  -0.04585   1.25287
   D11       -2.90345  -0.00132   0.00000  -0.05253  -0.05168  -2.95513
[...]
 2060,-0.11099702,0.05409423,-0.03731512,0.57744550,-0.00010048,0.00012
 208,0.00069480,0.00005455,-0.00046737,-0.00048156,-0.00064338,-0.00041
 701,-0.00040886,-0.00344823,0.02551712,0.02972503,-0.07203149,-0.04733
 227,-0.05696439,0.07660303,-0.00016947,0.00035788,-0.00080454,0.000506
 56,-0.00000253,0.00113675,0.00155579,0.00068342,0.00008575,0.00891128,
 -0.00699704,-0.01152488,-0.04370662,-0.15133958,-0.11465868,0.04148914
 ,0.16006789,-0.00032338,-0.00093409,0.00068410,0.00182254,0.00031262,0
 .00032733,0.00101921,0.00148425,-0.00007216,0.00976472,-0.01050900,-0.
 00931769,-0.05245039,-0.11523886,-0.19449188,0.04975515,0.13381692,0.2
 0900322,0.00097058,0.00125916,-0.00208411,-0.00392371,-0.00075826,-0.0
 0113662,-0.00025917,-0.00109760,0.00058199,-0.02876623,0.02130271,-0.0
 1775022,-0.11037582,0.05743622,-0.09320822,-0.00243228,0.00331399,-0.0
 0699024,0.12959698,-0.00051925,-0.00021145,0.00074854,0.00193529,0.000
 24633,0.00074950,0.00052527,0.00035028,0.00002199,0.01412735,-0.007041
 16,0.00680436,0.06037335,-0.11455163,0.09336504,-0.01108152,0.01243936
 ,-0.01491258,-0.07470439,0.11950353,0.00000484,-0.00021092,0.00042628,
 0.00140297,0.00020972,0.00089291,-0.00041950,-0.00012733,-0.00011700,0
 .01384284,-0.01246296,0.01648642,-0.10134997,0.09900584,-0.20037646,-0
 .01024554,0.01238727,-0.01510794,0.10152597,-0.10200728,0.20667115,0.0
 0073521,-0.00117650,0.00086710,-0.00033006,0.00058261,-0.00088017,-0.0
 0361431,-0.00229362,-0.00055427,-0.03088048,-0.01763577,0.01887564,-0.
 12340777,-0.10943328,0.04359949,-0.00265775,-0.00766768,0.00203733,0.0
 1178539,0.01257126,-0.00519859,0.14419574,0.00003000,0.00011718,-0.000
 22977,-0.00031062,-0.00008227,0.00001458,0.00154547,0.00131861,0.00008
 662,0.01426492,0.01723295,-0.00947803,-0.11754697,-0.21855396,0.074403
 68,-0.00930652,-0.01352525,0.00736334,-0.00808461,-0.01039415,0.003554
 28,0.11942580,0.22601926,-0.00042216,0.00035240,-0.00005058,0.00044551
 ,0.00004712,0.00015534,0.00199802,0.00149871,0.00007650,0.01645103,0.0
 0897016,-0.00650552,0.04513492,0.06914409,-0.08291863,-0.01397668,-0.0
 1933438,0.01066648,0.01296402,0.01889296,-0.00658339,-0.05930179,-0.07
 562582,0.08534438,-0.01696350,0.04142762,-0.03582741,-0.02863789,-0.01
 404089,0.00992070,0.00574306,0.01530962,0.01202024,-0.02839792,0.01822
 828,-0.01916686,-0.02241750,0.00605093,0.00925869,0.00252875,-0.002388
 57,-0.00224585,0.00090137,-0.00138979,0.00016132,0.00431724,-0.0003011
 3,-0.00247696,0.02204416,0.01013807,0.03670053,-0.01828769,-0.01981523
 ,-0.00904366,0.00488197,0.04421008,-0.02868443,0.00808232,-0.00196036,
 -0.06704103,0.00349008,-0.00028314,0.02390322,-0.00347754,0.00176523,-
 0.00140747,-0.00233722,0.00116987,-0.00041028,0.00054089,0.00672118,-0
 .00248888,-0.00349651,-0.04811104,0.09246263,-0.01423770,-0.00861459,0
 .01070060,0.00946003,0.00098590,-0.00210195,0.00320354,0.00066618,-0.0
 3296205,-0.00275646,-0.00239237,-0.03071031,0.00821339,0.00135868,-0.0
 0600650,0.00042847,0.00093972,-0.00007309,-0.00136077,0.00011992,0.000
 54426,-0.00063699,-0.00053763,0.00040566,0.00813251,-0.01371338,0.0808
 3433,-0.03355833,-0.03472741,0.05507704,0.04329180,0.01409243,0.002006
 80,-0.02648183,0.00796876,-0.01190806,-0.06317607,-0.00160866,-0.00570
 805,-0.02476738,0.01089011,-0.00000265,0.00264663,-0.00172383,-0.00266
 829,0.00289908,-0.00206952,0.00032797,0.00068387,0.00012107,-0.0011913
 4,0.04481969,0.01506818,0.00082685,0.04672433,-0.00800317,0.00486532,-
 0.01078531,-0.00836976,-0.02508791,0.00282233,0.00558861,0.00113871,-0
 .00050193,0.01605435,-0.04182664,0.01651687,0.00979386,-0.00630563,0.0
 0296484,0.00002805,0.00009941,0.00110939,0.00010350,0.00021337,-0.0009
 5871,-0.00152815,0.00055618,-0.00000803,-0.00161053,-0.01733452,0.0246
 2273,-0.00989925,0.08571606,0.00429890,-0.01571976,0.04526618,0.033024
 57,0.00971402,-0.03492807,-0.01553162,0.00478758,-0.00794682,-0.037621
 16,0.02655069,-0.10418192,0.00297918,-0.00693839,0.02374732,0.00172312
 ,-0.00230435,-0.00146186,0.00675244,-0.00341344,-0.00268583,0.00117932
 ,0.00045250,-0.00037969,0.01753754,0.02583376,-0.01507803,-0.01724187,
 -0.04031518,0.11243755,-0.17691143,-0.04724454,-0.03150587,-0.02812030
 ,-0.01471525,0.00518331,-0.01530855,0.00409587,-0.00848879,-0.00189156
 ,0.00042448,-0.00104466,0.00049816,-0.00017348,-0.00031626,-0.00000443
 ,0.00002662,0.00003785,-0.00010143,0.00007379,0.00000892,-0.00006649,-
 0.00001051,0.00004455,0.00082511,0.00140743,-0.00034844,0.00348273,-0.
 00132159,0.00237178,0.50213227,-0.04198721,-0.08918892,-0.01376898,-0.
 02394526,0.00077009,0.00261779,0.02700664,-0.00200328,0.01335595,-0.00
 068176,0.00372983,-0.00384084,-0.00001097,0.00026316,-0.00026236,-0.00
 001275,-0.00005305,0.00009443,-0.00017120,0.00004162,0.00004148,0.0001
 3636,-0.00003386,-0.00003941,-0.00437929,-0.00592859,0.00265604,0.0047
 7247,-0.00063211,0.00363109,-0.01808915,0.58135427,-0.02931917,-0.0147
 1932,-0.08223721,0.03566658,0.01405135,0.00618988,-0.01498460,0.002860
 05,-0.00376001,0.00232811,-0.00330074,0.00413553,-0.00030173,0.0000152
 2,0.00057182,-0.00000116,0.00001963,-0.00011129,0.00023532,-0.00009472
 ,-0.00008333,-0.00005589,0.00001435,-0.00001754,0.00262293,0.00274500,
 -0.00141627,-0.00549938,0.00274143,-0.00548057,-0.03521190,-0.00299839
 ,0.59785924,-0.01751713,0.02702175,-0.01020794,0.00231124,-0.00252308,
 0.00074518,-0.00586859,-0.00032855,-0.00214749,-0.00008595,-0.00097143
 ,0.00089829,0.00010396,-0.00010665,0.00002272,-0.00000079,0.00002217,-
 0.00001306,0.00002875,-0.00000081,-0.00000756,-0.00005490,0.00000806,0
 .00002156,0.00145616,0.00168314,-0.00074390,-0.00095945,0.00009405,-0.
 00062623,-0.12746824,0.11238153,-0.04817905,0.13706187,-0.00631290,0.0
 0767622,-0.00357008,0.00025499,0.00010893,-0.00025608,-0.00266832,0.00
 115440,-0.00170103,0.00001666,-0.00011278,0.00011947,0.00002778,-0.000
 01052,-0.00002660,-0.00000695,-0.00000239,0.00001369,-0.00000481,0.000
 00100,-0.00000368,0.00000183,0.00000637,0.00000323,-0.00000679,0.00023
 358,-0.00016878,-0.00001565,0.00008203,-0.00011672,0.11449613,-0.20984
 332,0.06985171,-0.12351607,0.22552341,-0.00531171,0.00828089,-0.004084
 15,0.00150872,-0.00012241,-0.00014024,-0.00328632,-0.00027049,-0.00037
 794,-0.00021847,-0.00051319,0.00036358,0.00004156,-0.00006357,0.000003
 53,-0.00000416,0.00000767,-0.00000309,0.00000979,0.00000225,-0.0000048
 5,-0.00002703,0.00000926,0.00001571,0.00078906,0.00094636,-0.00026044,
 -0.00038463,0.00002549,-0.00024702,-0.04821593,0.06890877,-0.07592467,
 0.05440473,-0.07545073,0.07862865,-0.01072055,-0.01098168,0.02868124,-
 0.00921537,-0.00372962,-0.00168888,0.00228300,0.00104685,-0.00074265,-
 0.00082845,0.00144078,-0.00160518,0.00020127,0.00001629,-0.00025571,-0
 .00000776,-0.00001141,0.00005629,-0.00011216,0.00004593,0.00002911,0.0
 0002558,-0.00000965,0.00001119,-0.00129136,-0.00120537,0.00044011,0.00
 257885,-0.00104793,0.00206218,-0.10620337,-0.05263401,0.09516008,0.010
 13894,0.00670550,-0.01503504,0.11401666,-0.00135772,-0.00551605,0.0111
 9106,-0.00408696,0.00028026,-0.00058133,0.00082492,-0.00000656,-0.0006
 2656,-0.00076338,0.00038575,-0.00074312,0.00015259,-0.00004836,-0.0001
 5113,0.00000751,0.00000771,0.00002075,-0.00005312,0.00003137,0.0000242
 4,-0.00001158,-0.00000875,0.00001161,-0.00018547,-0.00019673,0.0001460
 4,0.00125734,-0.00005766,0.00102557,-0.05363245,-0.09642815,0.08606051
 ,-0.01314062,-0.00959732,0.01885348,0.05841353,0.09981347,-0.00388261,
 -0.00433307,0.00594999,-0.00279904,-0.00085621,0.00146497,0.00019983,-
 0.00055679,0.00064410,-0.00002810,0.00003541,-0.00015035,0.00001827,-0
 .00001881,0.00003161,-0.00000654,0.00000038,-0.00000987,0.00001183,0.0
 0000409,-0.00000413,-0.00000147,-0.00000356,-0.00000072,0.00006167,0.0
 0000014,0.00006686,-0.00005781,-0.00005009,0.00027686,0.10040383,0.088
 64101,-0.21821479,0.00437702,0.00282250,-0.00748406,-0.10738401,-0.097
 12025,0.23248463,0.00695433,-0.02033847,-0.02206122,0.00087022,0.00212
 510,0.00081600,0.00078174,0.00087015,0.00130370,0.00019987,0.00006693,
 0.00005047,0.00000529,-0.00001608,-0.00000546,-0.00002346,0.00000696,0
 .00001913,0.00000420,-0.00000188,-0.00000207,0.00000981,0.00000874,0.0
 0000077,-0.00023439,-0.00033459,0.00004469,-0.00015289,0.00017934,-0.0
 0015541,-0.05278632,0.01739281,0.02263005,-0.00144063,0.01090990,0.014
 59749,-0.00165370,0.01152119,0.00954468,0.05388118,0.00575591,-0.00829
 477,-0.00760212,-0.00055217,0.00097219,0.00167853,-0.00052138,-0.00009
 756,-0.00002670,-0.00011515,-0.00014900,0.00014981,0.00009405,-0.00006
 299,-0.00002834,-0.00001097,0.00002285,0.00000780,0.00000035,0.0000074
 4,0.00000249,-0.00002013,-0.00000180,0.00000444,0.00029848,0.00016891,
 -0.00017419,-0.00015285,0.00012458,-0.00007317,0.01391515,-0.16722992,
 -0.13428253,0.00126346,-0.01576474,-0.01916358,-0.00012768,0.01142437,
 0.01120299,-0.01870503,0.17971891,0.00407736,-0.00534294,-0.00837128,0
 .00031205,0.00136462,0.00097899,-0.00045441,0.00119350,0.00024355,0.00
 003279,0.00011874,-0.00007548,0.00002947,-0.00001847,-0.00003222,-0.00
 001650,0.00000258,0.00003455,-0.00001254,-0.00000240,-0.00000581,0.000
 00780,0.00001314,0.00000442,-0.00023765,-0.00021909,0.00004150,-0.0000
 1352,-0.00003456,-0.00000060,0.01849417,-0.13490325,-0.20036857,-0.000
 20178,0.00787206,0.00961560,0.00098570,-0.01681192,-0.01609040,-0.0204
 4583,0.14844799,0.21385298,0.00261896,0.00295717,0.01291860,0.00148832
 ,0.00021513,-0.00126134,-0.08515509,0.00570658,-0.01163649,-0.00657607
 ,-0.00182177,0.00443434,-0.00024886,-0.00179257,0.00047378,-0.00015678
 ,-0.00005570,0.00004617,-0.00012982,-0.00001493,-0.00010157,-0.0006264
 7,0.00018647,0.00019063,0.01384575,-0.00985202,-0.01112358,-0.00165140
 ,0.00020137,-0.00137413,-0.00137369,0.00112767,-0.00151017,0.00006407,
 -0.00026046,0.00015338,-0.00065379,0.00058454,0.00026644,-0.00039582,0
 .00071203,-0.00043572,0.60383065,0.01176118,-0.03342048,0.00485153,0.0
 0189733,0.00624449,-0.00660742,0.00405999,-0.17506525,-0.05277208,0.01
 062139,0.00781671,-0.00302648,-0.00394903,0.00232645,0.00215960,0.0001
 4640,-0.00051365,-0.00089177,0.00053848,-0.00014105,0.00015633,0.00054
 525,-0.00048787,-0.00050740,-0.01567780,-0.01890977,-0.00297935,-0.000
 87560,-0.00165873,0.00015539,-0.00025701,0.00235315,0.00080372,-0.0017
 4086,-0.00084002,-0.00087032,-0.00003105,0.00047562,0.00048747,0.00061
 398,-0.00046247,-0.00119928,0.00888115,0.48249862,0.01094707,-0.010456
 11,0.02117028,0.00353885,0.00532244,-0.00966763,-0.01044883,-0.0617049
 3,-0.11404963,0.00663651,0.00286416,-0.00133456,-0.00153950,0.00175350
 ,0.00179302,0.00045933,-0.00034117,-0.00058199,0.00003030,-0.00025633,
 -0.00018049,0.00022666,-0.00027247,-0.00046701,-0.00770895,-0.00559887
 ,0.00021556,-0.00213748,0.00020007,-0.00051010,-0.00141145,0.00226867,
 -0.00091185,-0.00036144,-0.00004538,-0.00031244,0.00029130,-0.00024723
 ,-0.00012790,-0.00130215,0.00043770,-0.00020351,0.01400517,-0.06440289
 ,0.55529553,-0.00090476,0.00138428,-0.00114339,0.00021972,-0.00030270,
 0.00029498,0.00883743,-0.00260229,-0.00278645,-0.00011948,-0.00012322,
 0.00011530,0.00000496,-0.00001374,0.00014328,0.00001278,-0.00000747,-0
 .00015129,0.00005606,0.00003322,0.00002999,-0.00002696,-0.00006961,-0.
 00002833,0.00131838,0.00140466,0.00026744,-0.00016088,0.00022300,-0.00
 012114,-0.00012765,0.00053191,-0.00070651,0.00022851,0.00029470,0.0002
 9196,-0.00017270,0.00005358,-0.00007130,-0.00037312,0.00066917,0.00025
 958,-0.26977395,-0.10331281,0.02248040,0.28509211,-0.00418712,0.001924
 46,-0.00189530,0.00100458,-0.00055736,0.00110277,-0.02948328,-0.030045
 41,-0.00682869,-0.00361868,-0.00189455,0.00192937,0.00045547,-0.000892
 35,-0.00016198,-0.00003989,0.00005848,0.00016414,-0.00010813,0.0000254
 2,-0.00004951,-0.00030632,0.00014888,0.00012830,0.00741295,0.00141873,
 -0.00208713,-0.00050786,0.00051394,-0.00060905,0.00003174,-0.00036999,
 0.00025159,0.00020495,0.00035294,-0.00002599,0.00058689,-0.00027682,-0
 .00036536,0.00036837,-0.00031235,0.00066145,-0.09649123,-0.09366484,0.
 01347114,0.11291649,0.11345323,0.00055148,0.00137903,-0.00092188,-0.00
 058880,0.00013776,0.00071458,-0.01817642,-0.01561168,0.00049642,-0.002
 07575,-0.00083819,0.00081909,0.00020361,-0.00059217,-0.00039491,-0.000
 12832,0.00010282,0.00020731,0.00001541,0.00004605,0.00004249,-0.000101
 28,0.00011664,0.00017930,0.00369224,0.00039867,-0.00126116,-0.00004972
 ,-0.00004880,-0.00028449,-0.00013791,-0.00013123,0.00055074,0.00007273
 ,-0.00013150,-0.00017445,0.00011145,0.00001783,0.00006433,-0.00025586,
 0.00048679,-0.00054965,0.02532264,0.01411881,-0.05507007,-0.02211746,-
 0.00557241,0.05376640,0.00014131,-0.00192672,0.00076099,0.00032577,0.0
 0022692,-0.00031142,0.00366731,0.00293559,0.00266453,0.00062702,0.0006
 2186,-0.00037173,-0.00021478,0.00008820,0.00014439,0.00000335,-0.00007
 811,0.00001037,0.00001614,-0.00003952,-0.00003432,0.00003402,0.0000056
 9,-0.00001415,-0.00060229,-0.00092487,0.00049040,0.00001952,-0.0000077
 6,0.00003746,0.00000818,0.00003787,-0.00028143,0.00014188,0.00021353,0
 .00013282,0.00011939,-0.00017520,-0.00017506,-0.00015980,0.00009612,0.
 00037951,-0.18028900,0.09796410,-0.08924172,-0.01884815,0.01583024,-0.
 01527435,0.18749333,-0.00370542,0.00577819,-0.00816081,-0.00170328,-0.
 00127543,0.00247539,0.02367151,-0.03503330,0.01098194,-0.00178799,-0.0
 0001896,-0.00050622,0.00043368,-0.00032840,-0.00022779,-0.00003484,-0.
 00000491,0.00027498,-0.00024878,-0.00001426,-0.00008847,-0.00007758,0.
 00014511,0.00004872,0.00221100,0.00016777,0.00046787,0.00175429,-0.000
 10302,0.00090125,-0.00008063,-0.00017394,0.00019665,0.00019473,0.00021
 818,0.00018842,0.00007509,-0.00010462,-0.00014858,0.00013859,0.0000582
 4,0.00035527,0.09335066,-0.12003053,0.06864268,-0.00892570,0.01007244,
 -0.00687308,-0.10906948,0.14432402,-0.00090981,0.00197120,-0.00414537,
 -0.00085282,-0.00054324,0.00178886,0.01514987,-0.01697627,0.01025018,0
 .00046268,0.00020773,-0.00032897,-0.00018657,0.00017289,0.00030094,-0.
 00005599,0.00001463,-0.00025800,0.00007006,0.00006080,0.00007438,0.000
 02637,-0.00011075,-0.00007329,-0.00047271,-0.00008649,0.00076039,0.000
 12449,-0.00001063,0.00003626,-0.00005732,-0.00034663,-0.00020678,0.000
 04635,0.00013160,0.00015673,-0.00000755,0.00007125,0.00005341,0.000238
 41,0.00018486,0.00031041,-0.09184013,0.07377129,-0.11525694,0.00319718
 ,-0.00205124,0.00243051,0.09677656,-0.07104132,0.11688210,0.00089339,-
 0.00006119,0.00183569,-0.00071421,-0.00020460,-0.00053471,0.00300608,0
 .00421129,0.00113824,0.00000947,0.00059783,-0.00013612,-0.00015573,-0.
 00019884,-0.00036222,-0.00022021,-0.00012609,0.00013733,-0.00000282,0.
 00003652,0.00004492,0.00003230,0.00005638,0.00005556,-0.00057123,-0.00
 033307,-0.00075253,0.00071039,-0.00035604,0.00043822,-0.00024524,0.000
 14333,0.00065226,0.00005270,-0.00010864,-0.00024337,0.00016858,-0.0000
 6711,-0.00014662,-0.00063056,0.00001601,-0.00033414,-0.07191463,-0.010
 60614,0.05934249,-0.00555616,-0.00479148,0.02900805,0.00745552,0.00239
 909,-0.02249986,0.06793591,0.00064145,0.00268099,-0.00463693,-0.001161
 47,0.00076790,0.00169508,0.00857484,-0.00925151,-0.03915162,-0.0005384
 4,-0.00072074,0.00060865,-0.00003309,-0.00017938,0.00004636,-0.0002093
 7,0.00004693,-0.00001481,0.00001712,0.00002832,0.00003271,-0.00004602,
 0.00001572,0.00002570,0.00244240,0.00153802,-0.00087244,-0.00058762,-0
 .00013533,-0.00060796,0.00003733,-0.00046473,0.00024141,0.00009558,0.0
 0004925,0.00003668,-0.00007763,-0.00004057,-0.00004386,0.00019924,0.00
 010097,0.00004302,-0.01089222,-0.05703982,0.04171060,-0.00175010,0.000
 02709,0.01309935,-0.00600801,-0.00080156,0.01607414,0.00939545,0.06335
 560,-0.00204863,0.00483508,-0.00410884,-0.00154578,-0.00101526,0.00256
 817,0.00303932,-0.01534132,-0.01541239,-0.00207405,-0.00078064,0.00062
 009,0.00057037,-0.00062005,-0.00080714,-0.00018436,0.00013857,0.000488
 25,-0.00004015,0.00004602,0.00001936,-0.00004596,0.00019570,0.00024042
 ,0.00334610,0.00160009,-0.00099905,0.00063158,-0.00019643,0.00013105,0
 .00014297,-0.00045889,-0.00002566,0.00011122,0.00009422,0.00016630,-0.
 00010919,0.00008877,0.00004648,0.00011141,0.00017917,0.00030810,0.0604
 7714,0.03627887,-0.28235890,0.00011486,0.00180868,-0.00055682,0.004249
 09,0.00318330,-0.01256099,-0.06724858,-0.02944845,0.31175639,-0.071129
 24,-0.01200493,0.00160343,0.00224549,0.01700085,0.03942876,-0.00025684
 ,0.02770653,0.00872334,-0.00298971,0.00057021,-0.00019032,0.00124224,-
 0.00028098,-0.00026134,-0.00012205,0.00010244,0.00013640,-0.00015510,0
 .00009964,-0.00001974,-0.00015396,-0.00001297,0.00009364,0.00131641,-0
 .00074814,0.00045292,0.00305136,-0.00012195,0.00026685,0.00366224,-0.0
 2161896,-0.02324434,0.00180762,-0.00002044,0.00079714,0.00132694,0.000
 65837,-0.00033103,-0.00485595,-0.00261538,-0.00242634,-0.00290235,-0.0
 0057892,-0.00380655,0.00029386,0.00072231,-0.00007172,0.00006128,0.001
 40507,0.00079078,-0.00025354,-0.00009943,0.00050265,0.06781131,-0.0196
 0471,-0.10248577,-0.04783014,0.01404791,0.02108780,-0.01034517,0.01574
 824,-0.04808181,-0.01811060,0.00519307,0.00227947,0.00093366,-0.000276
 89,0.00019220,0.00030271,-0.00015607,0.00006196,0.00017601,0.00008952,
 -0.00012405,-0.00004641,0.00021235,0.00001655,-0.00011590,-0.00528997,
 -0.00514799,-0.00042324,-0.00375642,-0.00016804,-0.00295382,0.00101607
 ,-0.01616226,-0.02445691,-0.00064133,0.00076479,-0.00077898,0.00152517
 ,-0.00013694,0.00030261,-0.00500524,-0.00022286,-0.00154044,0.00725812
 ,0.00051944,0.00665442,-0.00040336,0.00001805,-0.00010469,0.00020956,-
 0.00287500,-0.00149383,-0.00000271,0.00002286,-0.00058741,-0.01016332,
 0.15044159,-0.01669851,-0.04810009,-0.11635385,0.04615340,-0.01760701,
 -0.06485554,0.00264966,-0.00707135,0.00898581,0.00593955,-0.00179566,0
 .00564711,-0.00041842,-0.00015329,0.00064452,-0.00031183,0.00031532,0.
 00007763,0.00038573,-0.00017478,-0.00000803,-0.00001626,0.00003395,-0.
 00009184,0.00059339,-0.00130246,-0.00270032,-0.01213193,0.00190652,-0.
 00871022,0.00005114,-0.02546526,-0.02054868,0.00178867,0.00056208,0.00
 006325,-0.00100045,-0.00122957,0.00099897,-0.00512882,-0.00143194,0.00
 030742,0.00099484,0.00047398,0.00255863,-0.00006909,0.00012923,-0.0000
 5775,0.00005806,-0.00067018,-0.00021382,-0.00039462,0.00116238,0.00048
 518,-0.02244453,0.10041813,0.19377154\\-0.00000376,0.00000925,-0.00001
 010,-0.00000403,-0.00000660,-0.00000336,0.00000253,0.00003453,-0.00000
 934,-0.00002612,-0.00000656,0.00003649,-0.00000848,0.00000121,-0.00000
 294,0.00000151,-0.00000385,0.00000602,-0.00000190,0.00000645,0.0000061
 2,-0.00000118,0.00000062,-0.00000131,0.00002015,0.00001365,-0.00002386
 ,0.00000092,-0.00001732,-0.00001305,-0.00000049,-0.00000647,-0.0000034
 1,0.00000082,-0.00000589,-0.00000805,0.00000011,-0.00000061,-0.0000041
 0,0.00000183,-0.00000756,-0.00000278,0.00000673,-0.00000266,0.00001335
 ,0.00000142,0.00000275,0.00000826,0.00000017,0.00000305,0.00001209,0.0
 0000262,-0.00000506,0.00000931,0.00000714,-0.00000894,-0.00000932\\\@


 I (ERNEST RUTHERFORD) CAME INTO THE ROOM, WHICH WAS HALF DARK, AND PRESENTLY
 SPOTTED LORD KELVIN IN THE AUDIENCE AND REALIZED I WAS IN TROUBLE AT
 THE LAST PART OF MY SPEECH DEALING THE AGE OF THE EARTH, WHERE MY VIEWS
 CONFLICTED WITH HIS.  TO MY RELIEF KELVIN FELL FAST ASLEEP, BUT AS I CAME
 TO THE IMPORTANT POINT, I SAW THE OLD BIRD SIT UP AND COCK A BALEFUL GLANCE
 AT ME! THEN A SUDDEN INSPIRATION CAME AND I SAID LORD KELVIN HAD LIMITED
 THE AGE OF THE EARTH PROVIDED NO NEW SOURCE WAS DISCOVERED. THAT
 PROPHETIC UTTERANCE REFERS TO WHAT WE ARE NOW CONSIDERING TONIGHT, RADIUM!
 BEHOLD!  THE OLD BOY BEAMED UPON ME.
 Job cpu time:       0 days  0 hours 18 minutes  1.8 seconds.
 File lengths (MBytes):  RWF=     73 Int=      0 D2E=      0 Chk=      4 Scr=      1
 Normal termination of Gaussian 09 at Thu Feb 19 15:34:00 2015.
