 Entering Gaussian System, Link 0=g09
 Initial command:
 /opt/gridware/applications/gaussian/g09/l1.exe "/lustre/SCRATCH5/gau/Gau-9304.inp" -scrdir="/lustre/SCRATCH5/gau/"
 Entering Link 1 = /opt/gridware/applications/gaussian/g09/l1.exe PID=      9305.
  
 Copyright (c) 1988,1990,1992,1993,1995,1998,2003,2009,2013,
            Gaussian, Inc.  All Rights Reserved.
  
 This is part of the Gaussian(R) 09 program.  It is based on
 the Gaussian(R) 03 system (copyright 2003, Gaussian, Inc.),
 the Gaussian(R) 98 system (copyright 1998, Gaussian, Inc.),
 the Gaussian(R) 94 system (copyright 1995, Gaussian, Inc.),
 the Gaussian 92(TM) system (copyright 1992, Gaussian, Inc.),
 the Gaussian 90(TM) system (copyright 1990, Gaussian, Inc.),
 the Gaussian 88(TM) system (copyright 1988, Gaussian, Inc.),
 the Gaussian 86(TM) system (copyright 1986, Carnegie Mellon
 University), and the Gaussian 82(TM) system (copyright 1983,
 Carnegie Mellon University). Gaussian is a federally registered
 trademark of Gaussian, Inc.
  
 This software contains proprietary and confidential information,
 including trade secrets, belonging to Gaussian, Inc.
  
 This software is provided under written license and may be
 used, copied, transmitted, or stored only in accord with that
 written license.
  
 The following legend is applicable only to US Government
 contracts under FAR:
  
                    RESTRICTED RIGHTS LEGEND
  
 Use, reproduction and disclosure by the US Government is
 subject to restrictions as set forth in subparagraphs (a)
 and (c) of the Commercial Computer Software - Restricted
 Rights clause in FAR 52.227-19.
  
 Gaussian, Inc.
 340 Quinnipiac St., Bldg. 40, Wallingford CT 06492
  
  
 ---------------------------------------------------------------
 Warning -- This program may not be used in any manner that
 competes with the business of Gaussian, Inc. or will provide
 assistance to any competitor of Gaussian, Inc.  The licensee
 of this program is prohibited from giving any competitor of
 Gaussian, Inc. access to this program.  By using this program,
 the user acknowledges that Gaussian, Inc. is engaged in the
 business of creating and licensing software in the field of
 computational chemistry and represents and warrants to the
 licensee that it is not a competitor of Gaussian, Inc. and that
 it will not use this program in any manner prohibited above.
 ---------------------------------------------------------------
  

 Cite this work as:
 Gaussian 09, Revision D.01,
 M. J. Frisch, G. W. Trucks, H. B. Schlegel, G. E. Scuseria, 
 M. A. Robb, J. R. Cheeseman, G. Scalmani, V. Barone, B. Mennucci, 
 G. A. Petersson, H. Nakatsuji, M. Caricato, X. Li, H. P. Hratchian, 
 A. F. Izmaylov, J. Bloino, G. Zheng, J. L. Sonnenberg, M. Hada, 
 M. Ehara, K. Toyota, R. Fukuda, J. Hasegawa, M. Ishida, T. Nakajima, 
 Y. Honda, O. Kitao, H. Nakai, T. Vreven, J. A. Montgomery, Jr., 
 J. E. Peralta, F. Ogliaro, M. Bearpark, J. J. Heyd, E. Brothers, 
 K. N. Kudin, V. N. Staroverov, T. Keith, R. Kobayashi, J. Normand, 
 K. Raghavachari, A. Rendell, J. C. Burant, S. S. Iyengar, J. Tomasi, 
 M. Cossi, N. Rega, J. M. Millam, M. Klene, J. E. Knox, J. B. Cross, 
 V. Bakken, C. Adamo, J. Jaramillo, R. Gomperts, R. E. Stratmann, 
 O. Yazyev, A. J. Austin, R. Cammi, C. Pomelli, J. W. Ochterski, 
 R. L. Martin, K. Morokuma, V. G. Zakrzewski, G. A. Voth, 
 P. Salvador, J. J. Dannenberg, S. Dapprich, A. D. Daniels, 
 O. Farkas, J. B. Foresman, J. V. Ortiz, J. Cioslowski, 
 and D. J. Fox, Gaussian, Inc., Wallingford CT, 2013.
 
 ******************************************
 Gaussian 09:  EM64L-G09RevD.01 24-Apr-2013
                19-Feb-2015 
 ******************************************
 %nprocshared=8
 Will use up to    8 processors via shared memory.
 %nprocl=1
 Will use up to    1 processors via Linda.
 ----------------------------------------------------------------------
 # opt=(calcfc,ts,noeigentest) freq=noraman b3lyp/gen pseudo=read gfinp
 ut geom=connectivity
 ----------------------------------------------------------------------
 1/5=1,10=4,11=1,14=-1,18=20,26=3,38=1,57=2/1,3;
 2/9=110,12=2,17=6,18=5,40=1/2;
 3/5=7,11=2,16=1,17=8,24=10,25=1,30=1,71=2,74=-5,140=1/1,2,3;
 4//1;
 5/5=2,38=5/2;
 8/6=4,10=90,11=11/1;
 11/6=1,8=1,9=11,15=111,16=1/1,2,10;
 10/6=1,13=1/2;
 6/7=2,8=2,9=2,10=2,28=1/1;
 7/10=1,18=20,25=1/1,2,3,16;
 1/5=1,10=4,11=1,14=-1,18=20,26=3/3(2);
 2/9=110/2;
 99//99;
 2/9=110/2;
 3/5=7,6=1,11=2,16=1,17=8,25=1,30=1,71=1,74=-5,82=7/1,2,3;
 4/5=5,16=3,69=1/1;
 5/5=2,38=5/2;
 7//1,2,3,16;
 1/5=1,11=1,14=-1,18=20,26=3/3(-5);
 2/9=110/2;
 6/7=2,8=2,9=2,10=2,19=2,28=1/1;
 99/9=1/99;
 ------------------------
 gen calculation ts624F-C H O=6-31+g(d)/F=LANL2DZ
 ------------------------
 Symbolic Z-matrix:
 Charge =  0 Multiplicity = 1
 C                     1.03864  -0.44423   0.15046 
 O                     0.14066  -0.92438   0.90514 
 O                     0.23413   0.69407  -0.72018 
 O                    -1.87108  -0.6155   -0.42045 
 C                    -2.86906   0.02124   0.41467 
 H                    -2.40055   0.51502   1.27139 
 H                    -3.38905   0.73373  -0.23411 
 H                    -3.55655  -0.76608   0.74698 
 H                    -0.92912   0.23641  -0.72989 
 H                    -1.18981  -1.20177   0.23529 
 C                     2.3178    0.14147   0.67281 
 H                     3.00343  -0.66652   0.98211 
 H                     2.84725   0.74589  -0.07611 
 H                     2.13892   0.75634   1.56506 
 C                     0.16568   2.00624  -0.11717 
 H                     1.15585   2.46142  -0.22981 
 H                    -0.5738    2.57023  -0.69535 
 H                    -0.11844   1.92899   0.93699 
 F                     1.22932  -1.21061  -0.95703 
 
 Add virtual bond connecting atoms H10        and O4         Dist= 2.10D+00.
 Add virtual bond connecting atoms H9         and O3         Dist= 2.36D+00.
 Add virtual bond connecting atoms H9         and O4         Dist= 2.47D+00.
 Add virtual bond connecting atoms O3         and C1         Dist= 3.11D+00.
 Add virtual bond connecting atoms H10        and O2         Dist= 2.86D+00.

 GradGradGradGradGradGradGradGradGradGradGradGradGradGradGradGradGradGrad
 Berny optimization.
 Initialization pass.
                           ----------------------------
                           !    Initial Parameters    !
                           ! (Angstroms and Degrees)  !
 --------------------------                            --------------------------
 ! Name  Definition              Value          Derivative Info.                !
 --------------------------------------------------------------------------------
 ! R1    R(1,2)                  1.2675         calculate D2E/DX2 analytically  !
 ! R2    R(1,3)                  1.6435         calculate D2E/DX2 analytically  !
 ! R3    R(1,11)                 1.5007         calculate D2E/DX2 analytically  !
 ! R4    R(1,19)                 1.3602         calculate D2E/DX2 analytically  !
 ! R5    R(2,10)                 1.5152         calculate D2E/DX2 analytically  !
 ! R6    R(3,9)                  1.2501         calculate D2E/DX2 analytically  !
 ! R7    R(3,15)                 1.4457         calculate D2E/DX2 analytically  !
 ! R8    R(4,5)                  1.4487         calculate D2E/DX2 analytically  !
 ! R9    R(4,9)                  1.3072         calculate D2E/DX2 analytically  !
 ! R10   R(4,10)                 1.1126         calculate D2E/DX2 analytically  !
 ! R11   R(5,6)                  1.0942         calculate D2E/DX2 analytically  !
 ! R12   R(5,7)                  1.095          calculate D2E/DX2 analytically  !
 ! R13   R(5,8)                  1.0968         calculate D2E/DX2 analytically  !
 ! R14   R(11,12)                1.1039         calculate D2E/DX2 analytically  !
 ! R15   R(11,13)                1.0984         calculate D2E/DX2 analytically  !
 ! R16   R(11,14)                1.0983         calculate D2E/DX2 analytically  !
 ! R17   R(15,16)                1.0956         calculate D2E/DX2 analytically  !
 ! R18   R(15,17)                1.0951         calculate D2E/DX2 analytically  !
 ! R19   R(15,18)                1.0945         calculate D2E/DX2 analytically  !
 ! A1    A(2,1,3)              103.3558         calculate D2E/DX2 analytically  !
 ! A2    A(2,1,11)             122.9901         calculate D2E/DX2 analytically  !
 ! A3    A(2,1,19)             111.7568         calculate D2E/DX2 analytically  !
 ! A4    A(3,1,11)             109.3495         calculate D2E/DX2 analytically  !
 ! A5    A(3,1,19)              91.5779         calculate D2E/DX2 analytically  !
 ! A6    A(11,1,19)            112.569          calculate D2E/DX2 analytically  !
 ! A7    A(1,2,10)             115.3559         calculate D2E/DX2 analytically  !
 ! A8    A(1,3,9)              101.8916         calculate D2E/DX2 analytically  !
 ! A9    A(1,3,15)             115.5219         calculate D2E/DX2 analytically  !
 ! A10   A(9,3,15)             106.946          calculate D2E/DX2 analytically  !
 ! A11   A(5,4,9)              110.2684         calculate D2E/DX2 analytically  !
 ! A12   A(5,4,10)             108.2803         calculate D2E/DX2 analytically  !
 ! A13   A(9,4,10)              92.3898         calculate D2E/DX2 analytically  !
 ! A14   A(4,5,6)              110.7762         calculate D2E/DX2 analytically  !
 ! A15   A(4,5,7)              105.7583         calculate D2E/DX2 analytically  !
 ! A16   A(4,5,8)              106.9153         calculate D2E/DX2 analytically  !
 ! A17   A(6,5,7)              111.9383         calculate D2E/DX2 analytically  !
 ! A18   A(6,5,8)              110.7995         calculate D2E/DX2 analytically  !
 ! A19   A(7,5,8)              110.4227         calculate D2E/DX2 analytically  !
 ! A20   A(3,9,4)              155.1338         calculate D2E/DX2 analytically  !
 ! A21   A(2,10,4)             134.5691         calculate D2E/DX2 analytically  !
 ! A22   A(1,11,12)            109.9543         calculate D2E/DX2 analytically  !
 ! A23   A(1,11,13)            112.848          calculate D2E/DX2 analytically  !
 ! A24   A(1,11,14)            111.2506         calculate D2E/DX2 analytically  !
 ! A25   A(12,11,13)           107.1229         calculate D2E/DX2 analytically  !
 ! A26   A(12,11,14)           106.4581         calculate D2E/DX2 analytically  !
 ! A27   A(13,11,14)           108.9267         calculate D2E/DX2 analytically  !
 ! A28   A(3,15,16)            106.9428         calculate D2E/DX2 analytically  !
 ! A29   A(3,15,17)            106.2125         calculate D2E/DX2 analytically  !
 ! A30   A(3,15,18)            110.4844         calculate D2E/DX2 analytically  !
 ! A31   A(16,15,17)           110.0007         calculate D2E/DX2 analytically  !
 ! A32   A(16,15,18)           111.2818         calculate D2E/DX2 analytically  !
 ! A33   A(17,15,18)           111.6898         calculate D2E/DX2 analytically  !
 ! D1    D(3,1,2,10)            43.6513         calculate D2E/DX2 analytically  !
 ! D2    D(11,1,2,10)          167.7157         calculate D2E/DX2 analytically  !
 ! D3    D(19,1,2,10)          -53.5425         calculate D2E/DX2 analytically  !
 ! D4    D(2,1,3,9)            -27.9597         calculate D2E/DX2 analytically  !
 ! D5    D(2,1,3,15)            87.5466         calculate D2E/DX2 analytically  !
 ! D6    D(11,1,3,9)          -160.5309         calculate D2E/DX2 analytically  !
 ! D7    D(11,1,3,15)          -45.0246         calculate D2E/DX2 analytically  !
 ! D8    D(19,1,3,9)            84.849          calculate D2E/DX2 analytically  !
 ! D9    D(19,1,3,15)         -159.6447         calculate D2E/DX2 analytically  !
 ! D10   D(2,1,11,12)           76.0629         calculate D2E/DX2 analytically  !
 ! D11   D(2,1,11,13)         -164.4075         calculate D2E/DX2 analytically  !
 ! D12   D(2,1,11,14)          -41.6209         calculate D2E/DX2 analytically  !
 ! D13   D(3,1,11,12)         -162.6147         calculate D2E/DX2 analytically  !
 ! D14   D(3,1,11,13)          -43.0851         calculate D2E/DX2 analytically  !
 ! D15   D(3,1,11,14)           79.7015         calculate D2E/DX2 analytically  !
 ! D16   D(19,1,11,12)         -62.3871         calculate D2E/DX2 analytically  !
 ! D17   D(19,1,11,13)          57.1425         calculate D2E/DX2 analytically  !
 ! D18   D(19,1,11,14)         179.929          calculate D2E/DX2 analytically  !
 ! D19   D(1,2,10,4)           -49.5979         calculate D2E/DX2 analytically  !
 ! D20   D(1,3,9,4)              2.7636         calculate D2E/DX2 analytically  !
 ! D21   D(15,3,9,4)          -118.8679         calculate D2E/DX2 analytically  !
 ! D22   D(1,3,15,16)           74.8403         calculate D2E/DX2 analytically  !
 ! D23   D(1,3,15,17)         -167.7123         calculate D2E/DX2 analytically  !
 ! D24   D(1,3,15,18)          -46.4143         calculate D2E/DX2 analytically  !
 ! D25   D(9,3,15,16)         -172.5666         calculate D2E/DX2 analytically  !
 ! D26   D(9,3,15,17)          -55.1191         calculate D2E/DX2 analytically  !
 ! D27   D(9,3,15,18)           66.1789         calculate D2E/DX2 analytically  !
 ! D28   D(9,4,5,6)            -51.9849         calculate D2E/DX2 analytically  !
 ! D29   D(9,4,5,7)             69.4987         calculate D2E/DX2 analytically  !
 ! D30   D(9,4,5,8)           -172.8052         calculate D2E/DX2 analytically  !
 ! D31   D(10,4,5,6)            47.7332         calculate D2E/DX2 analytically  !
 ! D32   D(10,4,5,7)           169.2168         calculate D2E/DX2 analytically  !
 ! D33   D(10,4,5,8)           -73.0871         calculate D2E/DX2 analytically  !
 ! D34   D(5,4,9,3)            114.1418         calculate D2E/DX2 analytically  !
 ! D35   D(10,4,9,3)             3.65           calculate D2E/DX2 analytically  !
 ! D36   D(5,4,10,2)           -94.1936         calculate D2E/DX2 analytically  !
 ! D37   D(9,4,10,2)            18.0741         calculate D2E/DX2 analytically  !
 --------------------------------------------------------------------------------
 Trust Radius=3.00D-01 FncErr=1.00D-07 GrdErr=1.00D-06
 Number of steps in this run=     99 maximum allowed number of steps=    114.
 Search for a saddle point of order  1.
 GradGradGradGradGradGradGradGradGradGradGradGradGradGradGradGradGradGrad

                          Input orientation:                          
 ---------------------------------------------------------------------
 Center     Atomic      Atomic             Coordinates (Angstroms)
 Number     Number       Type             X           Y           Z
 ---------------------------------------------------------------------
      1          6           0        1.038638   -0.444228    0.150458
      2          8           0        0.140657   -0.924384    0.905138
      3          8           0        0.234125    0.694069   -0.720178
      4          8           0       -1.871075   -0.615496   -0.420445
      5          6           0       -2.869059    0.021236    0.414667
      6          1           0       -2.400549    0.515022    1.271394
      7          1           0       -3.389051    0.733726   -0.234110
      8          1           0       -3.556552   -0.766079    0.746980
      9          1           0       -0.929120    0.236408   -0.729885
     10          1           0       -1.189813   -1.201772    0.235293
     11          6           0        2.317801    0.141469    0.672809
     12          1           0        3.003432   -0.666516    0.982111
     13          1           0        2.847250    0.745892   -0.076114
     14          1           0        2.138920    0.756342    1.565055
     15          6           0        0.165676    2.006238   -0.117169
     16          1           0        1.155848    2.461422   -0.229811
     17          1           0       -0.573795    2.570231   -0.695350
     18          1           0       -0.118440    1.928985    0.936989
     19          9           0        1.229320   -1.210607   -0.957029
 ---------------------------------------------------------------------
                    Distance matrix (angstroms):
                    1          2          3          4          5
     1  C    0.000000
     2  O    1.267463   0.000000
     3  O    1.643462   2.295600   0.000000
     4  O    2.970133   2.428919   2.497332   0.000000
     5  C    3.944180   3.192671   3.371992   1.448728   0.000000
     6  H    3.742281   2.943427   3.307556   2.102554   1.094215
     7  H    4.597814   4.062764   3.655850   2.039454   1.094964
     8  H    4.644911   3.703975   4.319006   2.055818   1.096788
     9  H    2.260606   2.272699   1.250075   1.307200   2.262667
    10  H    2.355221   1.515185   2.556313   1.112578   2.085136
    11  C    1.500716   2.435154   2.566610   4.394870   5.194671
    12  H    2.145105   2.875396   3.523924   5.072532   5.939793
    13  H    2.176878   3.328411   2.691826   4.922858   5.782921
    14  H    2.157098   2.693211   2.975636   4.680193   5.190725
    15  C    2.615047   3.103914   1.445715   3.333740   3.665065
    16  H    2.932771   3.712466   2.052698   4.320420   4.750762
    17  H    3.521689   3.909519   2.042874   3.450705   3.605239
    18  H    2.754923   2.865285   2.096550   3.374721   3.387954
    19  F    1.360229   2.175954   2.162013   3.202269   4.493962
                    6          7          8          9         10
     6  H    0.000000
     7  H    1.814252   0.000000
     8  H    1.803489   1.800003   0.000000
     9  H    2.499569   2.558198   3.176399   0.000000
    10  H    2.342385   2.967009   2.460306   1.751540   0.000000
    11  C    4.770815   5.808737   5.944507   3.538228   3.781411
    12  H    5.539199   6.656103   6.564952   4.383055   4.292731
    13  H    5.422958   6.238314   6.631155   3.866259   4.493133
    14  H    4.555354   5.813430   5.951925   3.866517   4.084476
    15  C    3.276789   3.777439   4.720961   2.169400   3.500415
    16  H    4.323199   4.862207   5.794618   3.089960   4.374636
    17  H    3.380680   3.392810   4.701927   2.360970   3.933647
    18  H    2.705391   3.673828   4.372652   2.510077   3.382581
    19  F    4.595608   5.062844   5.099590   2.608507   2.697020
                   11         12         13         14         15
    11  C    0.000000
    12  H    1.103901   0.000000
    13  H    1.098421   1.771759   0.000000
    14  H    1.098258   1.764010   1.787534   0.000000
    15  C    2.955177   4.050295   2.963275   2.878508   0.000000
    16  H    2.747188   3.829663   2.414023   2.663695   1.095592
    17  H    4.016475   5.107539   3.926221   3.969691   1.095079
    18  H    3.033195   4.060141   3.349836   2.620159   1.094504
    19  F    2.381023   2.683984   2.687303   3.325232   3.490673
                   16         17         18         19
    16  H    0.000000
    17  H    1.794500   0.000000
    18  H    1.807961   1.811926   0.000000
    19  F    3.744067   4.196956   3.906507   0.000000
 Stoichiometry    C4H11FO3
 Framework group  C1[X(C4H11FO3)]
 Deg. of freedom    51
 Full point group                 C1      NOp   1
 Largest Abelian subgroup         C1      NOp   1
 Largest concise Abelian subgroup C1      NOp   1
                         Standard orientation:                         
 ---------------------------------------------------------------------
 Center     Atomic      Atomic             Coordinates (Angstroms)
 Number     Number       Type             X           Y           Z
 ---------------------------------------------------------------------
      1          6           0        1.038638   -0.444228    0.150458
      2          8           0        0.140657   -0.924384    0.905138
      3          8           0        0.234125    0.694069   -0.720178
      4          8           0       -1.871075   -0.615496   -0.420445
      5          6           0       -2.869059    0.021236    0.414667
      6          1           0       -2.400549    0.515022    1.271394
      7          1           0       -3.389051    0.733726   -0.234110
      8          1           0       -3.556552   -0.766079    0.746980
      9          1           0       -0.929120    0.236408   -0.729885
     10          1           0       -1.189813   -1.201772    0.235293
     11          6           0        2.317801    0.141469    0.672809
     12          1           0        3.003432   -0.666516    0.982111
     13          1           0        2.847250    0.745892   -0.076114
     14          1           0        2.138920    0.756342    1.565055
     15          6           0        0.165676    2.006238   -0.117169
     16          1           0        1.155848    2.461422   -0.229811
     17          1           0       -0.573795    2.570231   -0.695350
     18          1           0       -0.118440    1.928985    0.936989
     19          9           0        1.229320   -1.210607   -0.957029
 ---------------------------------------------------------------------
 Rotational constants (GHZ):      2.7524908      1.3461166      1.1357869
 General basis read from cards:  (5D, 7F)
 ======================================================================================================
                                       Pseudopotential Parameters
 ======================================================================================================
  Center     Atomic      Valence      Angular      Power
  Number     Number     Electrons     Momentum     of R      Exponent        Coefficient   SO-Coeffient
 ======================================================================================================
    1          6
                                   No pseudopotential on this center.
    2          8
                                   No pseudopotential on this center.
    3          8
                                   No pseudopotential on this center.
    4          8
                                   No pseudopotential on this center.
    5          6
                                   No pseudopotential on this center.
    6          1
                                   No pseudopotential on this center.
    7          1
                                   No pseudopotential on this center.
    8          1
                                   No pseudopotential on this center.
    9          1
                                   No pseudopotential on this center.
   10          1
                                   No pseudopotential on this center.
   11          6
                                   No pseudopotential on this center.
   12          1
                                   No pseudopotential on this center.
   13          1
                                   No pseudopotential on this center.
   14          1
                                   No pseudopotential on this center.
   15          6
                                   No pseudopotential on this center.
   16          1
                                   No pseudopotential on this center.
   17          1
                                   No pseudopotential on this center.
   18          1
                                   No pseudopotential on this center.
   19          9
                                   No pseudopotential on this center.
 ======================================================================================================
 AO basis set in the form of general basis input (Overlap normalization):
      1 0
 S   6 1.00       0.000000000000
      0.3047524880D+04  0.1834737132D-02
      0.4573695180D+03  0.1403732281D-01
      0.1039486850D+03  0.6884262226D-01
      0.2921015530D+02  0.2321844432D+00
      0.9286662960D+01  0.4679413484D+00
      0.3163926960D+01  0.3623119853D+00
 SP   3 1.00       0.000000000000
      0.7868272350D+01 -0.1193324198D+00  0.6899906659D-01
      0.1881288540D+01 -0.1608541517D+00  0.3164239610D+00
      0.5442492580D+00  0.1143456438D+01  0.7443082909D+00
 SP   1 1.00       0.000000000000
      0.1687144782D+00  0.1000000000D+01  0.1000000000D+01
 SP   1 1.00       0.000000000000
      0.4380000000D-01  0.1000000000D+01  0.1000000000D+01
 D   1 1.00       0.000000000000
      0.8000000000D+00  0.1000000000D+01
 ****
      2 0
 S   6 1.00       0.000000000000
      0.5484671660D+04  0.1831074430D-02
      0.8252349460D+03  0.1395017220D-01
      0.1880469580D+03  0.6844507810D-01
      0.5296450000D+02  0.2327143360D+00
      0.1689757040D+02  0.4701928980D+00
      0.5799635340D+01  0.3585208530D+00
 SP   3 1.00       0.000000000000
      0.1553961625D+02 -0.1107775495D+00  0.7087426823D-01
      0.3599933586D+01 -0.1480262627D+00  0.3397528391D+00
      0.1013761750D+01  0.1130767015D+01  0.7271585773D+00
 SP   1 1.00       0.000000000000
      0.2700058226D+00  0.1000000000D+01  0.1000000000D+01
 SP   1 1.00       0.000000000000
      0.8450000000D-01  0.1000000000D+01  0.1000000000D+01
 D   1 1.00       0.000000000000
      0.8000000000D+00  0.1000000000D+01
 ****
      3 0
 S   6 1.00       0.000000000000
      0.5484671660D+04  0.1831074430D-02
      0.8252349460D+03  0.1395017220D-01
      0.1880469580D+03  0.6844507810D-01
      0.5296450000D+02  0.2327143360D+00
      0.1689757040D+02  0.4701928980D+00
      0.5799635340D+01  0.3585208530D+00
 SP   3 1.00       0.000000000000
      0.1553961625D+02 -0.1107775495D+00  0.7087426823D-01
      0.3599933586D+01 -0.1480262627D+00  0.3397528391D+00
      0.1013761750D+01  0.1130767015D+01  0.7271585773D+00
 SP   1 1.00       0.000000000000
      0.2700058226D+00  0.1000000000D+01  0.1000000000D+01
 SP   1 1.00       0.000000000000
      0.8450000000D-01  0.1000000000D+01  0.1000000000D+01
 D   1 1.00       0.000000000000
      0.8000000000D+00  0.1000000000D+01
 ****
      4 0
 S   6 1.00       0.000000000000
      0.5484671660D+04  0.1831074430D-02
      0.8252349460D+03  0.1395017220D-01
      0.1880469580D+03  0.6844507810D-01
      0.5296450000D+02  0.2327143360D+00
      0.1689757040D+02  0.4701928980D+00
      0.5799635340D+01  0.3585208530D+00
 SP   3 1.00       0.000000000000
      0.1553961625D+02 -0.1107775495D+00  0.7087426823D-01
      0.3599933586D+01 -0.1480262627D+00  0.3397528391D+00
      0.1013761750D+01  0.1130767015D+01  0.7271585773D+00
 SP   1 1.00       0.000000000000
      0.2700058226D+00  0.1000000000D+01  0.1000000000D+01
 SP   1 1.00       0.000000000000
      0.8450000000D-01  0.1000000000D+01  0.1000000000D+01
 D   1 1.00       0.000000000000
      0.8000000000D+00  0.1000000000D+01
 ****
      5 0
 S   6 1.00       0.000000000000
      0.3047524880D+04  0.1834737132D-02
      0.4573695180D+03  0.1403732281D-01
      0.1039486850D+03  0.6884262226D-01
      0.2921015530D+02  0.2321844432D+00
      0.9286662960D+01  0.4679413484D+00
      0.3163926960D+01  0.3623119853D+00
 SP   3 1.00       0.000000000000
      0.7868272350D+01 -0.1193324198D+00  0.6899906659D-01
      0.1881288540D+01 -0.1608541517D+00  0.3164239610D+00
      0.5442492580D+00  0.1143456438D+01  0.7443082909D+00
 SP   1 1.00       0.000000000000
      0.1687144782D+00  0.1000000000D+01  0.1000000000D+01
 SP   1 1.00       0.000000000000
      0.4380000000D-01  0.1000000000D+01  0.1000000000D+01
 D   1 1.00       0.000000000000
      0.8000000000D+00  0.1000000000D+01
 ****
      6 0
 S   3 1.00       0.000000000000
      0.1873113696D+02  0.3349460434D-01
      0.2825394365D+01  0.2347269535D+00
      0.6401216923D+00  0.8137573261D+00
 S   1 1.00       0.000000000000
      0.1612777588D+00  0.1000000000D+01
 ****
      7 0
 S   3 1.00       0.000000000000
      0.1873113696D+02  0.3349460434D-01
      0.2825394365D+01  0.2347269535D+00
      0.6401216923D+00  0.8137573261D+00
 S   1 1.00       0.000000000000
      0.1612777588D+00  0.1000000000D+01
 ****
      8 0
 S   3 1.00       0.000000000000
      0.1873113696D+02  0.3349460434D-01
      0.2825394365D+01  0.2347269535D+00
      0.6401216923D+00  0.8137573261D+00
 S   1 1.00       0.000000000000
      0.1612777588D+00  0.1000000000D+01
 ****
      9 0
 S   3 1.00       0.000000000000
      0.1873113696D+02  0.3349460434D-01
      0.2825394365D+01  0.2347269535D+00
      0.6401216923D+00  0.8137573261D+00
 S   1 1.00       0.000000000000
      0.1612777588D+00  0.1000000000D+01
 ****
     10 0
 S   3 1.00       0.000000000000
      0.1873113696D+02  0.3349460434D-01
      0.2825394365D+01  0.2347269535D+00
      0.6401216923D+00  0.8137573261D+00
 S   1 1.00       0.000000000000
      0.1612777588D+00  0.1000000000D+01
 ****
     11 0
 S   6 1.00       0.000000000000
      0.3047524880D+04  0.1834737132D-02
      0.4573695180D+03  0.1403732281D-01
      0.1039486850D+03  0.6884262226D-01
      0.2921015530D+02  0.2321844432D+00
      0.9286662960D+01  0.4679413484D+00
      0.3163926960D+01  0.3623119853D+00
 SP   3 1.00       0.000000000000
      0.7868272350D+01 -0.1193324198D+00  0.6899906659D-01
      0.1881288540D+01 -0.1608541517D+00  0.3164239610D+00
      0.5442492580D+00  0.1143456438D+01  0.7443082909D+00
 SP   1 1.00       0.000000000000
      0.1687144782D+00  0.1000000000D+01  0.1000000000D+01
 SP   1 1.00       0.000000000000
      0.4380000000D-01  0.1000000000D+01  0.1000000000D+01
 D   1 1.00       0.000000000000
      0.8000000000D+00  0.1000000000D+01
 ****
     12 0
 S   3 1.00       0.000000000000
      0.1873113696D+02  0.3349460434D-01
      0.2825394365D+01  0.2347269535D+00
      0.6401216923D+00  0.8137573261D+00
 S   1 1.00       0.000000000000
      0.1612777588D+00  0.1000000000D+01
 ****
     13 0
 S   3 1.00       0.000000000000
      0.1873113696D+02  0.3349460434D-01
      0.2825394365D+01  0.2347269535D+00
      0.6401216923D+00  0.8137573261D+00
 S   1 1.00       0.000000000000
      0.1612777588D+00  0.1000000000D+01
 ****
     14 0
 S   3 1.00       0.000000000000
      0.1873113696D+02  0.3349460434D-01
      0.2825394365D+01  0.2347269535D+00
      0.6401216923D+00  0.8137573261D+00
 S   1 1.00       0.000000000000
      0.1612777588D+00  0.1000000000D+01
 ****
     15 0
 S   6 1.00       0.000000000000
      0.3047524880D+04  0.1834737132D-02
      0.4573695180D+03  0.1403732281D-01
      0.1039486850D+03  0.6884262226D-01
      0.2921015530D+02  0.2321844432D+00
      0.9286662960D+01  0.4679413484D+00
      0.3163926960D+01  0.3623119853D+00
 SP   3 1.00       0.000000000000
      0.7868272350D+01 -0.1193324198D+00  0.6899906659D-01
      0.1881288540D+01 -0.1608541517D+00  0.3164239610D+00
      0.5442492580D+00  0.1143456438D+01  0.7443082909D+00
 SP   1 1.00       0.000000000000
      0.1687144782D+00  0.1000000000D+01  0.1000000000D+01
 SP   1 1.00       0.000000000000
      0.4380000000D-01  0.1000000000D+01  0.1000000000D+01
 D   1 1.00       0.000000000000
      0.8000000000D+00  0.1000000000D+01
 ****
     16 0
 S   3 1.00       0.000000000000
      0.1873113696D+02  0.3349460434D-01
      0.2825394365D+01  0.2347269535D+00
      0.6401216923D+00  0.8137573261D+00
 S   1 1.00       0.000000000000
      0.1612777588D+00  0.1000000000D+01
 ****
     17 0
 S   3 1.00       0.000000000000
      0.1873113696D+02  0.3349460434D-01
      0.2825394365D+01  0.2347269535D+00
      0.6401216923D+00  0.8137573261D+00
 S   1 1.00       0.000000000000
      0.1612777588D+00  0.1000000000D+01
 ****
     18 0
 S   3 1.00       0.000000000000
      0.1873113696D+02  0.3349460434D-01
      0.2825394365D+01  0.2347269535D+00
      0.6401216923D+00  0.8137573261D+00
 S   1 1.00       0.000000000000
      0.1612777588D+00  0.1000000000D+01
 ****
     19 0
 S   7 1.00       0.000000000000
      0.9995000000D+04  0.1165998577D-02
      0.1506000000D+04  0.8875989168D-02
      0.3503000000D+03  0.4237994828D-01
      0.1041000000D+03  0.1429288256D+00
      0.3484000000D+02  0.3553715663D+00
      0.1222000000D+02  0.4620844361D+00
      0.4369000000D+01  0.1408478281D+00
 S   2 1.00       0.000000000000
      0.1222000000D+02 -0.1484519214D+00
      0.1208000000D+01  0.1055269442D+01
 S   1 1.00       0.000000000000
      0.3634000000D+00  0.1000000000D+01
 P   4 1.00       0.000000000000
      0.4436000000D+02  0.2087600240D-01
      0.1008000000D+02  0.1301070149D+00
      0.2996000000D+01  0.3961660455D+00
      0.9383000000D+00  0.6204040713D+00
 P   1 1.00       0.000000000000
      0.2733000000D+00  0.1000000000D+01
 ****

 There are   164 symmetry adapted cartesian basis functions of A   symmetry.
 There are   157 symmetry adapted basis functions of A   symmetry.
   157 basis functions,   293 primitive gaussians,   164 cartesian basis functions
    34 alpha electrons       34 beta electrons
       nuclear repulsion energy       452.3329082244 Hartrees.
 NAtoms=   19 NActive=   19 NUniq=   19 SFac= 1.00D+00 NAtFMM=   60 NAOKFM=F Big=F
 Integral buffers will be    131072 words long.
 Raffenetti 2 integral format.
 Two-electron integral symmetry is turned on.
 One-electron integrals computed using PRISM.
   1 Symmetry operations used in ECPInt.
 ECPInt:  NShTT=    1953 NPrTT=   10483 LenC2=    1933 LenP2D=    7330.
 LDataN:  DoStor=T MaxTD1= 4 Len=   56
 NBasis=   157 RedAO= T EigKep=  9.26D-05  NBF=   157
 NBsUse=   157 1.00D-06 EigRej= -1.00D+00 NBFU=   157
 ExpMin= 4.38D-02 ExpMax= 1.00D+04 ExpMxC= 8.25D+02 IAcc=2 IRadAn=         4 AccDes= 0.00D+00
 Harris functional with IExCor=  402 and IRadAn=       4 diagonalized for initial guess.
 HarFok:  IExCor=  402 AccDes= 0.00D+00 IRadAn=         4 IDoV= 1 UseB2=F ITyADJ=14
 ICtDFT=  3500011 ScaDFX=  1.000000  1.000000  1.000000  1.000000
 FoFCou: FMM=F IPFlag=           0 FMFlag=      100000 FMFlg1=           0
         NFxFlg=           0 DoJE=T BraDBF=F KetDBF=T FulRan=T
         wScrn=  0.000000 ICntrl=     500 IOpCl=  0 I1Cent=   200000004 NGrid=           0
         NMat0=    1 NMatS0=      1 NMatT0=    0 NMatD0=    1 NMtDS0=    0 NMtDT0=    0
 Petite list used in FoFCou.
 Requested convergence on RMS density matrix=1.00D-08 within 128 cycles.
 Requested convergence on MAX density matrix=1.00D-06.
 Requested convergence on             energy=1.00D-06.
 No special actions if energy rises.
 SCF Done:  E(RB3LYP) =  -484.531383395     A.U. after   13 cycles
            NFock= 13  Conv=0.43D-08     -V/T= 2.0062
 DoSCS=F DFT=T ScalE2(SS,OS)=  1.000000  1.000000
 Range of M.O.s used for correlation:     1   157
 NBasis=   157 NAE=    34 NBE=    34 NFC=     0 NFV=     0
 NROrb=    157 NOA=    34 NOB=    34 NVA=   123 NVB=   123

 **** Warning!!: The largest alpha MO coefficient is  0.25237511D+02

   1 Symmetry operations used in ECPInt.
 ECPInt:  NShTT=    1953 NPrTT=   10483 LenC2=    1933 LenP2D=    7330.
 LDataN:  DoStor=T MaxTD1= 5 Len=  102
 Number of processors reduced to   6 by ecpmxn.
 Symmetrizing basis deriv contribution to polar:
 IMax=3 JMax=2 DiffMx= 0.00D+00
 G2DrvN: will do    20 centers at a time, making    1 passes.
 Calling FoFCou, ICntrl=  3107 FMM=F I1Cent=   0 AccDes= 0.00D+00.
 End of G2Drv F.D. properties file   721 does not exist.
 End of G2Drv F.D. properties file   722 does not exist.
 End of G2Drv F.D. properties file   788 does not exist.
          IDoAtm=1111111111111111111
          Differentiating once with respect to nuclear coordinates.
          There are    60 degrees of freedom in the 1st order CPHF.  IDoFFX=6 NUNeed=     0.
     54 vectors produced by pass  0 Test12= 6.97D-15 1.67D-09 XBig12= 2.30D-01 6.32D-02.
 AX will form    54 AO Fock derivatives at one time.
     54 vectors produced by pass  1 Test12= 6.97D-15 1.67D-09 XBig12= 3.95D-02 3.11D-02.
     54 vectors produced by pass  2 Test12= 6.97D-15 1.67D-09 XBig12= 4.14D-04 2.66D-03.
     54 vectors produced by pass  3 Test12= 6.97D-15 1.67D-09 XBig12= 1.20D-06 1.47D-04.
     54 vectors produced by pass  4 Test12= 6.97D-15 1.67D-09 XBig12= 1.45D-09 4.27D-06.
     31 vectors produced by pass  5 Test12= 6.97D-15 1.67D-09 XBig12= 1.21D-12 1.41D-07.
      6 vectors produced by pass  6 Test12= 6.97D-15 1.67D-09 XBig12= 4.85D-15 9.29D-09.
 InvSVY:  IOpt=1 It=  1 EMax= 5.00D-16
 Solved reduced A of dimension   307 with    60 vectors.
 End of Minotr F.D. properties file   721 does not exist.
 End of Minotr F.D. properties file   722 does not exist.
 End of Minotr F.D. properties file   788 does not exist.

 **********************************************************************

            Population analysis using the SCF density.

 **********************************************************************

 Orbital symmetries:
       Occupied  (A) (A) (A) (A) (A) (A) (A) (A) (A) (A) (A) (A)
                 (A) (A) (A) (A) (A) (A) (A) (A) (A) (A) (A) (A)
                 (A) (A) (A) (A) (A) (A) (A) (A) (A) (A)
       Virtual   (A) (A) (A) (A) (A) (A) (A) (A) (A) (A) (A) (A)
                 (A) (A) (A) (A) (A) (A) (A) (A) (A) (A) (A) (A)
                 (A) (A) (A) (A) (A) (A) (A) (A) (A) (A) (A) (A)
                 (A) (A) (A) (A) (A) (A) (A) (A) (A) (A) (A) (A)
                 (A) (A) (A) (A) (A) (A) (A) (A) (A) (A) (A) (A)
                 (A) (A) (A) (A) (A) (A) (A) (A) (A) (A) (A) (A)
                 (A) (A) (A) (A) (A) (A) (A) (A) (A) (A) (A) (A)
                 (A) (A) (A) (A) (A) (A) (A) (A) (A) (A) (A) (A)
                 (A) (A) (A) (A) (A) (A) (A) (A) (A) (A) (A) (A)
                 (A) (A) (A) (A) (A) (A) (A) (A) (A) (A) (A) (A)
                 (A) (A) (A)
 The electronic state is 1-A.
 Alpha  occ. eigenvalues --  -24.67656 -19.18835 -19.18532 -19.10449 -10.35109
 Alpha  occ. eigenvalues --  -10.24714 -10.24698 -10.19275  -1.21824  -1.06287
 Alpha  occ. eigenvalues --   -1.02890  -0.99235  -0.75761  -0.71501  -0.70107
 Alpha  occ. eigenvalues --   -0.59395  -0.54729  -0.53861  -0.52307  -0.49371
 Alpha  occ. eigenvalues --   -0.47375  -0.46262  -0.45617  -0.45375  -0.41899
 Alpha  occ. eigenvalues --   -0.41257  -0.40540  -0.38441  -0.37010  -0.36187
 Alpha  occ. eigenvalues --   -0.34860  -0.30277  -0.27423  -0.26128
 Alpha virt. eigenvalues --   -0.00484   0.01310   0.01356   0.02458   0.03809
 Alpha virt. eigenvalues --    0.04492   0.05200   0.06328   0.07156   0.07438
 Alpha virt. eigenvalues --    0.07969   0.09174   0.09661   0.11177   0.11842
 Alpha virt. eigenvalues --    0.13049   0.14286   0.15379   0.16305   0.16824
 Alpha virt. eigenvalues --    0.18209   0.18768   0.19075   0.20003   0.20918
 Alpha virt. eigenvalues --    0.21262   0.21846   0.22929   0.25224   0.25490
 Alpha virt. eigenvalues --    0.26092   0.27779   0.29648   0.30011   0.30515
 Alpha virt. eigenvalues --    0.31456   0.32324   0.33007   0.34007   0.36423
 Alpha virt. eigenvalues --    0.36602   0.40028   0.42036   0.45220   0.50148
 Alpha virt. eigenvalues --    0.58410   0.62961   0.64607   0.65067   0.68986
 Alpha virt. eigenvalues --    0.70892   0.71839   0.73347   0.75235   0.77599
 Alpha virt. eigenvalues --    0.79218   0.85757   0.89136   0.91962   0.93670
 Alpha virt. eigenvalues --    0.95639   0.96768   0.98147   1.00977   1.02942
 Alpha virt. eigenvalues --    1.04303   1.04911   1.07935   1.09219   1.12236
 Alpha virt. eigenvalues --    1.12437   1.21321   1.21809   1.23014   1.23788
 Alpha virt. eigenvalues --    1.26908   1.29068   1.30124   1.32605   1.34303
 Alpha virt. eigenvalues --    1.38039   1.41773   1.44200   1.50357   1.52737
 Alpha virt. eigenvalues --    1.54412   1.56683   1.59723   1.66375   1.66994
 Alpha virt. eigenvalues --    1.70260   1.75246   1.80244   1.80411   1.83537
 Alpha virt. eigenvalues --    1.86617   1.94849   1.97718   2.03536   2.04043
 Alpha virt. eigenvalues --    2.08049   2.09993   2.12418   2.14768   2.16828
 Alpha virt. eigenvalues --    2.19833   2.21986   2.24865   2.27641   2.29152
 Alpha virt. eigenvalues --    2.30875   2.32434   2.36054   2.40531   2.49273
 Alpha virt. eigenvalues --    2.52383   2.61400   2.63089   2.79572   2.80914
 Alpha virt. eigenvalues --    2.86519   2.88192   3.08255
          Condensed to atoms (all electrons):
               1          2          3          4          5          6
     1  C    5.789258   0.390670   0.204331   0.043246  -0.019724  -0.007116
     2  O    0.390670   8.590814  -0.146383  -0.125095   0.015066   0.005605
     3  O    0.204331  -0.146383   8.819781  -0.061793   0.023896   0.001203
     4  O    0.043246  -0.125095  -0.061793   8.805234   0.043900  -0.084310
     5  C   -0.019724   0.015066   0.023896   0.043900   5.145682   0.409855
     6  H   -0.007116   0.005605   0.001203  -0.084310   0.409855   0.525760
     7  H    0.000978  -0.000771  -0.000767  -0.041707   0.395010  -0.033060
     8  H   -0.000578   0.000236  -0.001279  -0.041906   0.388602  -0.030375
     9  H   -0.027945  -0.002412   0.106797   0.099423  -0.013256   0.001189
    10  H   -0.040578   0.127165  -0.003007   0.079232  -0.000790   0.001954
    11  C   -1.038724  -0.184656  -0.171811  -0.010429  -0.003302   0.002388
    12  H   -0.043205  -0.003679   0.005617   0.000026  -0.000141   0.000000
    13  H   -0.079214   0.006978  -0.000344   0.000440  -0.000144  -0.000001
    14  H    0.037494  -0.007303  -0.002976  -0.000291   0.000312   0.000004
    15  C   -0.159472   0.006438   0.013903   0.008129  -0.016040  -0.000760
    16  H   -0.013776  -0.002016  -0.036552  -0.001118   0.001521   0.000024
    17  H    0.003454  -0.001090  -0.041998  -0.000239  -0.000634  -0.000168
    18  H   -0.015274   0.013808  -0.079815   0.000294  -0.003405   0.001150
    19  F    0.546942  -0.090498  -0.076470   0.001499  -0.002676  -0.000001
               7          8          9         10         11         12
     1  C    0.000978  -0.000578  -0.027945  -0.040578  -1.038724  -0.043205
     2  O   -0.000771   0.000236  -0.002412   0.127165  -0.184656  -0.003679
     3  O   -0.000767  -0.001279   0.106797  -0.003007  -0.171811   0.005617
     4  O   -0.041707  -0.041906   0.099423   0.079232  -0.010429   0.000026
     5  C    0.395010   0.388602  -0.013256  -0.000790  -0.003302  -0.000141
     6  H   -0.033060  -0.030375   0.001189   0.001954   0.002388   0.000000
     7  H    0.506409  -0.025540  -0.003117   0.002290  -0.000213   0.000000
     8  H   -0.025540   0.504197   0.001813  -0.003677   0.000021   0.000000
     9  H   -0.003117   0.001813   0.266912  -0.005932   0.022376  -0.000059
    10  H    0.002290  -0.003677  -0.005932   0.280387   0.028356  -0.000029
    11  C   -0.000213   0.000021   0.022376   0.028356   7.045930   0.389176
    12  H    0.000000   0.000000  -0.000059  -0.000029   0.389176   0.459165
    13  H    0.000000   0.000000   0.000054  -0.000073   0.417051  -0.023745
    14  H    0.000000   0.000000  -0.000038   0.000017   0.315311  -0.022784
    15  C   -0.002241   0.001960  -0.006555   0.001786   0.091946   0.001483
    16  H    0.000002  -0.000001   0.001390   0.000010   0.008123   0.000015
    17  H    0.000102   0.000007  -0.002408  -0.000002  -0.000971  -0.000002
    18  H    0.000028   0.000008   0.000081   0.000123  -0.001685   0.000007
    19  F    0.000000   0.000000   0.000570  -0.002390  -0.204438  -0.001795
              13         14         15         16         17         18
     1  C   -0.079214   0.037494  -0.159472  -0.013776   0.003454  -0.015274
     2  O    0.006978  -0.007303   0.006438  -0.002016  -0.001090   0.013808
     3  O   -0.000344  -0.002976   0.013903  -0.036552  -0.041998  -0.079815
     4  O    0.000440  -0.000291   0.008129  -0.001118  -0.000239   0.000294
     5  C   -0.000144   0.000312  -0.016040   0.001521  -0.000634  -0.003405
     6  H   -0.000001   0.000004  -0.000760   0.000024  -0.000168   0.001150
     7  H    0.000000   0.000000  -0.002241   0.000002   0.000102   0.000028
     8  H    0.000000   0.000000   0.001960  -0.000001   0.000007   0.000008
     9  H    0.000054  -0.000038  -0.006555   0.001390  -0.002408   0.000081
    10  H   -0.000073   0.000017   0.001786   0.000010  -0.000002   0.000123
    11  C    0.417051   0.315311   0.091946   0.008123  -0.000971  -0.001685
    12  H   -0.023745  -0.022784   0.001483   0.000015  -0.000002   0.000007
    13  H    0.490503  -0.031979  -0.005316   0.001300   0.000017   0.000161
    14  H   -0.031979   0.483568  -0.002078  -0.001582   0.000067   0.000378
    15  C   -0.005316  -0.002078   5.247519   0.391218   0.387643   0.412123
    16  H    0.001300  -0.001582   0.391218   0.502549  -0.023937  -0.034758
    17  H    0.000017   0.000067   0.387643  -0.023937   0.509156  -0.031291
    18  H    0.000161   0.000378   0.412123  -0.034758  -0.031291   0.520908
    19  F   -0.000956   0.001958  -0.000715   0.000120  -0.000086  -0.000008
              19
     1  C    0.546942
     2  O   -0.090498
     3  O   -0.076470
     4  O    0.001499
     5  C   -0.002676
     6  H   -0.000001
     7  H    0.000000
     8  H    0.000000
     9  H    0.000570
    10  H   -0.002390
    11  C   -0.204438
    12  H   -0.001795
    13  H   -0.000956
    14  H    0.001958
    15  C   -0.000715
    16  H    0.000120
    17  H   -0.000086
    18  H   -0.000008
    19  F    8.993482
 Mulliken charges:
               1
     1  C    0.429233
     2  O   -0.592875
     3  O   -0.552334
     4  O   -0.714534
     5  C   -0.363730
     6  H    0.206659
     7  H    0.202598
     8  H    0.206513
     9  H    0.561114
    10  H    0.535158
    11  C   -0.704451
    12  H    0.239949
    13  H    0.225268
    14  H    0.229922
    15  C   -0.370970
    16  H    0.207469
    17  H    0.202381
    18  H    0.217168
    19  F   -0.164538
 Sum of Mulliken charges =   0.00000
 Mulliken charges with hydrogens summed into heavy atoms:
               1
     1  C    0.429233
     2  O   -0.592875
     3  O    0.008781
     4  O   -0.179376
     5  C    0.252040
    11  C   -0.009311
    15  C    0.256048
    19  F   -0.164538
 APT charges:
               1
     1  C    0.107508
     2  O   -0.615259
     3  O   -0.258479
     4  O   -0.361853
     5  C   -1.406809
     6  H    0.241436
     7  H    0.524503
     8  H    0.636951
     9  H    0.498309
    10  H    0.481741
    11  C   -1.416120
    12  H    0.634143
    13  H    0.496291
    14  H    0.438635
    15  C   -1.263830
    16  H    0.509000
    17  H    0.507084
    18  H    0.324285
    19  F   -0.077536
 Sum of APT charges =   0.00000
 APT charges with hydrogens summed into heavy atoms:
               1
     1  C    0.107508
     2  O   -0.615259
     3  O    0.239829
     4  O    0.119889
     5  C   -0.003919
    11  C    0.152949
    15  C    0.076539
    19  F   -0.077536
 Electronic spatial extent (au):  <R**2>=           1147.4057
 Charge=              0.0000 electrons
 Dipole moment (field-independent basis, Debye):
    X=             -1.3044    Y=              3.9783    Z=              1.3598  Tot=              4.4019
 Quadrupole moment (field-independent basis, Debye-Ang):
   XX=            -40.3993   YY=            -49.1104   ZZ=            -55.0156
   XY=              0.8590   XZ=              0.2955   YZ=             -0.6776
 Traceless Quadrupole moment (field-independent basis, Debye-Ang):
   XX=              7.7758   YY=             -0.9353   ZZ=             -6.8405
   XY=              0.8590   XZ=              0.2955   YZ=             -0.6776
 Octapole moment (field-independent basis, Debye-Ang**2):
  XXX=             -6.5813  YYY=              0.2076  ZZZ=             -7.4828  XYY=             -2.3587
  XXY=             -0.1339  XXZ=              8.5744  XZZ=             -1.2303  YZZ=              2.1858
  YYZ=             -2.6309  XYZ=              1.8794
 Hexadecapole moment (field-independent basis, Debye-Ang**3):
 XXXX=           -824.3050 YYYY=           -365.3216 ZZZZ=           -192.7612 XXXY=             -8.5838
 XXXZ=            -12.9594 YYYX=              1.3074 YYYZ=             -0.8161 ZZZX=             -4.0801
 ZZZY=              9.7630 XXYY=           -207.0614 XXZZ=           -181.8098 YYZZ=            -96.9737
 XXYZ=            -14.9298 YYXZ=             -1.3565 ZZXY=             -2.0041
 N-N= 4.523329082244D+02 E-N=-2.043739911054D+03  KE= 4.815322776629D+02
  Exact polarizability:   0.000   0.000   0.000   0.000   0.000   0.000
 Approx polarizability:  95.217   2.034  88.675  -0.858  -3.374  84.680
   1 Symmetry operations used in ECPInt.
 ECPInt:  NShTT=    1953 NPrTT=   10483 LenC2=    1933 LenP2D=    7330.
 LDataN:  DoStor=T MaxTD1= 6 Len=  172
 Calling FoFJK, ICntrl=    100147 FMM=F ISym2X=0 I1Cent= 0 IOpClX= 0 NMat=1 NMatS=1 NMatT=0.
 ***** Axes restored to original set *****
 -------------------------------------------------------------------
 Center     Atomic                   Forces (Hartrees/Bohr)
 Number     Number              X              Y              Z
 -------------------------------------------------------------------
      1        6          -0.042409560   -0.001765844    0.007424539
      2        8           0.014964652   -0.012748328    0.032443884
      3        8          -0.024787957    0.030992567   -0.006182809
      4        8           0.015440875   -0.004932636    0.014362137
      5        6           0.000548225   -0.009318115   -0.009946492
      6        1          -0.001083369    0.000912551    0.000702674
      7        1          -0.001900251    0.000410813    0.004787136
      8        1          -0.001232740    0.004875382    0.001553104
      9        1           0.018458107   -0.013943192    0.006288699
     10        1          -0.006892232    0.030995400   -0.022465847
     11        6           0.014501334    0.004224088    0.007331921
     12        1          -0.006528927    0.001014119   -0.002971366
     13        1          -0.003028207   -0.002647118   -0.000174520
     14        1          -0.002167803   -0.001919607   -0.003325307
     15        6           0.004339320   -0.007506933   -0.010542467
     16        1          -0.003570403    0.003482281    0.002534696
     17        1           0.001109897    0.002831035    0.003551793
     18        1          -0.000751088    0.002173884    0.001110275
     19        9           0.024990125   -0.027130344   -0.026482050
 -------------------------------------------------------------------
 Cartesian Forces:  Max     0.042409560 RMS     0.013498900
 FormGI is forming the generalized inverse of G from B-inverse, IUseBI=4.

 GradGradGradGradGradGradGradGradGradGradGradGradGradGradGradGradGradGrad
 Berny optimization.
 Internal  Forces:  Max     0.040351190 RMS     0.008199080
 Search for a saddle point.
 Step number   1 out of a maximum of   99
 All quantities printed in internal units (Hartrees-Bohrs-Radians)
 Swapping is turned off.
 Second derivative matrix not updated -- analytic derivatives used.
 ITU=  0
     Eigenvalues ---   -0.05157   0.00160   0.00204   0.00209   0.00287
     Eigenvalues ---    0.00355   0.00592   0.00874   0.01959   0.02738
     Eigenvalues ---    0.03418   0.04367   0.04508   0.05600   0.06449
     Eigenvalues ---    0.06519   0.06551   0.06606   0.06641   0.07014
     Eigenvalues ---    0.08090   0.09963   0.11581   0.12311   0.12938
     Eigenvalues ---    0.13695   0.13940   0.14618   0.15597   0.15970
     Eigenvalues ---    0.18037   0.18680   0.18734   0.18871   0.19081
     Eigenvalues ---    0.19666   0.20325   0.31145   0.32669   0.33065
     Eigenvalues ---    0.33495   0.33535   0.33800   0.33878   0.33956
     Eigenvalues ---    0.34082   0.34146   0.36147   0.36569   0.37365
     Eigenvalues ---    0.61557
 Eigenvectors required to have negative eigenvalues:
                          R9        R6        R5        R2        R10
   1                    0.60133  -0.54304   0.38007   0.29164  -0.21820
                          R1        D2        D17       A21       D16
   1                   -0.08109  -0.07002  -0.06943  -0.06656  -0.06598
 RFO step:  Lambda0=2.207042739D-03 Lambda=-2.88035982D-02.
 Linear search not attempted -- option 19 set.
 Maximum step size (   0.300) exceeded in Quadratic search.
    -- Step size scaled by   0.702
 Iteration  1 RMS(Cart)=  0.04854023 RMS(Int)=  0.00175227
 Iteration  2 RMS(Cart)=  0.00291548 RMS(Int)=  0.00073707
 Iteration  3 RMS(Cart)=  0.00000276 RMS(Int)=  0.00073707
 Iteration  4 RMS(Cart)=  0.00000000 RMS(Int)=  0.00073707
 Variable       Old X    -DE/DX   Delta X   Delta X   Delta X     New X
                                 (Linear)    (Quad)   (Total)
    R1        2.39516   0.00177   0.00000   0.00138   0.00183   2.39699
    R2        3.10569   0.02149   0.00000   0.02305   0.02232   3.12801
    R3        2.83594   0.00293   0.00000   0.01265   0.01265   2.84859
    R4        2.57046   0.04035   0.00000   0.06057   0.06057   2.63103
    R5        2.86329   0.00051   0.00000  -0.04748  -0.04618   2.81710
    R6        2.36230  -0.01873   0.00000   0.01364   0.01252   2.37482
    R7        2.73201  -0.00055   0.00000  -0.01812  -0.01812   2.71389
    R8        2.73770  -0.00053   0.00000  -0.00696  -0.00696   2.73074
    R9        2.47025  -0.00858   0.00000  -0.16932  -0.17012   2.30013
   R10        2.10247  -0.02122   0.00000  -0.05539  -0.05440   2.04807
   R11        2.06777   0.00050   0.00000   0.00141   0.00141   2.06918
   R12        2.06918  -0.00167   0.00000  -0.00357  -0.00357   2.06561
   R13        2.07263  -0.00226   0.00000  -0.00526  -0.00526   2.06737
   R14        2.08607  -0.00563   0.00000  -0.01176  -0.01176   2.07431
   R15        2.07572  -0.00280   0.00000  -0.00638  -0.00638   2.06933
   R16        2.07541  -0.00342   0.00000  -0.00694  -0.00694   2.06846
   R17        2.07037  -0.00204   0.00000  -0.00222  -0.00222   2.06814
   R18        2.06940  -0.00117   0.00000  -0.00076  -0.00076   2.06864
   R19        2.06831   0.00111   0.00000   0.00427   0.00427   2.07259
    A1        1.80390   0.00813   0.00000   0.05061   0.05067   1.85457
    A2        2.14658  -0.00893   0.00000  -0.03146  -0.03107   2.11551
    A3        1.95052   0.01216   0.00000   0.02459   0.02174   1.97226
    A4        1.90851  -0.00484   0.00000  -0.01343  -0.01360   1.89491
    A5        1.59834   0.01084   0.00000   0.03327   0.03294   1.63127
    A6        1.96470  -0.01060   0.00000  -0.03638  -0.03658   1.92812
    A7        2.01334  -0.02372   0.00000  -0.12503  -0.12457   1.88877
    A8        1.77834  -0.01293   0.00000  -0.04723  -0.04823   1.73012
    A9        2.01624   0.00782   0.00000   0.00896   0.01004   2.02628
   A10        1.86656   0.00749   0.00000   0.04174   0.04148   1.90804
   A11        1.92455   0.00526   0.00000   0.04474   0.04368   1.96822
   A12        1.88985  -0.00030   0.00000   0.01828   0.01852   1.90837
   A13        1.61251  -0.00052   0.00000  -0.03467  -0.03452   1.57799
   A14        1.93341  -0.00026   0.00000  -0.00038  -0.00041   1.93300
   A15        1.84583   0.00631   0.00000   0.02226   0.02214   1.86797
   A16        1.86602   0.00629   0.00000   0.01521   0.01509   1.88112
   A17        1.95369  -0.00371   0.00000  -0.01413  -0.01416   1.93953
   A18        1.93382  -0.00330   0.00000  -0.00986  -0.00988   1.92393
   A19        1.92724  -0.00446   0.00000  -0.01037  -0.01061   1.91663
   A20        2.70759   0.00707   0.00000   0.03342   0.03230   2.73990
   A21        2.34867   0.01641   0.00000   0.12043   0.12313   2.47181
   A22        1.91906  -0.00552   0.00000  -0.02569  -0.02586   1.89321
   A23        1.96957  -0.00232   0.00000  -0.01179  -0.01190   1.95766
   A24        1.94169  -0.00200   0.00000  -0.00955  -0.00963   1.93206
   A25        1.86965   0.00365   0.00000   0.01619   0.01598   1.88563
   A26        1.85804   0.00392   0.00000   0.01887   0.01874   1.87679
   A27        1.90113   0.00288   0.00000   0.01487   0.01484   1.91597
   A28        1.86650   0.00698   0.00000   0.02859   0.02834   1.89484
   A29        1.85376   0.00536   0.00000   0.01654   0.01635   1.87011
   A30        1.92832   0.00086   0.00000   0.00943   0.00930   1.93762
   A31        1.91987  -0.00442   0.00000  -0.01403  -0.01436   1.90551
   A32        1.94223  -0.00381   0.00000  -0.01650  -0.01670   1.92554
   A33        1.94935  -0.00408   0.00000  -0.02036  -0.02042   1.92893
    D1        0.76186   0.00112   0.00000  -0.02731  -0.02561   0.73625
    D2        2.92719  -0.00443   0.00000  -0.02109  -0.02023   2.90696
    D3       -0.93449  -0.01800   0.00000  -0.09340  -0.09346  -1.02795
    D4       -0.48799  -0.01271   0.00000  -0.05287  -0.05176  -0.53975
    D5        1.52798  -0.00825   0.00000  -0.02838  -0.02805   1.49993
    D6       -2.80179  -0.00416   0.00000  -0.04035  -0.03945  -2.84125
    D7       -0.78583   0.00030   0.00000  -0.01586  -0.01574  -0.80157
    D8        1.48089   0.00386   0.00000  -0.01188  -0.01039   1.47051
    D9       -2.78633   0.00832   0.00000   0.01262   0.01332  -2.77300
   D10        1.32755  -0.00174   0.00000  -0.03306  -0.03293   1.29462
   D11       -2.86945  -0.00244   0.00000  -0.03800  -0.03780  -2.90725
   D12       -0.72642  -0.00187   0.00000  -0.03435  -0.03423  -0.76066
   D13       -2.83816  -0.00195   0.00000   0.00134   0.00142  -2.83674
   D14       -0.75198  -0.00265   0.00000  -0.00359  -0.00345  -0.75542
   D15        1.39105  -0.00208   0.00000   0.00005   0.00012   1.39117
   D16       -1.08886   0.00376   0.00000   0.01790   0.01763  -1.07123
   D17        0.99732   0.00306   0.00000   0.01297   0.01277   1.01009
   D18        3.14035   0.00363   0.00000   0.01661   0.01633  -3.12650
   D19       -0.86565  -0.00170   0.00000   0.02781   0.02550  -0.84015
   D20        0.04823   0.00413   0.00000   0.02268   0.02292   0.07116
   D21       -2.07464  -0.00167   0.00000   0.01740   0.01819  -2.05645
   D22        1.30621   0.00322   0.00000   0.01096   0.01130   1.31751
   D23       -2.92713   0.00416   0.00000   0.01685   0.01737  -2.90977
   D24       -0.81008   0.00301   0.00000   0.00775   0.00809  -0.80199
   D25       -3.01186  -0.00369   0.00000  -0.01541  -0.01587  -3.02773
   D26       -0.96201  -0.00275   0.00000  -0.00952  -0.00981  -0.97182
   D27        1.15504  -0.00390   0.00000  -0.01862  -0.01908   1.13596
   D28       -0.90731  -0.00058   0.00000   0.00512   0.00493  -0.90238
   D29        1.21298  -0.00132   0.00000   0.00158   0.00130   1.21428
   D30       -3.01602  -0.00034   0.00000   0.00787   0.00778  -3.00824
   D31        0.83310   0.00079   0.00000  -0.00863  -0.00844   0.82466
   D32        2.95339   0.00006   0.00000  -0.01217  -0.01207   2.94132
   D33       -1.27561   0.00104   0.00000  -0.00588  -0.00560  -1.28121
   D34        1.99215   0.00264   0.00000   0.02979   0.02920   2.02135
   D35        0.06370   0.00222   0.00000   0.01606   0.01620   0.07990
   D36       -1.64399  -0.00158   0.00000  -0.03045  -0.03131  -1.67530
   D37        0.31545   0.00380   0.00000   0.00768   0.00550   0.32095
         Item               Value     Threshold  Converged?
 Maximum Force            0.040351     0.000450     NO 
 RMS     Force            0.008199     0.000300     NO 
 Maximum Displacement     0.175326     0.001800     NO 
 RMS     Displacement     0.048415     0.001200     NO 
 Predicted change in Energy=-1.345382D-02
 GradGradGradGradGradGradGradGradGradGradGradGradGradGradGradGradGradGrad

                          Input orientation:                          
 ---------------------------------------------------------------------
 Center     Atomic      Atomic             Coordinates (Angstroms)
 Number     Number       Type             X           Y           Z
 ---------------------------------------------------------------------
      1          6           0        1.011802   -0.448576    0.167818
      2          8           0        0.163969   -0.931229    0.978461
      3          8           0        0.214230    0.714237   -0.699174
      4          8           0       -1.811073   -0.584663   -0.403296
      5          6           0       -2.870417    0.004635    0.383262
      6          1           0       -2.461536    0.533742    1.250330
      7          1           0       -3.415233    0.687320   -0.273947
      8          1           0       -3.532403   -0.802641    0.710258
      9          1           0       -0.938325    0.213389   -0.691284
     10          1           0       -1.126011   -1.108994    0.252735
     11          6           0        2.317845    0.126198    0.653791
     12          1           0        2.975406   -0.702773    0.945883
     13          1           0        2.828035    0.706493   -0.122150
     14          1           0        2.160361    0.749931    1.539379
     15          6           0        0.167962    2.022360   -0.108297
     16          1           0        1.148931    2.492983   -0.226438
     17          1           0       -0.577604    2.600925   -0.663020
     18          1           0       -0.101768    1.965168    0.953244
     19          9           0        1.220042   -1.256548   -0.946753
 ---------------------------------------------------------------------
                    Distance matrix (angstroms):
                    1          2          3          4          5
     1  C    0.000000
     2  O    1.268431   0.000000
     3  O    1.655273   2.350435   0.000000
     4  O    2.883282   2.435190   2.424157   0.000000
     5  C    3.914516   3.230727   3.345183   1.445045   0.000000
     6  H    3.768403   3.018829   3.315550   2.099622   1.094964
     7  H    4.591738   4.122974   3.654387   2.051342   1.093072
     8  H    4.590142   3.708319   4.280733   2.061672   1.094005
     9  H    2.231423   2.305048   1.256700   1.217175   2.220632
    10  H    2.239109   1.490747   2.454903   1.083793   2.073682
    11  C    1.507409   2.421310   2.569338   4.320962   5.196732
    12  H    2.127379   2.820892   3.512580   4.974395   5.915286
    13  H    2.171858   3.315226   2.676750   4.823634   5.763714
    14  H    2.153320   2.669552   2.966449   4.618161   5.215438
    15  C    2.625610   3.147180   1.436127   3.286361   3.680297
    16  H    2.971028   3.761271   2.064238   4.273734   4.766420
    17  H    3.537790   3.964909   2.046436   3.425912   3.618345
    18  H    2.771840   2.908672   2.096466   3.356123   3.440056
    19  F    1.392282   2.219813   2.226420   3.151894   4.482341
                    6          7          8          9         10
     6  H    0.000000
     7  H    1.804590   0.000000
     8  H    1.795649   1.789517   0.000000
     9  H    2.488506   2.556141   3.118634   0.000000
    10  H    2.340386   2.957140   2.468583   1.635571   0.000000
    11  C    4.833677   5.834701   5.923793   3.524126   3.680582
    12  H    5.584084   6.652865   6.512839   4.340156   4.179365
    13  H    5.467459   6.245143   6.589807   3.840902   4.367037
    14  H    4.635970   5.863388   5.958648   3.855591   3.988896
    15  C    3.313021   3.827409   4.726876   2.199117   3.407357
    16  H    4.365196   4.908591   5.801157   3.125582   4.287097
    17  H    3.388710   3.444619   4.711793   2.414797   3.860421
    18  H    2.775922   3.757385   4.414642   2.544214   3.315156
    19  F    4.646109   5.071200   5.053459   2.623839   2.639036
                   11         12         13         14         15
    11  C    0.000000
    12  H    1.097678   0.000000
    13  H    1.095043   1.774385   0.000000
    14  H    1.094583   1.768300   1.791188   0.000000
    15  C    2.966176   4.052084   2.967775   2.881591   0.000000
    16  H    2.782594   3.863056   2.453939   2.679428   1.094414
    17  H    4.030122   5.111444   3.934436   3.971548   1.094680
    18  H    3.053852   4.072710   3.365188   2.633930   1.096765
    19  F    2.383043   2.640083   2.668171   3.330317   3.544167
                   16         17         18         19
    16  H    0.000000
    17  H    1.784146   0.000000
    18  H    1.798468   1.800809   0.000000
    19  F    3.818755   4.265224   3.966942   0.000000
 Stoichiometry    C4H11FO3
 Framework group  C1[X(C4H11FO3)]
 Deg. of freedom    51
 Full point group                 C1      NOp   1
 Largest Abelian subgroup         C1      NOp   1
 Largest concise Abelian subgroup C1      NOp   1
                         Standard orientation:                         
 ---------------------------------------------------------------------
 Center     Atomic      Atomic             Coordinates (Angstroms)
 Number     Number       Type             X           Y           Z
 ---------------------------------------------------------------------
      1          6           0        1.014495   -0.434697    0.148964
      2          8           0        0.175562   -0.937359    0.956702
      3          8           0        0.199107    0.727087   -0.702698
      4          8           0       -1.808118   -0.601436   -0.415274
      5          6           0       -2.872628   -0.034810    0.380909
      6          1           0       -2.468010    0.489984    1.252587
      7          1           0       -3.428358    0.647908   -0.267064
      8          1           0       -3.522989   -0.854260    0.700877
      9          1           0       -0.946773    0.211123   -0.696962
     10          1           0       -1.114229   -1.123971    0.232865
     11          6           0        2.314415    0.151729    0.637425
     12          1           0        2.983658   -0.671735    0.918348
     13          1           0        2.814568    0.747210   -0.133530
     14          1           0        2.151541    0.763508    1.530347
     15          6           0        0.137578    2.027873   -0.097197
     16          1           0        1.111941    2.512588   -0.213006
     17          1           0       -0.617203    2.602721   -0.643254
     18          1           0       -0.128086    1.955409    0.964436
     19          9           0        1.229819   -1.227489   -0.975121
 ---------------------------------------------------------------------
 Rotational constants (GHZ):      2.7025042      1.3607576      1.1395996
 Basis read from rwf:  (5D, 7F)
 Pseudo-potential data read from rwf file.
 There are   164 symmetry adapted cartesian basis functions of A   symmetry.
 There are   157 symmetry adapted basis functions of A   symmetry.
   157 basis functions,   293 primitive gaussians,   164 cartesian basis functions
    34 alpha electrons       34 beta electrons
       nuclear repulsion energy       451.9626974244 Hartrees.
 NAtoms=   19 NActive=   19 NUniq=   19 SFac= 1.00D+00 NAtFMM=   60 NAOKFM=F Big=F
 Integral buffers will be    131072 words long.
 Raffenetti 2 integral format.
 Two-electron integral symmetry is turned on.
 One-electron integrals computed using PRISM.
   1 Symmetry operations used in ECPInt.
 ECPInt:  NShTT=    1953 NPrTT=   10483 LenC2=    1932 LenP2D=    7332.
 LDataN:  DoStor=T MaxTD1= 4 Len=   56
 NBasis=   157 RedAO= T EigKep=  9.38D-05  NBF=   157
 NBsUse=   157 1.00D-06 EigRej= -1.00D+00 NBFU=   157
 Initial guess from the checkpoint file:  "/lustre/SCRATCH5/gau/Gau-9305.chk"
 B after Tr=     0.000000    0.000000    0.000000
         Rot=    0.999979   -0.003050   -0.001070   -0.005686 Ang=  -0.75 deg.
 ExpMin= 4.38D-02 ExpMax= 1.00D+04 ExpMxC= 8.25D+02 IAcc=2 IRadAn=         4 AccDes= 0.00D+00
 Harris functional with IExCor=  402 and IRadAn=       4 diagonalized for initial guess.
 HarFok:  IExCor=  402 AccDes= 0.00D+00 IRadAn=         4 IDoV= 1 UseB2=F ITyADJ=14
 ICtDFT=  3500011 ScaDFX=  1.000000  1.000000  1.000000  1.000000
 FoFCou: FMM=F IPFlag=           0 FMFlag=      100000 FMFlg1=           0
         NFxFlg=           0 DoJE=T BraDBF=F KetDBF=T FulRan=T
         wScrn=  0.000000 ICntrl=     500 IOpCl=  0 I1Cent=   200000004 NGrid=           0
         NMat0=    1 NMatS0=      1 NMatT0=    0 NMatD0=    1 NMtDS0=    0 NMtDT0=    0
 Petite list used in FoFCou.
 Requested convergence on RMS density matrix=1.00D-08 within 128 cycles.
 Requested convergence on MAX density matrix=1.00D-06.
 Requested convergence on             energy=1.00D-06.
 No special actions if energy rises.
 SCF Done:  E(RB3LYP) =  -484.544646122     A.U. after   12 cycles
            NFock= 12  Conv=0.35D-08     -V/T= 2.0062
   1 Symmetry operations used in ECPInt.
 ECPInt:  NShTT=    1953 NPrTT=   10483 LenC2=    1932 LenP2D=    7332.
 LDataN:  DoStor=T MaxTD1= 5 Len=  102
 Calling FoFJK, ICntrl=      2127 FMM=F ISym2X=0 I1Cent= 0 IOpClX= 0 NMat=1 NMatS=1 NMatT=0.
 ***** Axes restored to original set *****
 -------------------------------------------------------------------
 Center     Atomic                   Forces (Hartrees/Bohr)
 Number     Number              X              Y              Z
 -------------------------------------------------------------------
      1        6          -0.019212013   -0.000731377    0.004657318
      2        8           0.007441433   -0.007068552    0.012574965
      3        8          -0.009306040    0.014821351   -0.003614181
      4        8           0.003450767   -0.003345840    0.005909733
      5        6           0.000272754   -0.004252735   -0.004359018
      6        1          -0.000548982    0.000364917    0.000257424
      7        1          -0.000745739    0.000294135    0.001891925
      8        1          -0.000628162    0.001858707    0.000649105
      9        1           0.009013019   -0.004915412    0.001508749
     10        1          -0.002770503    0.014096980   -0.007614616
     11        6           0.006264034    0.001811689    0.002071074
     12        1          -0.002584536    0.000210961   -0.000916378
     13        1          -0.001010470   -0.001247019   -0.000216714
     14        1          -0.001028768   -0.000478326   -0.001310464
     15        6           0.002074843   -0.003856607   -0.003930516
     16        1          -0.001317082    0.001545349    0.001177553
     17        1           0.000341363    0.001246849    0.001502725
     18        1          -0.000413961    0.001097499    0.000463420
     19        9           0.010708042   -0.011452571   -0.010702104
 -------------------------------------------------------------------
 Cartesian Forces:  Max     0.019212013 RMS     0.005798347

 GradGradGradGradGradGradGradGradGradGradGradGradGradGradGradGradGradGrad
 Berny optimization.
 FormGI is forming the generalized inverse of G from B-inverse, IUseBI=4.
 Internal  Forces:  Max     0.016816417 RMS     0.003421578
 Search for a saddle point.
 Step number   2 out of a maximum of   99
 All quantities printed in internal units (Hartrees-Bohrs-Radians)
 Swapping is turned off.
 Update second derivatives using D2CorX and points    1    2
 ITU=  0  0
     Eigenvalues ---   -0.04774   0.00161   0.00203   0.00204   0.00262
     Eigenvalues ---    0.00354   0.00583   0.00919   0.01958   0.02744
     Eigenvalues ---    0.03426   0.04366   0.04506   0.05638   0.06446
     Eigenvalues ---    0.06529   0.06553   0.06599   0.06638   0.07053
     Eigenvalues ---    0.08325   0.09891   0.11838   0.12312   0.13165
     Eigenvalues ---    0.13694   0.13934   0.14604   0.15611   0.15794
     Eigenvalues ---    0.17974   0.18674   0.18756   0.18845   0.19076
     Eigenvalues ---    0.19647   0.20584   0.31121   0.32668   0.33063
     Eigenvalues ---    0.33492   0.33534   0.33799   0.33878   0.33955
     Eigenvalues ---    0.34082   0.34145   0.36141   0.36567   0.37127
     Eigenvalues ---    0.61526
 Eigenvectors required to have negative eigenvalues:
                          R9        R6        R5        R2        R10
   1                    0.56978  -0.55818   0.39512   0.29211  -0.23647
                          R1        D2        D17       D16       D18
   1                   -0.08058  -0.07824  -0.07056  -0.06650  -0.06296
 RFO step:  Lambda0=7.685271601D-04 Lambda=-6.82233991D-03.
 Linear search not attempted -- option 19 set.
 Iteration  1 RMS(Cart)=  0.08071371 RMS(Int)=  0.00572484
 Iteration  2 RMS(Cart)=  0.00793378 RMS(Int)=  0.00151701
 Iteration  3 RMS(Cart)=  0.00014317 RMS(Int)=  0.00151415
 Iteration  4 RMS(Cart)=  0.00000044 RMS(Int)=  0.00151415
 Variable       Old X    -DE/DX   Delta X   Delta X   Delta X     New X
                                 (Linear)    (Quad)   (Total)
    R1        2.39699   0.00115   0.00000   0.00678   0.00727   2.40426
    R2        3.12801   0.00992   0.00000   0.00924   0.00823   3.13625
    R3        2.84859   0.00141   0.00000   0.00905   0.00905   2.85764
    R4        2.63103   0.01682   0.00000   0.04247   0.04247   2.67350
    R5        2.81710   0.00107   0.00000  -0.13396  -0.13298   2.68412
    R6        2.37482  -0.00648   0.00000   0.01343   0.01263   2.38745
    R7        2.71389  -0.00031   0.00000  -0.00972  -0.00972   2.70416
    R8        2.73074  -0.00035   0.00000  -0.01180  -0.01180   2.71894
    R9        2.30013  -0.00079   0.00000  -0.06740  -0.06780   2.23233
   R10        2.04807  -0.00751   0.00000   0.00790   0.00893   2.05700
   R11        2.06918   0.00018   0.00000   0.00276   0.00276   2.07194
   R12        2.06561  -0.00058   0.00000  -0.00115  -0.00115   2.06446
   R13        2.06737  -0.00080   0.00000  -0.00218  -0.00218   2.06519
   R14        2.07431  -0.00195   0.00000  -0.00639  -0.00639   2.06792
   R15        2.06933  -0.00098   0.00000  -0.00385  -0.00385   2.06549
   R16        2.06846  -0.00119   0.00000  -0.00382  -0.00382   2.06464
   R17        2.06814  -0.00064   0.00000  -0.00110  -0.00110   2.06705
   R18        2.06864  -0.00034   0.00000  -0.00024  -0.00024   2.06840
   R19        2.07259   0.00050   0.00000   0.00256   0.00256   2.07514
    A1        1.85457   0.00382   0.00000   0.04339   0.04136   1.89593
    A2        2.11551  -0.00319   0.00000  -0.01879  -0.01712   2.09839
    A3        1.97226   0.00434   0.00000   0.00938   0.00704   1.97931
    A4        1.89491  -0.00261   0.00000  -0.01261  -0.01242   1.88250
    A5        1.63127   0.00465   0.00000   0.02755   0.02821   1.65948
    A6        1.92812  -0.00482   0.00000  -0.03262  -0.03319   1.89493
    A7        1.88877  -0.00963   0.00000  -0.08427  -0.08899   1.79979
    A8        1.73012  -0.00572   0.00000  -0.03680  -0.03788   1.69223
    A9        2.02628   0.00278   0.00000  -0.01364  -0.01468   2.01160
   A10        1.90804   0.00360   0.00000   0.02291   0.02223   1.93028
   A11        1.96822   0.00257   0.00000   0.04728   0.04533   2.01356
   A12        1.90837   0.00033   0.00000   0.03685   0.04025   1.94862
   A13        1.57799  -0.00081   0.00000  -0.04716  -0.04825   1.52974
   A14        1.93300  -0.00003   0.00000   0.00636   0.00632   1.93932
   A15        1.86797   0.00244   0.00000   0.01825   0.01815   1.88612
   A16        1.88112   0.00247   0.00000   0.01106   0.01096   1.89208
   A17        1.93953  -0.00157   0.00000  -0.01652  -0.01657   1.92296
   A18        1.92393  -0.00136   0.00000  -0.01066  -0.01070   1.91323
   A19        1.91663  -0.00174   0.00000  -0.00693  -0.00709   1.90954
   A20        2.73990   0.00236   0.00000  -0.00547  -0.00791   2.73199
   A21        2.47181   0.00808   0.00000   0.15564   0.15736   2.62917
   A22        1.89321  -0.00242   0.00000  -0.02009  -0.02020   1.87301
   A23        1.95766  -0.00095   0.00000  -0.01234  -0.01242   1.94524
   A24        1.93206  -0.00089   0.00000  -0.00338  -0.00340   1.92866
   A25        1.88563   0.00147   0.00000   0.01215   0.01198   1.89761
   A26        1.87679   0.00168   0.00000   0.01281   0.01277   1.88956
   A27        1.91597   0.00124   0.00000   0.01188   0.01187   1.92784
   A28        1.89484   0.00293   0.00000   0.01874   0.01863   1.91346
   A29        1.87011   0.00216   0.00000   0.01000   0.00992   1.88003
   A30        1.93762   0.00051   0.00000   0.00554   0.00549   1.94311
   A31        1.90551  -0.00187   0.00000  -0.00799  -0.00813   1.89739
   A32        1.92554  -0.00171   0.00000  -0.00987  -0.00996   1.91558
   A33        1.92893  -0.00187   0.00000  -0.01549  -0.01551   1.91343
    D1        0.73625   0.00059   0.00000  -0.02302  -0.02064   0.71561
    D2        2.90696  -0.00194   0.00000  -0.01457  -0.01284   2.89412
    D3       -1.02795  -0.00828   0.00000  -0.07954  -0.07760  -1.10555
    D4       -0.53975  -0.00531   0.00000  -0.06654  -0.06453  -0.60428
    D5        1.49993  -0.00342   0.00000  -0.06826  -0.06729   1.43264
    D6       -2.84125  -0.00220   0.00000  -0.06501  -0.06374  -2.90499
    D7       -0.80157  -0.00031   0.00000  -0.06672  -0.06650  -0.86807
    D8        1.47051   0.00171   0.00000  -0.03806  -0.03629   1.43421
    D9       -2.77300   0.00360   0.00000  -0.03978  -0.03905  -2.81205
   D10        1.29462  -0.00111   0.00000  -0.05477  -0.05408   1.24054
   D11       -2.90725  -0.00145   0.00000  -0.06037  -0.05959  -2.96684
   D12       -0.76066  -0.00118   0.00000  -0.05628  -0.05556  -0.81621
   D13       -2.83674  -0.00071   0.00000  -0.02025  -0.02108  -2.85782
   D14       -0.75542  -0.00105   0.00000  -0.02585  -0.02659  -0.78202
   D15        1.39117  -0.00078   0.00000  -0.02176  -0.02256   1.36861
   D16       -1.07123   0.00144   0.00000  -0.00790  -0.00788  -1.07910
   D17        1.01009   0.00110   0.00000  -0.01350  -0.01339   0.99670
   D18       -3.12650   0.00137   0.00000  -0.00941  -0.00936  -3.13586
   D19       -0.84015  -0.00054   0.00000   0.12270   0.12106  -0.71909
   D20        0.07116   0.00189   0.00000   0.05649   0.05201   0.12317
   D21       -2.05645   0.00020   0.00000   0.08152   0.07938  -1.97706
   D22        1.31751   0.00143   0.00000   0.01120   0.01243   1.32994
   D23       -2.90977   0.00194   0.00000   0.01706   0.01837  -2.89140
   D24       -0.80199   0.00132   0.00000   0.00770   0.00892  -0.79307
   D25       -3.02773  -0.00176   0.00000  -0.02732  -0.02860  -3.05632
   D26       -0.97182  -0.00125   0.00000  -0.02146  -0.02265  -0.99447
   D27        1.13596  -0.00187   0.00000  -0.03082  -0.03210   1.10386
   D28       -0.90238  -0.00011   0.00000   0.00205   0.00165  -0.90073
   D29        1.21428  -0.00051   0.00000  -0.00288  -0.00332   1.21096
   D30       -3.00824   0.00001   0.00000   0.00435   0.00400  -3.00424
   D31        0.82466   0.00019   0.00000  -0.01520  -0.01481   0.80984
   D32        2.94132  -0.00021   0.00000  -0.02013  -0.01978   2.92153
   D33       -1.28121   0.00031   0.00000  -0.01291  -0.01247  -1.29367
   D34        2.02135   0.00153   0.00000   0.06800   0.06415   2.08549
   D35        0.07990   0.00110   0.00000   0.04084   0.03511   0.11501
   D36       -1.67530  -0.00162   0.00000  -0.13699  -0.13882  -1.81412
   D37        0.32095   0.00087   0.00000  -0.09844  -0.10306   0.21789
         Item               Value     Threshold  Converged?
 Maximum Force            0.016816     0.000450     NO 
 RMS     Force            0.003422     0.000300     NO 
 Maximum Displacement     0.265252     0.001800     NO 
[...]
 .00719440,0.01739360,-0.01995169,-0.02180829,0.25798955,-0.00383543,-0
 .00025966,0.00199240,0.00842710,0.00015271,0.00044173,0.00864690,0.003
 89619,-0.00017302,-0.16283448,0.04356440,0.04143077,0.50062707,0.00163
 497,-0.00195778,0.00153509,-0.00174170,0.00106767,-0.00080431,-0.01109
 527,-0.00905177,-0.00139111,0.04894415,-0.10509007,-0.00901329,0.04815
 767,0.58159313,0.00240766,0.00206942,-0.00440746,-0.01142330,-0.001733
 26,-0.00489772,-0.00285669,-0.00234540,0.00106911,0.05572361,-0.014588
 61,-0.11071240,0.05470626,-0.03763582,0.57958640,-0.00008680,0.0001355
 6,0.00069956,0.00005381,-0.00047652,-0.00048817,-0.00064869,-0.0004256
 8,-0.00041221,-0.00364938,0.02571459,0.02964584,-0.07176005,-0.0475184
 7,-0.05661673,0.07634967,-0.00017530,0.00035907,-0.00083693,0.00045682
 ,0.00000730,0.00113201,0.00154666,0.00066394,0.00010454,0.00883867,-0.
 00705377,-0.01140540,-0.04374335,-0.15304871,-0.11546764,0.04154257,0.
 16184719,-0.00032784,-0.00092622,0.00068157,0.00174179,0.00033234,0.00
 029896,0.00098408,0.00145259,-0.00007653,0.00953693,-0.01035373,-0.009
 05384,-0.05194772,-0.11608045,-0.19410694,0.04930388,0.13455245,0.2082
 3759,0.00096600,0.00123227,-0.00204295,-0.00376071,-0.00079023,-0.0010
 7502,-0.00025984,-0.00107496,0.00057137,-0.02856471,0.02122065,-0.0182
 0535,-0.10996704,0.05665608,-0.09349808,-0.00235122,0.00321021,-0.0068
 8297,0.12910143,-0.00050944,-0.00020115,0.00071328,0.00184600,0.000261
 49,0.00072159,0.00051663,0.00033034,0.00002667,0.01395650,-0.00708828,
 0.00709654,0.05966922,-0.11355403,0.09324549,-0.01111237,0.01245369,-0
 .01509586,-0.07385084,0.11835342,-0.00000309,-0.00019990,0.00040961,0.
 00133705,0.00022625,0.00086555,-0.00039544,-0.00012216,-0.00011186,0.0
 1372441,-0.01233154,0.01644383,-0.10194443,0.09907637,-0.20292423,-0.0
 1010948,0.01224126,-0.01505312,0.10203210,-0.10197227,0.20925740,0.000
 74077,-0.00116546,0.00090071,-0.00030731,0.00057283,-0.00087888,-0.003
 55670,-0.00226144,-0.00058252,-0.03087086,-0.01772893,0.01886696,-0.12
 361659,-0.10954145,0.04399596,-0.00257143,-0.00752809,0.00203103,0.011
 78677,0.01252344,-0.00519504,0.14434067,0.00001580,0.00012871,-0.00022
 520,-0.00028149,-0.00008054,0.00002469,0.00155062,0.00132356,0.0000979
 4,0.01448675,0.01716098,-0.00961041,-0.11787517,-0.21881364,0.07505753
 ,-0.00935481,-0.01352858,0.00748425,-0.00799039,-0.01020582,0.00348524
 ,0.11952737,0.22618536,-0.00042025,0.00033806,-0.00005599,0.00043438,0
 .00005366,0.00014354,0.00194540,0.00146522,0.00008552,0.01617397,0.008
 90027,-0.00642029,0.04565089,0.06968820,-0.08346071,-0.01395033,-0.019
 22722,0.01072633,0.01306864,0.01890229,-0.00663174,-0.05967011,-0.0762
 0542,0.08577323,-0.01710144,0.04113470,-0.03659911,-0.02787274,-0.0143
 2420,0.01027070,0.00666674,0.01581574,0.01238541,-0.02960495,0.0168692
 2,-0.01843188,-0.02250067,0.00588001,0.00916220,0.00253988,-0.00237985
 ,-0.00217715,0.00086948,-0.00135954,0.00013173,0.00422744,-0.00031395,
 -0.00241839,0.02285945,0.01042823,0.03676453,-0.01849710,-0.01946804,-
 0.00912051,0.00499229,0.04402409,-0.02840877,0.00873004,-0.00238074,-0
 .06843752,0.00456353,-0.00031352,0.02397557,-0.00359885,0.00179955,-0.
 00139176,-0.00231701,0.00114336,-0.00038972,0.00053551,0.00671217,-0.0
 0253950,-0.00345303,-0.04708717,0.09314033,-0.01441021,-0.00842081,0.0
 1082179,0.00935189,0.00090207,-0.00218937,0.00317268,0.00090433,-0.032
 66433,-0.00270257,-0.00157516,-0.03131340,0.00818954,0.00137453,-0.005
 92072,0.00044256,0.00092377,-0.00011281,-0.00137458,0.00011254,0.00054
 093,-0.00060201,-0.00053798,0.00038592,0.00729896,-0.01527234,0.081162
 70,-0.03246881,-0.03386354,0.05410914,0.04278482,0.01499435,0.00153204
 ,-0.02564911,0.00781295,-0.01180466,-0.06974462,0.00232460,-0.01196700
 ,-0.02468077,0.01108520,-0.00119462,0.00266933,-0.00166277,-0.00255271
 ,0.00256615,-0.00190086,0.00047454,0.00064274,0.00006699,-0.00117728,0
 .04415301,0.01396211,0.00175991,0.05323201,-0.00778248,0.00491766,-0.0
 1057676,-0.00750251,-0.02450945,0.00292952,0.00546686,0.00111246,-0.00
 057551,0.01913063,-0.04389614,0.02014444,0.00985031,-0.00636212,0.0033
 6472,0.00000782,0.00005835,0.00110386,0.00017887,0.00017763,-0.0010019
 8,-0.00153903,0.00057828,-0.00002809,-0.00129995,-0.01740193,0.0249243
 7,-0.01442891,0.08718790,0.00397253,-0.01538407,0.04489484,0.03256760,
 0.01017389,-0.03351288,-0.01527524,0.00471891,-0.00791132,-0.04372638,
 0.03104677,-0.11226763,0.00317262,-0.00714532,0.02370285,0.00172780,-0
 .00228576,-0.00138777,0.00671361,-0.00339371,-0.00264480,0.00114624,0.
 00043633,-0.00034785,0.01713269,0.02566185,-0.01508531,-0.01003194,-0.
 04487995,0.11922058,-0.17902371,-0.04567334,-0.03075896,-0.02766186,-0
 .01498873,0.00553648,-0.01541029,0.00389324,-0.00869909,-0.00194147,0.
 00038292,-0.00103119,0.00050344,-0.00017637,-0.00031995,-0.00000259,0.
 00002636,0.00003706,-0.00010143,0.00007311,0.00000970,-0.00007048,-0.0
 0000763,0.00004481,0.00088239,0.00142946,-0.00031054,0.00344634,-0.001
 16982,0.00232656,0.50233602,-0.04152657,-0.08844426,-0.01317448,-0.023
 68549,0.00082232,0.00285309,0.02755712,-0.00175720,0.01361118,-0.00054
 824,0.00367684,-0.00382234,-0.00002377,0.00027274,-0.00023671,-0.00001
 223,-0.00005648,0.00009263,-0.00016152,0.00003601,0.00003653,0.0001388
 3,-0.00003496,-0.00003880,-0.00438433,-0.00597000,0.00263536,0.0045653
 2,-0.00052466,0.00350184,-0.01827489,0.58202480,-0.02836317,-0.0138737
 1,-0.08229354,0.03593572,0.01428904,0.00621073,-0.01535545,0.00281700,
 -0.00367412,0.00230358,-0.00332736,0.00419350,-0.00029770,0.00001027,0
 .00056680,-0.00000322,0.00002358,-0.00010958,0.00023259,-0.00009112,-0
 .00008089,-0.00005922,0.00001530,-0.00001593,0.00270245,0.00279499,-0.
 00138727,-0.00550162,0.00261313,-0.00548725,-0.03406656,-0.00375890,0.
 59891051,-0.01749140,0.02727310,-0.01026417,0.00234911,-0.00246943,0.0
 0073294,-0.00604366,-0.00035457,-0.00216194,-0.00009338,-0.00096704,0.
 00090925,0.00010741,-0.00011073,0.00002244,-0.00000209,0.00002325,-0.0
 0001284,0.00002829,-0.00000047,-0.00000683,-0.00005467,0.00000871,0.00
 002106,0.00147134,0.00169733,-0.00074392,-0.00094729,0.00008189,-0.000
 62357,-0.12656973,0.11231616,-0.04750268,0.13613750,-0.00614232,0.0075
 4105,-0.00348014,0.00023013,0.00013520,-0.00028039,-0.00272431,0.00112
 918,-0.00168415,0.00000691,-0.00011572,0.00012052,0.00003104,-0.000012
 31,-0.00002563,-0.00000720,-0.00000220,0.00001360,-0.00000491,0.000001
 14,-0.00000357,0.00000144,0.00000574,0.00000338,0.00000199,0.00024181,
 -0.00018006,-0.00001386,0.00007655,-0.00011242,0.11468375,-0.21193028,
 0.07000128,-0.12349797,0.22771685,-0.00530796,0.00800898,-0.00385206,0
 .00152386,-0.00014101,-0.00019041,-0.00324415,-0.00025446,-0.00035153,
 -0.00024601,-0.00050302,0.00034813,0.00004539,-0.00006355,0.00000163,-
 0.00000418,0.00000816,-0.00000234,0.00000862,0.00000286,-0.00000460,-0
 .00002713,0.00000927,0.00001561,0.00077899,0.00091347,-0.00024276,-0.0
 0035273,0.00003682,-0.00024060,-0.04750202,0.06891381,-0.07569618,0.05
 370660,-0.07542562,0.07828123,-0.01067860,-0.01099463,0.02913659,-0.00
 924777,-0.00370611,-0.00165009,0.00229341,0.00104646,-0.00077485,-0.00
 079762,0.00143751,-0.00161175,0.00020063,0.00001582,-0.00024966,-0.000
 00752,-0.00001250,0.00005563,-0.00010969,0.00004385,0.00002853,0.00002
 612,-0.00000935,0.00001116,-0.00130513,-0.00121925,0.00043038,0.002549
 19,-0.00098747,0.00204325,-0.10545946,-0.05131965,0.09507607,0.0099966
 3,0.00649656,-0.01504861,0.11316887,-0.00148661,-0.00548852,0.01104774
 ,-0.00398349,0.00035138,-0.00054458,0.00080943,-0.00001518,-0.00065793
 ,-0.00073803,0.00036350,-0.00072060,0.00015285,-0.00004808,-0.00014294
 ,0.00000718,0.00000712,0.00001949,-0.00005011,0.00002979,0.00002253,-0
 .00001113,-0.00000832,0.00001130,-0.00017389,-0.00019228,0.00014280,0.
 00119719,-0.00003273,0.00097713,-0.05224232,-0.09492898,0.08536877,-0.
 01312215,-0.00944037,0.01911446,0.05699224,0.09818978,-0.00376602,-0.0
 0414168,0.00570905,-0.00275889,-0.00084688,0.00148935,0.00018385,-0.00
 057791,0.00066487,-0.00002195,0.00003064,-0.00014276,0.00001711,-0.000
 01798,0.00003203,-0.00000578,0.00000001,-0.00001017,0.00001163,0.00000
 332,-0.00000399,-0.00000171,-0.00000345,-0.00000051,0.00006761,0.00000
 730,0.00006592,-0.00005964,-0.00004640,0.00026401,0.10049243,0.0880716
 7,-0.22104916,0.00428134,0.00270391,-0.00743176,-0.10740895,-0.0963198
 1,0.23557196,0.00646787,-0.02081019,-0.02224470,0.00081532,0.00221394,
 0.00084906,0.00075109,0.00093940,0.00133689,0.00020574,0.00007061,0.00
 005492,0.00000883,-0.00001422,-0.00000412,-0.00002197,0.00000604,0.000
 01912,0.00000418,-0.00000203,-0.00000302,0.00001004,0.00000839,0.00000
 107,-0.00023925,-0.00034187,0.00004723,-0.00015284,0.00016559,-0.00015
 712,-0.05228526,0.01495793,0.01969978,-0.00116780,0.01089618,0.0145041
 3,-0.00144339,0.01153437,0.00946435,0.05333069,0.00542386,-0.00834832,
 -0.00753530,-0.00059240,0.00098570,0.00168669,-0.00057251,-0.00005799,
 -0.00003727,-0.00011880,-0.00014296,0.00014114,0.00009260,-0.00006031,
 -0.00002851,-0.00001037,0.00002165,0.00000750,-0.00000039,0.00000708,0
 .00000199,-0.00001927,-0.00000156,0.00000399,0.00028800,0.00016871,-0.
 00017186,-0.00013964,0.00011081,-0.00006323,0.01160233,-0.16818372,-0.
 13438785,0.00092775,-0.01589123,-0.01926815,0.00012626,0.01126863,0.01
 097053,-0.01608698,0.18089392,0.00384448,-0.00519707,-0.00816188,0.000
 28229,0.00131694,0.00097598,-0.00049166,0.00121020,0.00021314,0.000023
 06,0.00011649,-0.00007308,0.00003065,-0.00002000,-0.00003217,-0.000016
 77,0.00000273,0.00003411,-0.00001171,-0.00000265,-0.00000605,0.0000077
 8,0.00001258,0.00000482,-0.00022877,-0.00021276,0.00004158,-0.00000920
 ,-0.00004263,0.00000029,0.01571634,-0.13506001,-0.19941162,-0.00000644
 ,0.00781021,0.00947594,0.00066559,-0.01707643,-0.01618109,-0.01740178,
 0.14868769,0.21281827,0.00238221,0.00366359,0.01296672,0.00139976,0.00
 019728,-0.00112267,-0.08497756,0.00574393,-0.01210860,-0.00662616,-0.0
 0184340,0.00435982,-0.00023434,-0.00178355,0.00046462,-0.00015845,-0.0
 0005399,0.00004396,-0.00012742,-0.00001569,-0.00009744,-0.00062023,0.0
 0018841,0.00018511,0.01392112,-0.00954395,-0.01082202,-0.00157937,0.00
 019904,-0.00133747,-0.00137316,0.00110644,-0.00149368,0.00007057,-0.00
 025238,0.00014354,-0.00064054,0.00058355,0.00026576,-0.00040033,0.0007
 0622,-0.00045903,0.60459941,0.01207387,-0.03425479,0.00537352,0.001904
 75,0.00631459,-0.00680403,0.00437677,-0.17438660,-0.05225629,0.0106529
 1,0.00779184,-0.00299722,-0.00396204,0.00233515,0.00212421,0.00015350,
 -0.00050589,-0.00088061,0.00052349,-0.00013115,0.00015242,0.00054123,-
 0.00049098,-0.00050316,-0.01571481,-0.01868610,-0.00296741,-0.00085210
 ,-0.00166875,0.00017086,-0.00025474,0.00243009,0.00081050,-0.00175706,
 -0.00083905,-0.00087263,-0.00000698,0.00047498,0.00046701,0.00059353,-
 0.00048273,-0.00123026,0.00901196,0.48166653,0.01070109,-0.00940587,0.
 02144850,0.00343795,0.00525465,-0.00970874,-0.01073075,-0.06135251,-0.
 11367525,0.00654383,0.00284084,-0.00127864,-0.00153502,0.00173097,0.00
 175244,0.00046654,-0.00033187,-0.00055392,0.00002421,-0.00025562,-0.00
 018053,0.00022078,-0.00026850,-0.00045468,-0.00756077,-0.00558465,0.00
 010714,-0.00208315,0.00020194,-0.00049070,-0.00135899,0.00220932,-0.00
 094734,-0.00035910,-0.00004077,-0.00030042,0.00029895,-0.00024438,-0.0
 0011902,-0.00128923,0.00042741,-0.00018580,0.01465224,-0.06511171,0.55
 668320,-0.00086066,0.00134014,-0.00116070,0.00021299,-0.00029647,0.000
 28301,0.00892097,-0.00242085,-0.00268942,-0.00010199,-0.00011103,0.000
 10422,0.00000245,-0.00000814,0.00014469,0.00001450,-0.00000826,-0.0001
 5120,0.00005523,0.00003274,0.00002946,-0.00002457,-0.00006849,-0.00002
 977,0.00125195,0.00137852,0.00028614,-0.00015366,0.00021746,-0.0001164
 0,-0.00014797,0.00053218,-0.00072060,0.00023136,0.00029078,0.00029456,
 -0.00017251,0.00004774,-0.00005823,-0.00038665,0.00070317,0.00024925,-
 0.27034364,-0.10367949,0.02196074,0.28558078,-0.00427724,0.00192798,-0
 .00196404,0.00100975,-0.00055742,0.00112417,-0.02939106,-0.03008403,-0
 .00687555,-0.00362232,-0.00189248,0.00189310,0.00046040,-0.00088436,-0
 .00016160,-0.00004216,0.00005778,0.00016410,-0.00010610,0.00002342,-0.
 00004797,-0.00030161,0.00015021,0.00012607,0.00738492,0.00142672,-0.00
 199848,-0.00048424,0.00050772,-0.00060270,0.00003851,-0.00036538,0.000
 23751,0.00020660,0.00035077,-0.00002252,0.00056916,-0.00028560,-0.0003
 6455,0.00039378,-0.00031373,0.00067317,-0.09677207,-0.09385377,0.01327
 369,0.11313319,0.11360168,0.00054721,0.00137779,-0.00096686,-0.0005912
 9,0.00012289,0.00071791,-0.01805782,-0.01555537,0.00044603,-0.00206490
 ,-0.00083767,0.00079801,0.00020792,-0.00058688,-0.00038583,-0.00013129
 ,0.00010068,0.00020032,0.00001598,0.00004710,0.00004289,-0.00010006,0.
 00011584,0.00017546,0.00367014,0.00041334,-0.00122094,-0.00003774,-0.0
 0004708,-0.00028100,-0.00014824,-0.00012213,0.00056136,0.00007558,-0.0
 0012841,-0.00017684,0.00011550,0.00001040,0.00005361,-0.00028370,0.000
 48822,-0.00054620,0.02487284,0.01390321,-0.05499861,-0.02160347,-0.005
 35958,0.05364400,0.00014941,-0.00191928,0.00083279,0.00033118,0.000211
 32,-0.00031701,0.00348959,0.00288383,0.00252114,0.00061846,0.00061815,
 -0.00036090,-0.00020973,0.00008213,0.00013943,0.00000381,-0.00007893,0
 .00001380,0.00001416,-0.00004041,-0.00003471,0.00003173,0.00000630,-0.
 00001306,-0.00058715,-0.00090439,0.00046432,0.00002029,-0.00000528,0.0
 0003762,0.00000060,0.00003660,-0.00029955,0.00014351,0.00021108,0.0001
 3353,0.00011346,-0.00017157,-0.00017138,-0.00015123,0.00010096,0.00038
 364,-0.18009601,0.09764183,-0.09015492,-0.01873926,0.01578148,-0.01539
 610,0.18723822,-0.00360935,0.00547026,-0.00826151,-0.00165232,-0.00126
 706,0.00247890,0.02375694,-0.03486725,0.01135905,-0.00175442,-0.000037
 54,-0.00050104,0.00042434,-0.00032481,-0.00022042,-0.00003721,-0.00000
 675,0.00027486,-0.00024294,-0.00001745,-0.00008721,-0.00007641,0.00014
 367,0.00004832,0.00218875,0.00014817,0.00048346,0.00169352,-0.00008648
 ,0.00086708,-0.00007921,-0.00015320,0.00019594,0.00019080,0.00021255,0
 .00018624,0.00006938,-0.00010063,-0.00014314,0.00014676,0.00006135,0.0
 0035589,0.09288247,-0.11953422,0.06909165,-0.00891482,0.01007467,-0.00
 696420,-0.10857881,0.14371735,-0.00082679,0.00182799,-0.00418323,-0.00
 085125,-0.00051845,0.00180528,0.01509402,-0.01688250,0.01031303,0.0004
 7126,0.00020417,-0.00031376,-0.00018602,0.00017061,0.00030581,-0.00005
 260,0.00001637,-0.00026157,0.00006887,0.00006055,0.00007396,0.00002606
 ,-0.00011097,-0.00007408,-0.00047547,-0.00008085,0.00074875,0.00009880
 ,-0.00000293,0.00001738,-0.00006159,-0.00032980,-0.00017006,0.00004528
 ,0.00012530,0.00014994,-0.00000980,0.00007154,0.00005225,0.00024816,0.
 00018359,0.00029771,-0.09286281,0.07442096,-0.11680585,0.00315073,-0.0
 0201685,0.00241457,0.09781700,-0.07168222,0.11843441,0.00088765,-0.000
 10684,0.00189810,-0.00068955,-0.00021341,-0.00055908,0.00291100,0.0042
 8990,0.00116990,0.00001138,0.00058009,-0.00013808,-0.00015338,-0.00019
 604,-0.00036030,-0.00022277,-0.00012553,0.00013374,-0.00000283,0.00003
 630,0.00004394,0.00003182,0.00005633,0.00005664,-0.00056985,-0.0003377
 8,-0.00074204,0.00069109,-0.00034975,0.00043308,-0.00023831,0.00014841
 ,0.00063756,0.00004956,-0.00010316,-0.00023977,0.00017092,-0.00007512,
 -0.00014832,-0.00065083,0.00002099,-0.00029437,-0.07249387,-0.01061566
 ,0.06030233,-0.00561521,-0.00470409,0.02897532,0.00756754,0.00230055,-
 0.02243286,0.06856115,0.00064670,0.00276568,-0.00486895,-0.00121006,0.
 00071876,0.00175074,0.00874884,-0.00942147,-0.03901389,-0.00055226,-0.
 00072332,0.00061936,-0.00002630,-0.00018708,0.00004225,-0.00020431,0.0
 0004942,-0.00001412,0.00001857,0.00002886,0.00003237,-0.00004597,0.000
 01706,0.00002679,0.00245754,0.00154405,-0.00085990,-0.00058067,-0.0001
 1253,-0.00059794,0.00003542,-0.00046309,0.00024298,0.00009884,0.000047
 90,0.00003914,-0.00008345,-0.00004397,-0.00004583,0.00018557,0.0000667
 2,0.00002492,-0.01092788,-0.05691270,0.04134214,-0.00179343,0.00008339
 ,0.01311073,-0.00607687,-0.00073035,0.01596354,0.00938034,0.06329196,-
 0.00204976,0.00481801,-0.00414908,-0.00151866,-0.00099574,0.00259294,0
 .00310827,-0.01515159,-0.01516474,-0.00204848,-0.00078253,0.00060051,0
 .00056846,-0.00061544,-0.00079066,-0.00019060,0.00013474,0.00048087,-0
 .00003870,0.00004536,0.00001926,-0.00004597,0.00019426,0.00023644,0.00
 331169,0.00158129,-0.00098906,0.00060719,-0.00019830,0.00011886,0.0001
 4746,-0.00045214,-0.00000257,0.00011115,0.00009035,0.00015900,-0.00011
 036,0.00008557,0.00004320,0.00012491,0.00015777,0.00028736,0.06146399,
 0.03578042,-0.28269369,0.00008175,0.00177341,-0.00044214,0.00435403,0.
 00311914,-0.01259266,-0.06835880,-0.02898922,0.31179441,-0.06789673,-0
 .01248076,0.00032421,0.00253479,0.01675150,0.03774705,-0.00007003,0.02
 710502,0.00869386,-0.00281334,0.00076197,0.00001035,0.00126864,-0.0002
 7008,-0.00024341,-0.00014804,0.00011799,0.00015143,-0.00014681,0.00009
 384,-0.00002198,-0.00014527,-0.00001438,0.00008606,0.00093838,-0.00097
 811,0.00026429,0.00262148,-0.00023329,-0.00000548,0.00311694,-0.021422
 30,-0.02292431,0.00178474,-0.00010375,0.00083334,0.00134302,0.00072986
 ,-0.00038319,-0.00469421,-0.00245177,-0.00228332,-0.00270197,-0.000630
 97,-0.00353671,0.00027589,0.00072312,-0.00006589,0.00006141,0.00129199
 ,0.00073900,-0.00024548,-0.00007063,0.00048244,0.06491656,-0.02016713,
 -0.09388005,-0.03683461,0.01417865,0.02081515,-0.01083572,0.01512341,-
 0.04776681,-0.01813628,0.00506643,0.00207489,0.00103189,-0.00024793,0.
 00015083,0.00028177,-0.00015944,0.00006864,0.00017032,0.00008888,-0.00
 011527,-0.00004388,0.00020148,0.00001032,-0.00011185,-0.00498317,-0.00
 487178,-0.00041923,-0.00377564,-0.00013256,-0.00308955,0.00070196,-0.0
 1645059,-0.02398135,-0.00054499,0.00077243,-0.00068226,0.00154214,-0.0
 0010051,0.00025325,-0.00485679,-0.00010204,-0.00136900,0.00691000,0.00
 073356,0.00622326,-0.00037492,0.00003243,-0.00008889,0.00020186,-0.002
 70228,-0.00142005,0.00001446,-0.00001929,-0.00059536,-0.00891927,0.141
 48292,-0.01770414,-0.03792794,-0.10034136,0.04435254,-0.01772264,-0.06
 349370,0.00244173,-0.00722794,0.00895252,0.00567135,-0.00193375,0.0055
 6937,-0.00036982,-0.00021191,0.00062177,-0.00030481,0.00031450,0.00006
 884,0.00038175,-0.00016638,-0.00001161,-0.00003288,0.00002870,-0.00008
 509,0.00097897,-0.00117702,-0.00274877,-0.01180934,0.00208083,-0.00856
 169,-0.00005369,-0.02493012,-0.02011740,0.00177586,0.00049262,0.000058
 03,-0.00099758,-0.00116504,0.00099221,-0.00496596,-0.00126434,0.000448
 68,0.00088511,0.00042019,0.00240191,-0.00005474,0.00014862,-0.00003573
 ,0.00005035,-0.00060079,-0.00021188,-0.00037697,0.00119488,0.00049175,
 -0.01986773,0.08964754,0.17600216\\-0.00000498,0.00001546,-0.00000909,
 -0.00000181,-0.00000805,0.00000640,-0.00000574,0.00002365,-0.00000203,
 -0.00001821,0.00000938,0.00002482,-0.00000589,0.00000236,-0.00000141,0
 .00000093,-0.00000242,0.00000370,-0.00000171,0.00000322,0.00000390,-0.
 00000016,0.00000050,0.00000042,0.00001799,0.00000005,-0.00002303,0.000
 00255,-0.00001639,-0.00000625,-0.00000113,-0.00000289,-0.00000229,0.00
 000126,-0.00000362,-0.00000587,-0.00000003,0.00000025,-0.00000271,0.00
 000247,-0.00000557,-0.00000214,0.00000571,-0.00000180,0.00000857,0.000
 00044,0.00000218,0.00000294,-0.00000020,0.00000096,0.00000651,0.000001
 94,-0.00000318,0.00000545,0.00000656,-0.00001410,-0.00000787\\\@


 Just remember, when you're over the hill, you begin to pick up speed.
 -- Charles Schulz
 Job cpu time:       0 days  0 hours 11 minutes 54.0 seconds.
 File lengths (MBytes):  RWF=     61 Int=      0 D2E=      0 Chk=      3 Scr=      1
 Normal termination of Gaussian 09 at Thu Feb 19 12:45:21 2015.
