 Entering Gaussian System, Link 0=g09
 Initial command:
 /opt/gridware/applications/gaussian/g09/l1.exe "/lustre/SCRATCH5/gau/mlawal/854270.sched01/Gau-24841.inp" -scrdir="/lustre/SCRATCH5/gau/mlawal/854270.sched01/"
 Entering Link 1 = /opt/gridware/applications/gaussian/g09/l1.exe PID=     24842.
  
 Copyright (c) 1988,1990,1992,1993,1995,1998,2003,2009,2013,
            Gaussian, Inc.  All Rights Reserved.
  
 This is part of the Gaussian(R) 09 program.  It is based on
 the Gaussian(R) 03 system (copyright 2003, Gaussian, Inc.),
 the Gaussian(R) 98 system (copyright 1998, Gaussian, Inc.),
 the Gaussian(R) 94 system (copyright 1995, Gaussian, Inc.),
 the Gaussian 92(TM) system (copyright 1992, Gaussian, Inc.),
 the Gaussian 90(TM) system (copyright 1990, Gaussian, Inc.),
 the Gaussian 88(TM) system (copyright 1988, Gaussian, Inc.),
 the Gaussian 86(TM) system (copyright 1986, Carnegie Mellon
 University), and the Gaussian 82(TM) system (copyright 1983,
 Carnegie Mellon University). Gaussian is a federally registered
 trademark of Gaussian, Inc.
  
 This software contains proprietary and confidential information,
 including trade secrets, belonging to Gaussian, Inc.
  
 This software is provided under written license and may be
 used, copied, transmitted, or stored only in accord with that
 written license.
  
 The following legend is applicable only to US Government
 contracts under FAR:
  
                    RESTRICTED RIGHTS LEGEND
  
 Use, reproduction and disclosure by the US Government is
 subject to restrictions as set forth in subparagraphs (a)
 and (c) of the Commercial Computer Software - Restricted
 Rights clause in FAR 52.227-19.
  
 Gaussian, Inc.
 340 Quinnipiac St., Bldg. 40, Wallingford CT 06492
  
  
 ---------------------------------------------------------------
 Warning -- This program may not be used in any manner that
 competes with the business of Gaussian, Inc. or will provide
 assistance to any competitor of Gaussian, Inc.  The licensee
 of this program is prohibited from giving any competitor of
 Gaussian, Inc. access to this program.  By using this program,
 the user acknowledges that Gaussian, Inc. is engaged in the
 business of creating and licensing software in the field of
 computational chemistry and represents and warrants to the
 licensee that it is not a competitor of Gaussian, Inc. and that
 it will not use this program in any manner prohibited above.
 ---------------------------------------------------------------
  

 Cite this work as:
 Gaussian 09, Revision D.01,
 M. J. Frisch, G. W. Trucks, H. B. Schlegel, G. E. Scuseria, 
 M. A. Robb, J. R. Cheeseman, G. Scalmani, V. Barone, B. Mennucci, 
 G. A. Petersson, H. Nakatsuji, M. Caricato, X. Li, H. P. Hratchian, 
 A. F. Izmaylov, J. Bloino, G. Zheng, J. L. Sonnenberg, M. Hada, 
 M. Ehara, K. Toyota, R. Fukuda, J. Hasegawa, M. Ishida, T. Nakajima, 
 Y. Honda, O. Kitao, H. Nakai, T. Vreven, J. A. Montgomery, Jr., 
 J. E. Peralta, F. Ogliaro, M. Bearpark, J. J. Heyd, E. Brothers, 
 K. N. Kudin, V. N. Staroverov, T. Keith, R. Kobayashi, J. Normand, 
 K. Raghavachari, A. Rendell, J. C. Burant, S. S. Iyengar, J. Tomasi, 
 M. Cossi, N. Rega, J. M. Millam, M. Klene, J. E. Knox, J. B. Cross, 
 V. Bakken, C. Adamo, J. Jaramillo, R. Gomperts, R. E. Stratmann, 
 O. Yazyev, A. J. Austin, R. Cammi, C. Pomelli, J. W. Ochterski, 
 R. L. Martin, K. Morokuma, V. G. Zakrzewski, G. A. Voth, 
 P. Salvador, J. J. Dannenberg, S. Dapprich, A. D. Daniels, 
 O. Farkas, J. B. Foresman, J. V. Ortiz, J. Cioslowski, 
 and D. J. Fox, Gaussian, Inc., Wallingford CT, 2013.
 
 ******************************************
 Gaussian 09:  EM64L-G09RevD.01 24-Apr-2013
                27-Mar-2015 
 ******************************************
 %nprocshared=8
 Will use up to    8 processors via shared memory.
 %nprocl=1
 Will use up to    1 processors via Linda.
 ----------------------------------------------------------------------
 # opt=(calcfc,ts,noeigentest) freq=noraman b3lyp/gen geom=connectivity
  gfinput pseudo=read
 ----------------------------------------------------------------------
 1/5=1,10=4,11=1,14=-1,18=20,26=3,38=1,57=2/1,3;
 2/9=110,12=2,17=6,18=5,40=1/2;
 3/5=7,11=2,16=1,17=8,24=10,25=1,30=1,71=2,74=-5,140=1/1,2,3;
 4//1;
 5/5=2,38=5/2;
 8/6=4,10=90,11=11/1;
 11/6=1,8=1,9=11,15=111,16=1/1,2,10;
 10/6=1,13=1/2;
 6/7=2,8=2,9=2,10=2,28=1/1;
 7/10=1,18=20,25=1/1,2,3,16;
 1/5=1,10=4,11=1,14=-1,18=20,26=3/3(2);
 2/9=110/2;
 99//99;
 2/9=110/2;
 3/5=7,6=1,11=2,16=1,17=8,25=1,30=1,71=1,74=-5,82=7/1,2,3;
 4/5=5,16=3,69=1/1;
 5/5=2,38=5/2;
 7//1,2,3,16;
 1/5=1,11=1,14=-1,18=20,26=3/3(-5);
 2/9=110/2;
 6/7=2,8=2,9=2,10=2,19=2,28=1/1;
 99/9=1/99;
 ----------------------------------------------------
 gen calculation ts624cl-C H O=aug-ccpvtz/Cl=def2tzvp
 ----------------------------------------------------
 Symbolic Z-matrix:
 Charge =  0 Multiplicity = 1
 C                     0.88456   0.11663   0.41891 
 C                    -0.39856   2.08642  -0.60959 
 H                    -1.16612   2.27151  -1.36713 
 H                    -0.77958   2.23626   0.40602 
 H                     0.47888   2.71442  -0.79914 
 C                     2.12077   0.93679   0.59068 
 H                     2.88275   0.36133   1.14581 
 H                     2.57087   1.21375  -0.37438 
 H                     1.92442   1.84967   1.16978 
 O                     0.01831   0.71086  -0.79507 
 O                    -1.76363  -0.8697   -0.10176 
 C                    -3.04071  -0.26804   0.23386 
 H                    -3.56304  -0.12891  -0.71933 
 H                    -3.57601  -0.99358   0.85919 
 H                    -2.90073   0.67793   0.76431 
 H                    -1.12805  -0.88883   0.81811 
 H                    -1.03451  -0.03214  -0.7197 
 Cl                    1.32383  -1.44391  -0.5023 
 O                     0.04404  -0.08688   1.34089 
 
 Add virtual bond connecting atoms H16        and O11        Dist= 2.11D+00.
 Add virtual bond connecting atoms H17        and O11        Dist= 2.40D+00.
 Add virtual bond connecting atoms H17        and O10        Dist= 2.44D+00.
 Add virtual bond connecting atoms C1         and O10        Dist= 3.03D+00.
 Add virtual bond connecting atoms O19        and H16        Dist= 2.86D+00.

 GradGradGradGradGradGradGradGradGradGradGradGradGradGradGradGradGradGrad
 Berny optimization.
 Initialization pass.
                           ----------------------------
                           !    Initial Parameters    !
                           ! (Angstroms and Degrees)  !
 --------------------------                            --------------------------
 ! Name  Definition              Value          Derivative Info.                !
 --------------------------------------------------------------------------------
 ! R1    R(1,6)                  1.4934         calculate D2E/DX2 analytically  !
 ! R2    R(1,10)                 1.6054         calculate D2E/DX2 analytically  !
 ! R3    R(1,18)                 1.8646         calculate D2E/DX2 analytically  !
 ! R4    R(1,19)                 1.2641         calculate D2E/DX2 analytically  !
 ! R5    R(2,3)                  1.0942         calculate D2E/DX2 analytically  !
 ! R6    R(2,4)                  1.095          calculate D2E/DX2 analytically  !
 ! R7    R(2,5)                  1.0955         calculate D2E/DX2 analytically  !
 ! R8    R(2,10)                 1.4493         calculate D2E/DX2 analytically  !
 ! R9    R(6,7)                  1.1045         calculate D2E/DX2 analytically  !
 ! R10   R(6,8)                  1.1003         calculate D2E/DX2 analytically  !
 ! R11   R(6,9)                  1.0988         calculate D2E/DX2 analytically  !
 ! R12   R(10,17)                1.2908         calculate D2E/DX2 analytically  !
 ! R13   R(11,12)                1.4511         calculate D2E/DX2 analytically  !
 ! R14   R(11,16)                1.1182         calculate D2E/DX2 analytically  !
 ! R15   R(11,17)                1.2708         calculate D2E/DX2 analytically  !
 ! R16   R(12,13)                1.0958         calculate D2E/DX2 analytically  !
 ! R17   R(12,14)                1.0973         calculate D2E/DX2 analytically  !
 ! R18   R(12,15)                1.0935         calculate D2E/DX2 analytically  !
 ! R19   R(16,19)                1.5133         calculate D2E/DX2 analytically  !
 ! A1    A(6,1,10)             109.29           calculate D2E/DX2 analytically  !
 ! A2    A(6,1,18)             108.7494         calculate D2E/DX2 analytically  !
 ! A3    A(6,1,19)             123.7047         calculate D2E/DX2 analytically  !
 ! A4    A(10,1,18)             93.6298         calculate D2E/DX2 analytically  !
 ! A5    A(10,1,19)            104.6163         calculate D2E/DX2 analytically  !
 ! A6    A(18,1,19)            112.4725         calculate D2E/DX2 analytically  !
 ! A7    A(3,2,4)              112.0175         calculate D2E/DX2 analytically  !
 ! A8    A(3,2,5)              110.1863         calculate D2E/DX2 analytically  !
 ! A9    A(3,2,10)             105.8855         calculate D2E/DX2 analytically  !
 ! A10   A(4,2,5)              111.1443         calculate D2E/DX2 analytically  !
 ! A11   A(4,2,10)             110.4062         calculate D2E/DX2 analytically  !
 ! A12   A(5,2,10)             106.9508         calculate D2E/DX2 analytically  !
 ! A13   A(1,6,7)              110.0441         calculate D2E/DX2 analytically  !
 ! A14   A(1,6,8)              112.0838         calculate D2E/DX2 analytically  !
 ! A15   A(1,6,9)              111.652          calculate D2E/DX2 analytically  !
 ! A16   A(7,6,8)              106.8439         calculate D2E/DX2 analytically  !
 ! A17   A(7,6,9)              106.9335         calculate D2E/DX2 analytically  !
 ! A18   A(8,6,9)              109.0408         calculate D2E/DX2 analytically  !
 ! A19   A(1,10,2)             114.1896         calculate D2E/DX2 analytically  !
 ! A20   A(1,10,17)            100.5379         calculate D2E/DX2 analytically  !
 ! A21   A(2,10,17)            107.7134         calculate D2E/DX2 analytically  !
 ! A22   A(12,11,16)           108.4848         calculate D2E/DX2 analytically  !
 ! A23   A(12,11,17)           110.1294         calculate D2E/DX2 analytically  !
 ! A24   A(16,11,17)            94.8855         calculate D2E/DX2 analytically  !
 ! A25   A(11,12,13)           105.722          calculate D2E/DX2 analytically  !
 ! A26   A(11,12,14)           106.6785         calculate D2E/DX2 analytically  !
 ! A27   A(11,12,15)           110.9905         calculate D2E/DX2 analytically  !
 ! A28   A(13,12,14)           110.3134         calculate D2E/DX2 analytically  !
 ! A29   A(13,12,15)           111.9091         calculate D2E/DX2 analytically  !
 ! A30   A(14,12,15)           110.9771         calculate D2E/DX2 analytically  !
 ! A31   A(11,16,19)           135.6682         calculate D2E/DX2 analytically  !
 ! A32   A(10,17,11)           151.1314         calculate D2E/DX2 analytically  !
 ! A33   A(1,19,16)            110.3856         calculate D2E/DX2 analytically  !
 ! D1    D(10,1,6,7)          -159.762          calculate D2E/DX2 analytically  !
 ! D2    D(10,1,6,8)           -41.0181         calculate D2E/DX2 analytically  !
 ! D3    D(10,1,6,9)            81.6562         calculate D2E/DX2 analytically  !
 ! D4    D(18,1,6,7)           -58.8302         calculate D2E/DX2 analytically  !
 ! D5    D(18,1,6,8)            59.9137         calculate D2E/DX2 analytically  !
 ! D6    D(18,1,6,9)          -177.412          calculate D2E/DX2 analytically  !
 ! D7    D(19,1,6,7)            76.5385         calculate D2E/DX2 analytically  !
 ! D8    D(19,1,6,8)          -164.7176         calculate D2E/DX2 analytically  !
 ! D9    D(19,1,6,9)           -42.0433         calculate D2E/DX2 analytically  !
 ! D10   D(6,1,10,2)           -59.7896         calculate D2E/DX2 analytically  !
 ! D11   D(6,1,10,17)         -174.8027         calculate D2E/DX2 analytically  !
 ! D12   D(18,1,10,2)         -171.101          calculate D2E/DX2 analytically  !
 ! D13   D(18,1,10,17)          73.8859         calculate D2E/DX2 analytically  !
 ! D14   D(19,1,10,2)           74.5458         calculate D2E/DX2 analytically  !
 ! D15   D(19,1,10,17)         -40.4674         calculate D2E/DX2 analytically  !
 ! D16   D(6,1,19,16)          176.7496         calculate D2E/DX2 analytically  !
 ! D17   D(10,1,19,16)          50.9937         calculate D2E/DX2 analytically  !
 ! D18   D(18,1,19,16)         -49.2991         calculate D2E/DX2 analytically  !
 ! D19   D(3,2,10,1)          -166.3283         calculate D2E/DX2 analytically  !
 ! D20   D(3,2,10,17)          -55.5997         calculate D2E/DX2 analytically  !
 ! D21   D(4,2,10,1)           -44.879          calculate D2E/DX2 analytically  !
 ! D22   D(4,2,10,17)           65.8496         calculate D2E/DX2 analytically  !
 ! D23   D(5,2,10,1)            76.1679         calculate D2E/DX2 analytically  !
 ! D24   D(5,2,10,17)         -173.1035         calculate D2E/DX2 analytically  !
 ! D25   D(1,10,17,11)          13.1394         calculate D2E/DX2 analytically  !
 ! D26   D(2,10,17,11)        -106.6587         calculate D2E/DX2 analytically  !
 ! D27   D(16,11,12,13)        171.4295         calculate D2E/DX2 analytically  !
 ! D28   D(16,11,12,14)        -71.1302         calculate D2E/DX2 analytically  !
 ! D29   D(16,11,12,15)         49.8827         calculate D2E/DX2 analytically  !
 ! D30   D(17,11,12,13)         68.8279         calculate D2E/DX2 analytically  !
 ! D31   D(17,11,12,14)       -173.7318         calculate D2E/DX2 analytically  !
 ! D32   D(17,11,12,15)        -52.7189         calculate D2E/DX2 analytically  !
 ! D33   D(12,11,16,19)       -103.5454         calculate D2E/DX2 analytically  !
 ! D34   D(17,11,16,19)          9.581          calculate D2E/DX2 analytically  !
 ! D35   D(12,11,17,10)        114.9612         calculate D2E/DX2 analytically  !
 ! D36   D(16,11,17,10)          3.2308         calculate D2E/DX2 analytically  !
 ! D37   D(11,16,19,1)         -43.6502         calculate D2E/DX2 analytically  !
 --------------------------------------------------------------------------------
 Trust Radius=3.00D-01 FncErr=1.00D-07 GrdErr=1.00D-06
 Number of steps in this run=     99 maximum allowed number of steps=    114.
 Search for a saddle point of order  1.
 GradGradGradGradGradGradGradGradGradGradGradGradGradGradGradGradGradGrad

                          Input orientation:                          
 ---------------------------------------------------------------------
 Center     Atomic      Atomic             Coordinates (Angstroms)
 Number     Number       Type             X           Y           Z
 ---------------------------------------------------------------------
      1          6           0        0.884558    0.116628    0.418907
      2          6           0       -0.398563    2.086422   -0.609586
      3          1           0       -1.166118    2.271506   -1.367134
      4          1           0       -0.779578    2.236265    0.406015
      5          1           0        0.478877    2.714415   -0.799143
      6          6           0        2.120771    0.936787    0.590683
      7          1           0        2.882752    0.361331    1.145809
      8          1           0        2.570868    1.213746   -0.374381
      9          1           0        1.924419    1.849674    1.169780
     10          8           0        0.018310    0.710864   -0.795072
     11          8           0       -1.763632   -0.869703   -0.101762
     12          6           0       -3.040711   -0.268041    0.233857
     13          1           0       -3.563040   -0.128910   -0.719331
     14          1           0       -3.576005   -0.993577    0.859193
     15          1           0       -2.900725    0.677932    0.764309
     16          1           0       -1.128054   -0.888828    0.818105
     17          1           0       -1.034514   -0.032144   -0.719698
     18         17           0        1.323828   -1.443907   -0.502301
     19          8           0        0.044036   -0.086882    1.340889
 ---------------------------------------------------------------------
                    Distance matrix (angstroms):
                    1          2          3          4          5
     1  C    0.000000
     2  C    2.565986   0.000000
     3  H    3.469685   1.094201   0.000000
     4  H    2.694880   1.095021   1.815134   0.000000
     5  H    2.897709   1.095540   1.795770   1.806860   0.000000
     6  C    1.493449   3.018170   4.051933   3.183515   2.790590
     7  H    2.140338   4.101753   5.133907   4.180351   3.885673
     8  H    2.162548   3.103934   4.008675   3.588879   2.609379
     9  H    2.156054   2.935718   4.020609   2.836263   2.591144
    10  O    1.605381   1.449258   2.041012   2.099067   2.055810
    11  O    2.873474   3.295447   3.438805   3.297459   4.284984
    12  C    3.948411   3.638109   3.539289   3.378448   4.727540
    13  H    4.597500   3.864409   3.453532   3.822057   4.942465
    14  H    4.617687   4.662600   4.628699   4.296191   5.739456
    15  H    3.842230   3.183119   3.176695   2.656321   4.244214
    16  H    2.284931   3.379729   3.842451   3.171350   4.263928
    17  H    2.236379   2.214696   2.396518   2.545172   3.136917
    18  Cl   1.864632   3.929550   4.555443   4.335092   4.253669
    19  O    1.264098   2.953557   3.789440   2.636160   3.551913
                    6          7          8          9         10
     6  C    0.000000
     7  H    1.104504   0.000000
     8  H    1.100292   1.770554   0.000000
     9  H    1.098758   1.770351   1.790736   0.000000
    10  O    2.528181   3.477675   2.635417   2.964925   0.000000
    11  O    4.339524   4.965960   4.816946   4.755371   2.480764
    12  C    5.312234   6.026208   5.835706   5.478429   3.372619
    13  H    5.929381   6.728099   6.288604   6.131537   3.679270
    14  H    6.020935   6.605563   6.646655   6.199613   4.308226
    15  H    5.031160   5.804686   5.614449   4.981907   3.309610
    16  H    3.733558   4.213888   4.418695   4.115903   2.544701
    17  H    3.551302   4.356594   3.830178   3.983296   1.290806
    18  Cl   2.738145   2.899206   2.938468   3.742224   2.536362
    19  O    2.433831   2.880496   3.319437   2.704694   2.280217
                   11         12         13         14         15
    11  O    0.000000
    12  C    1.451058   0.000000
    13  H    2.041577   1.095788   0.000000
    14  H    2.055110   1.097264   1.799876   0.000000
    15  H    2.106712   1.093545   1.814068   1.805256   0.000000
    16  H    1.118249   2.094034   2.978312   2.450536   2.366431
    17  H    1.270812   2.233773   2.530377   3.142678   2.487816
    18  Cl   3.165841   4.579715   5.065353   5.105372   4.894216
    19  O    2.441662   3.282378   4.154187   3.762821   3.096611
                   16         17         18         19
    16  H    0.000000
    17  H    1.762809   0.000000
    18  Cl   2.839597   2.757193   0.000000
    19  O    1.513346   2.326432   2.622353   0.000000
 Stoichiometry    C4H11ClO3
 Framework group  C1[X(C4H11ClO3)]
 Deg. of freedom    51
 Full point group                 C1      NOp   1
 Largest Abelian subgroup         C1      NOp   1
 Largest concise Abelian subgroup C1      NOp   1
                         Standard orientation:                         
 ---------------------------------------------------------------------
 Center     Atomic      Atomic             Coordinates (Angstroms)
 Number     Number       Type             X           Y           Z
 ---------------------------------------------------------------------
      1          6           0        0.884558    0.116628    0.418907
      2          6           0       -0.398563    2.086422   -0.609586
      3          1           0       -1.166118    2.271506   -1.367134
      4          1           0       -0.779578    2.236265    0.406015
      5          1           0        0.478877    2.714415   -0.799143
      6          6           0        2.120771    0.936787    0.590683
      7          1           0        2.882752    0.361331    1.145809
      8          1           0        2.570868    1.213746   -0.374381
      9          1           0        1.924419    1.849674    1.169780
     10          8           0        0.018310    0.710864   -0.795072
     11          8           0       -1.763632   -0.869703   -0.101762
     12          6           0       -3.040711   -0.268041    0.233857
     13          1           0       -3.563040   -0.128910   -0.719331
     14          1           0       -3.576005   -0.993577    0.859193
     15          1           0       -2.900725    0.677932    0.764309
     16          1           0       -1.128054   -0.888828    0.818105
     17          1           0       -1.034514   -0.032144   -0.719698
     18         17           0        1.323828   -1.443907   -0.502301
     19          8           0        0.044036   -0.086882    1.340889
 ---------------------------------------------------------------------
 Rotational constants (GHZ):      2.0335794      1.2248437      0.9612350
 General basis read from cards:  (5D, 7F)
 ======================================================================================================
                                       Pseudopotential Parameters
 ======================================================================================================
  Center     Atomic      Valence      Angular      Power
  Number     Number     Electrons     Momentum     of R      Exponent        Coefficient   SO-Coeffient
 ======================================================================================================
    1          6
                                   No pseudopotential on this center.
    2          6
                                   No pseudopotential on this center.
    3          1
                                   No pseudopotential on this center.
    4          1
                                   No pseudopotential on this center.
    5          1
                                   No pseudopotential on this center.
    6          6
                                   No pseudopotential on this center.
    7          1
                                   No pseudopotential on this center.
    8          1
                                   No pseudopotential on this center.
    9          1
                                   No pseudopotential on this center.
   10          8
                                   No pseudopotential on this center.
   11          8
                                   No pseudopotential on this center.
   12          6
                                   No pseudopotential on this center.
   13          1
                                   No pseudopotential on this center.
   14          1
                                   No pseudopotential on this center.
   15          1
                                   No pseudopotential on this center.
   16          1
                                   No pseudopotential on this center.
   17          1
                                   No pseudopotential on this center.
   18         17
                                   No pseudopotential on this center.
   19          8
                                   No pseudopotential on this center.
 ======================================================================================================
 AO basis set in the form of general basis input (Overlap normalization):
      1 0
 S   7 1.00       0.000000000000
      0.8236000000D+04  0.5419783203D-03
      0.1235000000D+04  0.4192873817D-02
      0.2808000000D+03  0.2152216205D-01
      0.7927000000D+02  0.8353432195D-01
      0.2559000000D+02  0.2395828457D+00
      0.8997000000D+01  0.4428528419D+00
      0.3319000000D+01  0.3517995618D+00
 S   6 1.00       0.000000000000
      0.2808000000D+03 -0.5949224937D-04
      0.7927000000D+02 -0.1148158310D-02
      0.2559000000D+02 -0.1001913745D-01
      0.8997000000D+01 -0.6121949230D-01
      0.3319000000D+01 -0.1732698541D+00
      0.3643000000D+00  0.1072915192D+01
 S   1 1.00       0.000000000000
      0.9059000000D+00  0.1000000000D+01
 S   1 1.00       0.000000000000
      0.1285000000D+00  0.1000000000D+01
 S   1 1.00       0.000000000000
      0.4402000000D-01  0.1000000000D+01
 P   3 1.00       0.000000000000
      0.1871000000D+02  0.3942638716D-01
      0.4133000000D+01  0.2440889849D+00
      0.1200000000D+01  0.8154920089D+00
 P   1 1.00       0.000000000000
      0.3827000000D+00  0.1000000000D+01
 P   1 1.00       0.000000000000
      0.1209000000D+00  0.1000000000D+01
 P   1 1.00       0.000000000000
      0.3569000000D-01  0.1000000000D+01
 D   1 1.00       0.000000000000
      0.1097000000D+01  0.1000000000D+01
 D   1 1.00       0.000000000000
      0.3180000000D+00  0.1000000000D+01
 D   1 1.00       0.000000000000
      0.1000000000D+00  0.1000000000D+01
 F   1 1.00       0.000000000000
      0.7610000000D+00  0.1000000000D+01
 F   1 1.00       0.000000000000
      0.2680000000D+00  0.1000000000D+01
 ****
      2 0
 S   7 1.00       0.000000000000
      0.8236000000D+04  0.5419783203D-03
      0.1235000000D+04  0.4192873817D-02
      0.2808000000D+03  0.2152216205D-01
      0.7927000000D+02  0.8353432195D-01
      0.2559000000D+02  0.2395828457D+00
      0.8997000000D+01  0.4428528419D+00
      0.3319000000D+01  0.3517995618D+00
 S   6 1.00       0.000000000000
      0.2808000000D+03 -0.5949224937D-04
      0.7927000000D+02 -0.1148158310D-02
      0.2559000000D+02 -0.1001913745D-01
      0.8997000000D+01 -0.6121949230D-01
      0.3319000000D+01 -0.1732698541D+00
      0.3643000000D+00  0.1072915192D+01
 S   1 1.00       0.000000000000
      0.9059000000D+00  0.1000000000D+01
 S   1 1.00       0.000000000000
      0.1285000000D+00  0.1000000000D+01
 S   1 1.00       0.000000000000
      0.4402000000D-01  0.1000000000D+01
 P   3 1.00       0.000000000000
      0.1871000000D+02  0.3942638716D-01
      0.4133000000D+01  0.2440889849D+00
      0.1200000000D+01  0.8154920089D+00
 P   1 1.00       0.000000000000
      0.3827000000D+00  0.1000000000D+01
 P   1 1.00       0.000000000000
      0.1209000000D+00  0.1000000000D+01
 P   1 1.00       0.000000000000
      0.3569000000D-01  0.1000000000D+01
 D   1 1.00       0.000000000000
      0.1097000000D+01  0.1000000000D+01
 D   1 1.00       0.000000000000
      0.3180000000D+00  0.1000000000D+01
 D   1 1.00       0.000000000000
      0.1000000000D+00  0.1000000000D+01
 F   1 1.00       0.000000000000
      0.7610000000D+00  0.1000000000D+01
 F   1 1.00       0.000000000000
      0.2680000000D+00  0.1000000000D+01
 ****
      3 0
 S   3 1.00       0.000000000000
      0.3387000000D+02  0.2549486323D-01
      0.5095000000D+01  0.1903627659D+00
      0.1159000000D+01  0.8521620222D+00
 S   1 1.00       0.000000000000
      0.3258000000D+00  0.1000000000D+01
 S   1 1.00       0.000000000000
      0.1027000000D+00  0.1000000000D+01
 S   1 1.00       0.000000000000
      0.2526000000D-01  0.1000000000D+01
 P   1 1.00       0.000000000000
      0.1407000000D+01  0.1000000000D+01
 P   1 1.00       0.000000000000
      0.3880000000D+00  0.1000000000D+01
 P   1 1.00       0.000000000000
      0.1020000000D+00  0.1000000000D+01
 D   1 1.00       0.000000000000
      0.1057000000D+01  0.1000000000D+01
 D   1 1.00       0.000000000000
      0.2470000000D+00  0.1000000000D+01
 ****
      4 0
 S   3 1.00       0.000000000000
      0.3387000000D+02  0.2549486323D-01
      0.5095000000D+01  0.1903627659D+00
      0.1159000000D+01  0.8521620222D+00
 S   1 1.00       0.000000000000
      0.3258000000D+00  0.1000000000D+01
 S   1 1.00       0.000000000000
      0.1027000000D+00  0.1000000000D+01
 S   1 1.00       0.000000000000
      0.2526000000D-01  0.1000000000D+01
 P   1 1.00       0.000000000000
      0.1407000000D+01  0.1000000000D+01
 P   1 1.00       0.000000000000
      0.3880000000D+00  0.1000000000D+01
 P   1 1.00       0.000000000000
      0.1020000000D+00  0.1000000000D+01
 D   1 1.00       0.000000000000
      0.1057000000D+01  0.1000000000D+01
 D   1 1.00       0.000000000000
      0.2470000000D+00  0.1000000000D+01
 ****
      5 0
 S   3 1.00       0.000000000000
      0.3387000000D+02  0.2549486323D-01
      0.5095000000D+01  0.1903627659D+00
      0.1159000000D+01  0.8521620222D+00
 S   1 1.00       0.000000000000
      0.3258000000D+00  0.1000000000D+01
 S   1 1.00       0.000000000000
      0.1027000000D+00  0.1000000000D+01
 S   1 1.00       0.000000000000
      0.2526000000D-01  0.1000000000D+01
 P   1 1.00       0.000000000000
      0.1407000000D+01  0.1000000000D+01
 P   1 1.00       0.000000000000
      0.3880000000D+00  0.1000000000D+01
 P   1 1.00       0.000000000000
      0.1020000000D+00  0.1000000000D+01
 D   1 1.00       0.000000000000
      0.1057000000D+01  0.1000000000D+01
 D   1 1.00       0.000000000000
      0.2470000000D+00  0.1000000000D+01
 ****
      6 0
 S   7 1.00       0.000000000000
      0.8236000000D+04  0.5419783203D-03
      0.1235000000D+04  0.4192873817D-02
      0.2808000000D+03  0.2152216205D-01
      0.7927000000D+02  0.8353432195D-01
      0.2559000000D+02  0.2395828457D+00
      0.8997000000D+01  0.4428528419D+00
      0.3319000000D+01  0.3517995618D+00
 S   6 1.00       0.000000000000
      0.2808000000D+03 -0.5949224937D-04
      0.7927000000D+02 -0.1148158310D-02
      0.2559000000D+02 -0.1001913745D-01
      0.8997000000D+01 -0.6121949230D-01
      0.3319000000D+01 -0.1732698541D+00
      0.3643000000D+00  0.1072915192D+01
 S   1 1.00       0.000000000000
      0.9059000000D+00  0.1000000000D+01
 S   1 1.00       0.000000000000
      0.1285000000D+00  0.1000000000D+01
 S   1 1.00       0.000000000000
      0.4402000000D-01  0.1000000000D+01
 P   3 1.00       0.000000000000
      0.1871000000D+02  0.3942638716D-01
      0.4133000000D+01  0.2440889849D+00
      0.1200000000D+01  0.8154920089D+00
 P   1 1.00       0.000000000000
      0.3827000000D+00  0.1000000000D+01
 P   1 1.00       0.000000000000
      0.1209000000D+00  0.1000000000D+01
 P   1 1.00       0.000000000000
      0.3569000000D-01  0.1000000000D+01
 D   1 1.00       0.000000000000
      0.1097000000D+01  0.1000000000D+01
 D   1 1.00       0.000000000000
      0.3180000000D+00  0.1000000000D+01
 D   1 1.00       0.000000000000
      0.1000000000D+00  0.1000000000D+01
 F   1 1.00       0.000000000000
      0.7610000000D+00  0.1000000000D+01
 F   1 1.00       0.000000000000
      0.2680000000D+00  0.1000000000D+01
 ****
      7 0
 S   3 1.00       0.000000000000
      0.3387000000D+02  0.2549486323D-01
      0.5095000000D+01  0.1903627659D+00
      0.1159000000D+01  0.8521620222D+00
 S   1 1.00       0.000000000000
      0.3258000000D+00  0.1000000000D+01
 S   1 1.00       0.000000000000
      0.1027000000D+00  0.1000000000D+01
 S   1 1.00       0.000000000000
      0.2526000000D-01  0.1000000000D+01
 P   1 1.00       0.000000000000
      0.1407000000D+01  0.1000000000D+01
 P   1 1.00       0.000000000000
      0.3880000000D+00  0.1000000000D+01
 P   1 1.00       0.000000000000
      0.1020000000D+00  0.1000000000D+01
 D   1 1.00       0.000000000000
      0.1057000000D+01  0.1000000000D+01
 D   1 1.00       0.000000000000
      0.2470000000D+00  0.1000000000D+01
 ****
      8 0
 S   3 1.00       0.000000000000
      0.3387000000D+02  0.2549486323D-01
      0.5095000000D+01  0.1903627659D+00
      0.1159000000D+01  0.8521620222D+00
 S   1 1.00       0.000000000000
      0.3258000000D+00  0.1000000000D+01
 S   1 1.00       0.000000000000
      0.1027000000D+00  0.1000000000D+01
 S   1 1.00       0.000000000000
      0.2526000000D-01  0.1000000000D+01
 P   1 1.00       0.000000000000
      0.1407000000D+01  0.1000000000D+01
 P   1 1.00       0.000000000000
      0.3880000000D+00  0.1000000000D+01
 P   1 1.00       0.000000000000
      0.1020000000D+00  0.1000000000D+01
 D   1 1.00       0.000000000000
      0.1057000000D+01  0.1000000000D+01
 D   1 1.00       0.000000000000
      0.2470000000D+00  0.1000000000D+01
 ****
      9 0
 S   3 1.00       0.000000000000
      0.3387000000D+02  0.2549486323D-01
      0.5095000000D+01  0.1903627659D+00
      0.1159000000D+01  0.8521620222D+00
 S   1 1.00       0.000000000000
      0.3258000000D+00  0.1000000000D+01
 S   1 1.00       0.000000000000
      0.1027000000D+00  0.1000000000D+01
 S   1 1.00       0.000000000000
      0.2526000000D-01  0.1000000000D+01
 P   1 1.00       0.000000000000
      0.1407000000D+01  0.1000000000D+01
 P   1 1.00       0.000000000000
      0.3880000000D+00  0.1000000000D+01
 P   1 1.00       0.000000000000
      0.1020000000D+00  0.1000000000D+01
 D   1 1.00       0.000000000000
      0.1057000000D+01  0.1000000000D+01
 D   1 1.00       0.000000000000
      0.2470000000D+00  0.1000000000D+01
 ****
     10 0
 S   7 1.00       0.000000000000
      0.1533000000D+05  0.5198089434D-03
      0.2299000000D+04  0.4020256215D-02
      0.5224000000D+03  0.2071282673D-01
      0.1473000000D+03  0.8101055358D-01
      0.4755000000D+02  0.2359629851D+00
      0.1676000000D+02  0.4426534455D+00
      0.6207000000D+01  0.3570644227D+00
 S   6 1.00       0.000000000000
      0.5224000000D+03 -0.4421150084D-04
      0.1473000000D+03 -0.1225910413D-02
      0.4755000000D+02 -0.1055177248D-01
      0.1676000000D+02 -0.6744526326D-01
      0.6207000000D+01 -0.1711986073D+00
      0.6882000000D+00  0.1073298561D+01
 S   1 1.00       0.000000000000
      0.1752000000D+01  0.1000000000D+01
 S   1 1.00       0.000000000000
      0.2384000000D+00  0.1000000000D+01
 S   1 1.00       0.000000000000
      0.7376000000D-01  0.1000000000D+01
 P   3 1.00       0.000000000000
      0.3446000000D+02  0.4116348957D-01
      0.7749000000D+01  0.2577628359D+00
      0.2280000000D+01  0.8024192744D+00
 P   1 1.00       0.000000000000
      0.7156000000D+00  0.1000000000D+01
 P   1 1.00       0.000000000000
      0.2140000000D+00  0.1000000000D+01
 P   1 1.00       0.000000000000
      0.5974000000D-01  0.1000000000D+01
 D   1 1.00       0.000000000000
      0.2314000000D+01  0.1000000000D+01
 D   1 1.00       0.000000000000
      0.6450000000D+00  0.1000000000D+01
 D   1 1.00       0.000000000000
      0.2140000000D+00  0.1000000000D+01
 F   1 1.00       0.000000000000
      0.1428000000D+01  0.1000000000D+01
 F   1 1.00       0.000000000000
      0.5000000000D+00  0.1000000000D+01
 ****
     11 0
 S   7 1.00       0.000000000000
      0.1533000000D+05  0.5198089434D-03
      0.2299000000D+04  0.4020256215D-02
      0.5224000000D+03  0.2071282673D-01
      0.1473000000D+03  0.8101055358D-01
      0.4755000000D+02  0.2359629851D+00
      0.1676000000D+02  0.4426534455D+00
      0.6207000000D+01  0.3570644227D+00
 S   6 1.00       0.000000000000
      0.5224000000D+03 -0.4421150084D-04
      0.1473000000D+03 -0.1225910413D-02
      0.4755000000D+02 -0.1055177248D-01
      0.1676000000D+02 -0.6744526326D-01
      0.6207000000D+01 -0.1711986073D+00
      0.6882000000D+00  0.1073298561D+01
 S   1 1.00       0.000000000000
      0.1752000000D+01  0.1000000000D+01
 S   1 1.00       0.000000000000
      0.2384000000D+00  0.1000000000D+01
 S   1 1.00       0.000000000000
      0.7376000000D-01  0.1000000000D+01
 P   3 1.00       0.000000000000
      0.3446000000D+02  0.4116348957D-01
      0.7749000000D+01  0.2577628359D+00
      0.2280000000D+01  0.8024192744D+00
 P   1 1.00       0.000000000000
      0.7156000000D+00  0.1000000000D+01
 P   1 1.00       0.000000000000
      0.2140000000D+00  0.1000000000D+01
 P   1 1.00       0.000000000000
      0.5974000000D-01  0.1000000000D+01
 D   1 1.00       0.000000000000
      0.2314000000D+01  0.1000000000D+01
 D   1 1.00       0.000000000000
      0.6450000000D+00  0.1000000000D+01
 D   1 1.00       0.000000000000
      0.2140000000D+00  0.1000000000D+01
 F   1 1.00       0.000000000000
      0.1428000000D+01  0.1000000000D+01
 F   1 1.00       0.000000000000
      0.5000000000D+00  0.1000000000D+01
 ****
     12 0
 S   7 1.00       0.000000000000
      0.8236000000D+04  0.5419783203D-03
      0.1235000000D+04  0.4192873817D-02
      0.2808000000D+03  0.2152216205D-01
      0.7927000000D+02  0.8353432195D-01
      0.2559000000D+02  0.2395828457D+00
      0.8997000000D+01  0.4428528419D+00
      0.3319000000D+01  0.3517995618D+00
 S   6 1.00       0.000000000000
      0.2808000000D+03 -0.5949224937D-04
      0.7927000000D+02 -0.1148158310D-02
      0.2559000000D+02 -0.1001913745D-01
      0.8997000000D+01 -0.6121949230D-01
      0.3319000000D+01 -0.1732698541D+00
      0.3643000000D+00  0.1072915192D+01
 S   1 1.00       0.000000000000
      0.9059000000D+00  0.1000000000D+01
 S   1 1.00       0.000000000000
      0.1285000000D+00  0.1000000000D+01
 S   1 1.00       0.000000000000
      0.4402000000D-01  0.1000000000D+01
 P   3 1.00       0.000000000000
      0.1871000000D+02  0.3942638716D-01
      0.4133000000D+01  0.2440889849D+00
      0.1200000000D+01  0.8154920089D+00
 P   1 1.00       0.000000000000
      0.3827000000D+00  0.1000000000D+01
 P   1 1.00       0.000000000000
      0.1209000000D+00  0.1000000000D+01
 P   1 1.00       0.000000000000
      0.3569000000D-01  0.1000000000D+01
 D   1 1.00       0.000000000000
      0.1097000000D+01  0.1000000000D+01
 D   1 1.00       0.000000000000
      0.3180000000D+00  0.1000000000D+01
 D   1 1.00       0.000000000000
      0.1000000000D+00  0.1000000000D+01
 F   1 1.00       0.000000000000
      0.7610000000D+00  0.1000000000D+01
 F   1 1.00       0.000000000000
      0.2680000000D+00  0.1000000000D+01
 ****
     13 0
 S   3 1.00       0.000000000000
      0.3387000000D+02  0.2549486323D-01
      0.5095000000D+01  0.1903627659D+00
      0.1159000000D+01  0.8521620222D+00
 S   1 1.00       0.000000000000
      0.3258000000D+00  0.1000000000D+01
 S   1 1.00       0.000000000000
      0.1027000000D+00  0.1000000000D+01
 S   1 1.00       0.000000000000
      0.2526000000D-01  0.1000000000D+01
 P   1 1.00       0.000000000000
      0.1407000000D+01  0.1000000000D+01
 P   1 1.00       0.000000000000
      0.3880000000D+00  0.1000000000D+01
 P   1 1.00       0.000000000000
      0.1020000000D+00  0.1000000000D+01
 D   1 1.00       0.000000000000
      0.1057000000D+01  0.1000000000D+01
 D   1 1.00       0.000000000000
      0.2470000000D+00  0.1000000000D+01
 ****
     14 0
 S   3 1.00       0.000000000000
      0.3387000000D+02  0.2549486323D-01
      0.5095000000D+01  0.1903627659D+00
      0.1159000000D+01  0.8521620222D+00
 S   1 1.00       0.000000000000
      0.3258000000D+00  0.1000000000D+01
 S   1 1.00       0.000000000000
      0.1027000000D+00  0.1000000000D+01
 S   1 1.00       0.000000000000
      0.2526000000D-01  0.1000000000D+01
 P   1 1.00       0.000000000000
      0.1407000000D+01  0.1000000000D+01
 P   1 1.00       0.000000000000
      0.3880000000D+00  0.1000000000D+01
 P   1 1.00       0.000000000000
      0.1020000000D+00  0.1000000000D+01
 D   1 1.00       0.000000000000
      0.1057000000D+01  0.1000000000D+01
 D   1 1.00       0.000000000000
      0.2470000000D+00  0.1000000000D+01
 ****
     15 0
 S   3 1.00       0.000000000000
      0.3387000000D+02  0.2549486323D-01
      0.5095000000D+01  0.1903627659D+00
      0.1159000000D+01  0.8521620222D+00
 S   1 1.00       0.000000000000
      0.3258000000D+00  0.1000000000D+01
 S   1 1.00       0.000000000000
      0.1027000000D+00  0.1000000000D+01
 S   1 1.00       0.000000000000
      0.2526000000D-01  0.1000000000D+01
 P   1 1.00       0.000000000000
      0.1407000000D+01  0.1000000000D+01
 P   1 1.00       0.000000000000
      0.3880000000D+00  0.1000000000D+01
 P   1 1.00       0.000000000000
      0.1020000000D+00  0.1000000000D+01
 D   1 1.00       0.000000000000
      0.1057000000D+01  0.1000000000D+01
 D   1 1.00       0.000000000000
      0.2470000000D+00  0.1000000000D+01
 ****
     16 0
 S   3 1.00       0.000000000000
      0.3387000000D+02  0.2549486323D-01
      0.5095000000D+01  0.1903627659D+00
      0.1159000000D+01  0.8521620222D+00
 S   1 1.00       0.000000000000
      0.3258000000D+00  0.1000000000D+01
 S   1 1.00       0.000000000000
      0.1027000000D+00  0.1000000000D+01
 S   1 1.00       0.000000000000
      0.2526000000D-01  0.1000000000D+01
 P   1 1.00       0.000000000000
      0.1407000000D+01  0.1000000000D+01
 P   1 1.00       0.000000000000
      0.3880000000D+00  0.1000000000D+01
 P   1 1.00       0.000000000000
      0.1020000000D+00  0.1000000000D+01
 D   1 1.00       0.000000000000
      0.1057000000D+01  0.1000000000D+01
 D   1 1.00       0.000000000000
      0.2470000000D+00  0.1000000000D+01
 ****
     17 0
 S   3 1.00       0.000000000000
      0.3387000000D+02  0.2549486323D-01
      0.5095000000D+01  0.1903627659D+00
      0.1159000000D+01  0.8521620222D+00
 S   1 1.00       0.000000000000
      0.3258000000D+00  0.1000000000D+01
 S   1 1.00       0.000000000000
      0.1027000000D+00  0.1000000000D+01
 S   1 1.00       0.000000000000
      0.2526000000D-01  0.1000000000D+01
 P   1 1.00       0.000000000000
      0.1407000000D+01  0.1000000000D+01
 P   1 1.00       0.000000000000
      0.3880000000D+00  0.1000000000D+01
 P   1 1.00       0.000000000000
      0.1020000000D+00  0.1000000000D+01
 D   1 1.00       0.000000000000
      0.1057000000D+01  0.1000000000D+01
 D   1 1.00       0.000000000000
      0.2470000000D+00  0.1000000000D+01
 ****
     18 0
 S   7 1.00       0.000000000000
      0.6950799094D+05  0.5145738965D-03
      0.1042615688D+05  0.3978134481D-02
      0.2373233406D+04  0.2045617867D-01
      0.6715642007D+03  0.8014810289D-01
      0.2184199979D+03  0.2345477032D+00
      0.7757224971D+02  0.4454336858D+00
      0.2888881528D+02  0.3546684250D+00
 S   3 1.00       0.000000000000
      0.1271052718D+03  0.1129368805D+00
      0.3933958296D+02  0.4837351421D+00
      0.7674067999D+01 -0.1229229739D+01
 S   2 1.00       0.000000000000
      0.3874562763D+01  0.6729682164D+00
      0.1838583257D+01  0.3495605141D+00
 S   1 1.00       0.000000000000
      0.5022905754D+00  0.1000000000D+01
 S   1 1.00       0.000000000000
      0.1796272342D+00  0.1000000000D+01
 P   5 1.00       0.000000000000
      0.6665042328D+03  0.3350250820D-02
      0.1576424169D+03  0.2676397041D-01
      0.5026252098D+02  0.1236268236D+00
      0.1853607811D+02  0.3584578792D+00
      0.7294053278D+01  0.6167729635D+00
 P   1 1.00       0.000000000000
      0.2943324899D+01  0.1000000000D+01
 P   1 1.00       0.000000000000
      0.1040497082D+01  0.1000000000D+01
 P   1 1.00       0.000000000000
      0.3845641508D+00  0.1000000000D+01
 P   1 1.00       0.000000000000
      0.1306964273D+00  0.1000000000D+01
 D   2 1.00       0.000000000000
      0.4610000000D+01  0.1826583505D+00
      0.1011000000D+01  0.9132917523D+00
 D   1 1.00       0.000000000000
      0.3390000000D+00  0.1000000000D+01
 F   1 1.00       0.000000000000
      0.7060000000D+00  0.1000000000D+01
 ****
     19 0
 S   7 1.00       0.000000000000
      0.1533000000D+05  0.5198089434D-03
      0.2299000000D+04  0.4020256215D-02
      0.5224000000D+03  0.2071282673D-01
      0.1473000000D+03  0.8101055358D-01
      0.4755000000D+02  0.2359629851D+00
      0.1676000000D+02  0.4426534455D+00
      0.6207000000D+01  0.3570644227D+00
 S   6 1.00       0.000000000000
      0.5224000000D+03 -0.4421150084D-04
      0.1473000000D+03 -0.1225910413D-02
      0.4755000000D+02 -0.1055177248D-01
      0.1676000000D+02 -0.6744526326D-01
      0.6207000000D+01 -0.1711986073D+00
      0.6882000000D+00  0.1073298561D+01
 S   1 1.00       0.000000000000
      0.1752000000D+01  0.1000000000D+01
 S   1 1.00       0.000000000000
      0.2384000000D+00  0.1000000000D+01
 S   1 1.00       0.000000000000
      0.7376000000D-01  0.1000000000D+01
 P   3 1.00       0.000000000000
      0.3446000000D+02  0.4116348957D-01
      0.7749000000D+01  0.2577628359D+00
      0.2280000000D+01  0.8024192744D+00
 P   1 1.00       0.000000000000
      0.7156000000D+00  0.1000000000D+01
 P   1 1.00       0.000000000000
      0.2140000000D+00  0.1000000000D+01
 P   1 1.00       0.000000000000
      0.5974000000D-01  0.1000000000D+01
 D   1 1.00       0.000000000000
      0.2314000000D+01  0.1000000000D+01
 D   1 1.00       0.000000000000
      0.6450000000D+00  0.1000000000D+01
 D   1 1.00       0.000000000000
      0.2140000000D+00  0.1000000000D+01
 F   1 1.00       0.000000000000
      0.1428000000D+01  0.1000000000D+01
 F   1 1.00       0.000000000000
      0.5000000000D+00  0.1000000000D+01
 ****

 There are   702 symmetry adapted cartesian basis functions of A   symmetry.
 There are   612 symmetry adapted basis functions of A   symmetry.
   612 basis functions,   870 primitive gaussians,   702 cartesian basis functions
    38 alpha electrons       38 beta electrons
       nuclear repulsion energy       523.1875724889 Hartrees.
 NAtoms=   19 NActive=   19 NUniq=   19 SFac= 1.00D+00 NAtFMM=   60 NAOKFM=F Big=F
 Integral buffers will be    131072 words long.
 Raffenetti 2 integral format.
 Two-electron integral symmetry is turned on.
 One-electron integrals computed using PRISM.
 PrsmSu:  requested number of processors reduced to:   3 ShMem   1 Linda.
   1 Symmetry operations used in ECPInt.
 ECPInt:  NShTT=   22155 NPrTT=   57295 LenC2=   21814 LenP2D=   46906.
 LDataN:  DoStor=T MaxTD1= 6 Len=  172
 Number of processors reduced to   7 by ecpmxn.
 NBasis=   612 RedAO= T EigKep=  8.92D-06  NBF=   612
 NBsUse=   612 1.00D-06 EigRej= -1.00D+00 NBFU=   612
 ExpMin= 2.53D-02 ExpMax= 6.95D+04 ExpMxC= 2.37D+03 IAcc=3 IRadAn=         5 AccDes= 0.00D+00
 Harris functional with IExCor=  402 and IRadAn=       5 diagonalized for initial guess.
 HarFok:  IExCor=  402 AccDes= 0.00D+00 IRadAn=         5 IDoV= 1 UseB2=F ITyADJ=14
 ICtDFT=  3500011 ScaDFX=  1.000000  1.000000  1.000000  1.000000
 FoFCou: FMM=F IPFlag=           0 FMFlag=      100000 FMFlg1=           0
         NFxFlg=           0 DoJE=T BraDBF=F KetDBF=T FulRan=T
         wScrn=  0.000000 ICntrl=     500 IOpCl=  0 I1Cent=   200000004 NGrid=           0
         NMat0=    1 NMatS0=      1 NMatT0=    0 NMatD0=    1 NMtDS0=    0 NMtDT0=    0
 Petite list used in FoFCou.
 Requested convergence on RMS density matrix=1.00D-08 within 128 cycles.
 Requested convergence on MAX density matrix=1.00D-06.
 Requested convergence on             energy=1.00D-06.
 No special actions if energy rises.
 SCF Done:  E(RB3LYP) =  -845.046533358     A.U. after   13 cycles
            NFock= 13  Conv=0.48D-08     -V/T= 2.0038
 DoSCS=F DFT=T ScalE2(SS,OS)=  1.000000  1.000000
 Range of M.O.s used for correlation:     1   612
 NBasis=   612 NAE=    38 NBE=    38 NFC=     0 NFV=     0
 NROrb=    612 NOA=    38 NOB=    38 NVA=   574 NVB=   574

 **** Warning!!: The largest alpha MO coefficient is  0.45882590D+02

 PrsmSu:  requested number of processors reduced to:   3 ShMem   1 Linda.
 PrsmSu:  requested number of processors reduced to:   1 ShMem   1 Linda.
   1 Symmetry operations used in ECPInt.
 ECPInt:  NShTT=   22155 NPrTT=   57295 LenC2=   21814 LenP2D=   46906.
 LDataN:  DoStor=T MaxTD1= 7 Len=  274
 Number of processors reduced to   1 by ecpmxn.
 Symmetrizing basis deriv contribution to polar:
 IMax=3 JMax=2 DiffMx= 0.00D+00
 G2DrvN: will do     2 centers at a time, making   10 passes.
 Estimated number of processors is:    5
 Calling FoFCou, ICntrl=  3107 FMM=F I1Cent=   0 AccDes= 0.00D+00.
 CoulSu:  requested number of processors reduced to:   5 ShMem   1 Linda.
 Calling FoFCou, ICntrl=  3107 FMM=F I1Cent=   0 AccDes= 0.00D+00.
 CoulSu:  requested number of processors reduced to:   5 ShMem   1 Linda.
 Calling FoFCou, ICntrl=  3107 FMM=F I1Cent=   0 AccDes= 0.00D+00.
 CoulSu:  requested number of processors reduced to:   5 ShMem   1 Linda.
 Calling FoFCou, ICntrl=  3107 FMM=F I1Cent=   0 AccDes= 0.00D+00.
 CoulSu:  requested number of processors reduced to:   5 ShMem   1 Linda.
 Calling FoFCou, ICntrl=  3107 FMM=F I1Cent=   0 AccDes= 0.00D+00.
 CoulSu:  requested number of processors reduced to:   5 ShMem   1 Linda.
 Calling FoFCou, ICntrl=  3107 FMM=F I1Cent=   0 AccDes= 0.00D+00.
 CoulSu:  requested number of processors reduced to:   5 ShMem   1 Linda.
 Calling FoFCou, ICntrl=  3107 FMM=F I1Cent=   0 AccDes= 0.00D+00.
 CoulSu:  requested number of processors reduced to:   5 ShMem   1 Linda.
 Calling FoFCou, ICntrl=  3107 FMM=F I1Cent=   0 AccDes= 0.00D+00.
 CoulSu:  requested number of processors reduced to:   5 ShMem   1 Linda.
 Calling FoFCou, ICntrl=  3107 FMM=F I1Cent=   0 AccDes= 0.00D+00.
 CoulSu:  requested number of processors reduced to:   5 ShMem   1 Linda.
 Calling FoFCou, ICntrl=  3107 FMM=F I1Cent=   0 AccDes= 0.00D+00.
 CoulSu:  requested number of processors reduced to:   5 ShMem   1 Linda.
 End of G2Drv F.D. properties file   721 does not exist.
 End of G2Drv F.D. properties file   722 does not exist.
 End of G2Drv F.D. properties file   788 does not exist.
          IDoAtm=1111111111111111111
          Differentiating once with respect to nuclear coordinates.
 PrRfSu:  requested number of processors reduced to:   4 ShMem   1 Linda.
 PrRfSu:  requested number of processors reduced to:   4 ShMem   1 Linda.
 PrRfSu:  requested number of processors reduced to:   4 ShMem   1 Linda.
 PrRfSu:  requested number of processors reduced to:   4 ShMem   1 Linda.
 PrRfSu:  requested number of processors reduced to:   4 ShMem   1 Linda.
 PrRfSu:  requested number of processors reduced to:   4 ShMem   1 Linda.
 PrRfSu:  requested number of processors reduced to:   4 ShMem   1 Linda.
 PrRfSu:  requested number of processors reduced to:   4 ShMem   1 Linda.
 PrRfSu:  requested number of processors reduced to:   4 ShMem   1 Linda.
 PrRfSu:  requested number of processors reduced to:   4 ShMem   1 Linda.
          There are    60 degrees of freedom in the 1st order CPHF.  IDoFFX=6 NUNeed=     0.
     57 vectors produced by pass  0 Test12= 3.64D-14 1.67D-09 XBig12= 1.96D-01 8.77D-02.
 AX will form     6 AO Fock derivatives at one time.
 PrRfSu:  requested number of processors reduced to:   4 ShMem   1 Linda.
 PrRfSu:  requested number of processors reduced to:   4 ShMem   1 Linda.
 PrRfSu:  requested number of processors reduced to:   4 ShMem   1 Linda.
 PrRfSu:  requested number of processors reduced to:   4 ShMem   1 Linda.
 PrRfSu:  requested number of processors reduced to:   4 ShMem   1 Linda.
 PrRfSu:  requested number of processors reduced to:   4 ShMem   1 Linda.
 PrRfSu:  requested number of processors reduced to:   4 ShMem   1 Linda.
 PrRfSu:  requested number of processors reduced to:   4 ShMem   1 Linda.
 PrRfSu:  requested number of processors reduced to:   4 ShMem   1 Linda.
     57 vectors produced by pass  1 Test12= 3.64D-14 1.67D-09 XBig12= 6.73D-02 4.01D-02.
 PrRfSu:  requested number of processors reduced to:   4 ShMem   1 Linda.
 PrRfSu:  requested number of processors reduced to:   4 ShMem   1 Linda.
 PrRfSu:  requested number of processors reduced to:   4 ShMem   1 Linda.
 PrRfSu:  requested number of processors reduced to:   4 ShMem   1 Linda.
 PrRfSu:  requested number of processors reduced to:   4 ShMem   1 Linda.
 PrRfSu:  requested number of processors reduced to:   4 ShMem   1 Linda.
 PrRfSu:  requested number of processors reduced to:   4 ShMem   1 Linda.
 PrRfSu:  requested number of processors reduced to:   4 ShMem   1 Linda.
 PrRfSu:  requested number of processors reduced to:   4 ShMem   1 Linda.
     55 vectors produced by pass  2 Test12= 3.64D-14 1.67D-09 XBig12= 8.16D-04 3.43D-03.
 PrRfSu:  requested number of processors reduced to:   4 ShMem   1 Linda.
 PrRfSu:  requested number of processors reduced to:   4 ShMem   1 Linda.
 PrRfSu:  requested number of processors reduced to:   4 ShMem   1 Linda.
 PrRfSu:  requested number of processors reduced to:   4 ShMem   1 Linda.
 PrRfSu:  requested number of processors reduced to:   4 ShMem   1 Linda.
 PrRfSu:  requested number of processors reduced to:   4 ShMem   1 Linda.
 PrRfSu:  requested number of processors reduced to:   4 ShMem   1 Linda.
 PrRfSu:  requested number of processors reduced to:   4 ShMem   1 Linda.
 PrRfSu:  requested number of processors reduced to:   4 ShMem   1 Linda.
     54 vectors produced by pass  3 Test12= 3.64D-14 1.67D-09 XBig12= 4.26D-06 2.44D-04.
 PrRfSu:  requested number of processors reduced to:   4 ShMem   1 Linda.
 PrRfSu:  requested number of processors reduced to:   4 ShMem   1 Linda.
 PrRfSu:  requested number of processors reduced to:   4 ShMem   1 Linda.
 PrRfSu:  requested number of processors reduced to:   4 ShMem   1 Linda.
 PrRfSu:  requested number of processors reduced to:   4 ShMem   1 Linda.
 PrRfSu:  requested number of processors reduced to:   4 ShMem   1 Linda.
 PrRfSu:  requested number of processors reduced to:   4 ShMem   1 Linda.
 PrRfSu:  requested number of processors reduced to:   4 ShMem   1 Linda.
 PrRfSu:  requested number of processors reduced to:   4 ShMem   1 Linda.
     54 vectors produced by pass  4 Test12= 3.64D-14 1.67D-09 XBig12= 1.50D-08 1.70D-05.
 PrRfSu:  requested number of processors reduced to:   4 ShMem   1 Linda.
 PrRfSu:  requested number of processors reduced to:   4 ShMem   1 Linda.
 PrRfSu:  requested number of processors reduced to:   4 ShMem   1 Linda.
 PrRfSu:  requested number of processors reduced to:   4 ShMem   1 Linda.
 PrRfSu:  requested number of processors reduced to:   4 ShMem   1 Linda.
 PrRfSu:  requested number of processors reduced to:   4 ShMem   1 Linda.
 PrRfSu:  requested number of processors reduced to:   4 ShMem   1 Linda.
 PrRfSu:  requested number of processors reduced to:   4 ShMem   1 Linda.
 PrRfSu:  requested number of processors reduced to:   4 ShMem   1 Linda.
     54 vectors produced by pass  5 Test12= 3.64D-14 1.67D-09 XBig12= 2.98D-11 5.37D-07.
 PrRfSu:  requested number of processors reduced to:   4 ShMem   1 Linda.
 PrRfSu:  requested number of processors reduced to:   4 ShMem   1 Linda.
 PrRfSu:  requested number of processors reduced to:   4 ShMem   1 Linda.
 PrRfSu:  requested number of processors reduced to:   4 ShMem   1 Linda.
 PrRfSu:  requested number of processors reduced to:   4 ShMem   1 Linda.
 PrRfSu:  requested number of processors reduced to:   4 ShMem   1 Linda.
 PrRfSu:  requested number of processors reduced to:   4 ShMem   1 Linda.
 PrRfSu:  requested number of processors reduced to:   4 ShMem   1 Linda.
 PrRfSu:  requested number of processors reduced to:   4 ShMem   1 Linda.
     38 vectors produced by pass  6 Test12= 3.64D-14 1.67D-09 XBig12= 1.37D-13 2.73D-08.
 PrRfSu:  requested number of processors reduced to:   4 ShMem   1 Linda.
 PrRfSu:  requested number of processors reduced to:   4 ShMem   1 Linda.
 PrRfSu:  requested number of processors reduced to:   4 ShMem   1 Linda.
 PrRfSu:  requested number of processors reduced to:   4 ShMem   1 Linda.
 PrRfSu:  requested number of processors reduced to:   4 ShMem   1 Linda.
 PrRfSu:  requested number of processors reduced to:   4 ShMem   1 Linda.
      2 vectors produced by pass  7 Test12= 3.64D-14 1.67D-09 XBig12= 5.56D-15 5.75D-09.
 InvSVY:  IOpt=1 It=  1 EMax= 6.11D-16
 Solved reduced A of dimension   371 with    60 vectors.
 End of Minotr F.D. properties file   721 does not exist.
 End of Minotr F.D. properties file   722 does not exist.
 End of Minotr F.D. properties file   788 does not exist.

 **********************************************************************

            Population analysis using the SCF density.

 **********************************************************************

 Orbital symmetries:
       Occupied  (A) (A) (A) (A) (A) (A) (A) (A) (A) (A) (A) (A)
                 (A) (A) (A) (A) (A) (A) (A) (A) (A) (A) (A) (A)
                 (A) (A) (A) (A) (A) (A) (A) (A) (A) (A) (A) (A)
                 (A) (A)
       Virtual   (A) (A) (A) (A) (A) (A) (A) (A) (A) (A) (A) (A)
                 (A) (A) (A) (A) (A) (A) (A) (A) (A) (A) (A) (A)
                 (A) (A) (A) (A) (A) (A) (A) (A) (A) (A) (A) (A)
                 (A) (A) (A) (A) (A) (A) (A) (A) (A) (A) (A) (A)
                 (A) (A) (A) (A) (A) (A) (A) (A) (A) (A) (A) (A)
                 (A) (A) (A) (A) (A) (A) (A) (A) (A) (A) (A) (A)
                 (A) (A) (A) (A) (A) (A) (A) (A) (A) (A) (A) (A)
                 (A) (A) (A) (A) (A) (A) (A) (A) (A) (A) (A) (A)
                 (A) (A) (A) (A) (A) (A) (A) (A) (A) (A) (A) (A)
                 (A) (A) (A) (A) (A) (A) (A) (A) (A) (A) (A) (A)
                 (A) (A) (A) (A) (A) (A) (A) (A) (A) (A) (A) (A)
                 (A) (A) (A) (A) (A) (A) (A) (A) (A) (A) (A) (A)
                 (A) (A) (A) (A) (A) (A) (A) (A) (A) (A) (A) (A)
                 (A) (A) (A) (A) (A) (A) (A) (A) (A) (A) (A) (A)
                 (A) (A) (A) (A) (A) (A) (A) (A) (A) (A) (A) (A)
                 (A) (A) (A) (A) (A) (A) (A) (A) (A) (A) (A) (A)
                 (A) (A) (A) (A) (A) (A) (A) (A) (A) (A) (A) (A)
                 (A) (A) (A) (A) (A) (A) (A) (A) (A) (A) (A) (A)
                 (A) (A) (A) (A) (A) (A) (A) (A) (A) (A) (A) (A)
                 (A) (A) (A) (A) (A) (A) (A) (A) (A) (A) (A) (A)
                 (A) (A) (A) (A) (A) (A) (A) (A) (A) (A) (A) (A)
                 (A) (A) (A) (A) (A) (A) (A) (A) (A) (A) (A) (A)
                 (A) (A) (A) (A) (A) (A) (A) (A) (A) (A) (A) (A)
                 (A) (A) (A) (A) (A) (A) (A) (A) (A) (A) (A) (A)
                 (A) (A) (A) (A) (A) (A) (A) (A) (A) (A) (A) (A)
                 (A) (A) (A) (A) (A) (A) (A) (A) (A) (A) (A) (A)
                 (A) (A) (A) (A) (A) (A) (A) (A) (A) (A) (A) (A)
                 (A) (A) (A) (A) (A) (A) (A) (A) (A) (A) (A) (A)
                 (A) (A) (A) (A) (A) (A) (A) (A) (A) (A) (A) (A)
                 (A) (A) (A) (A) (A) (A) (A) (A) (A) (A) (A) (A)
                 (A) (A) (A) (A) (A) (A) (A) (A) (A) (A) (A) (A)
                 (A) (A) (A) (A) (A) (A) (A) (A) (A) (A) (A) (A)
                 (A) (A) (A) (A) (A) (A) (A) (A) (A) (A) (A) (A)
                 (A) (A) (A) (A) (A) (A) (A) (A) (A) (A) (A) (A)
                 (A) (A) (A) (A) (A) (A) (A) (A) (A) (A) (A) (A)
                 (A) (A) (A) (A) (A) (A) (A) (A) (A) (A) (A) (A)
                 (A) (A) (A) (A) (A) (A) (A) (A) (A) (A) (A) (A)
                 (A) (A) (A) (A) (A) (A) (A) (A) (A) (A) (A) (A)
                 (A) (A) (A) (A) (A) (A) (A) (A) (A) (A) (A) (A)
                 (A) (A) (A) (A) (A) (A) (A) (A) (A) (A) (A) (A)
                 (A) (A) (A) (A) (A) (A) (A) (A) (A) (A) (A) (A)
                 (A) (A) (A) (A) (A) (A) (A) (A) (A) (A) (A) (A)
                 (A) (A) (A) (A) (A) (A) (A) (A) (A) (A) (A) (A)
                 (A) (A) (A) (A) (A) (A) (A) (A) (A) (A) (A) (A)
                 (A) (A) (A) (A) (A) (A) (A) (A) (A) (A) (A) (A)
                 (A) (A) (A) (A) (A) (A) (A) (A) (A) (A) (A) (A)
                 (A) (A) (A) (A) (A) (A) (A) (A) (A) (A) (A) (A)
                 (A) (A) (A) (A) (A) (A) (A) (A) (A) (A)
 The electronic state is 1-A.
 Alpha  occ. eigenvalues -- -101.48101 -19.17859 -19.17351 -19.09310 -10.32495
 Alpha  occ. eigenvalues --  -10.24580 -10.24085 -10.18423  -9.41468  -7.17534
 Alpha  occ. eigenvalues --   -7.16794  -7.16777  -1.08260  -1.04004  -1.00031
 Alpha  occ. eigenvalues --   -0.81128  -0.74357  -0.71551  -0.70261  -0.57421
 Alpha  occ. eigenvalues --   -0.54894  -0.53788  -0.49831  -0.48189  -0.47058
 Alpha  occ. eigenvalues --   -0.46100  -0.44757  -0.43606  -0.41834  -0.40671
 Alpha  occ. eigenvalues --   -0.38651  -0.37373  -0.35943  -0.30973  -0.29611
 Alpha  occ. eigenvalues --   -0.28653  -0.26890  -0.26284
 Alpha virt. eigenvalues --   -0.02209  -0.00520   0.00096   0.00406   0.01593
 Alpha virt. eigenvalues --    0.01923   0.02107   0.02764   0.03529   0.04074
 Alpha virt. eigenvalues --    0.04920   0.05150   0.05280   0.06123   0.06444
 Alpha virt. eigenvalues --    0.06558   0.07681   0.07909   0.08332   0.08529
 Alpha virt. eigenvalues --    0.09299   0.09391   0.09757   0.10460   0.10515
 Alpha virt. eigenvalues --    0.10718   0.10945   0.11671   0.11917   0.12909
 Alpha virt. eigenvalues --    0.13369   0.13925   0.14832   0.14936   0.15097
 Alpha virt. eigenvalues --    0.15801   0.16424   0.17058   0.17540   0.18370
 Alpha virt. eigenvalues --    0.18797   0.19652   0.20540   0.21168   0.21404
 Alpha virt. eigenvalues --    0.21714   0.22581   0.23532   0.23933   0.24137
 Alpha virt. eigenvalues --    0.24865   0.25026   0.25481   0.26123   0.26516
 Alpha virt. eigenvalues --    0.26856   0.27275   0.27295   0.28554   0.29072
 Alpha virt. eigenvalues --    0.29341   0.29943   0.30351   0.30634   0.30978
 Alpha virt. eigenvalues --    0.31169   0.32141   0.32895   0.33059   0.33420
 Alpha virt. eigenvalues --    0.33864   0.34389   0.34607   0.35092   0.35119
 Alpha virt. eigenvalues --    0.35866   0.36416   0.36701   0.37178   0.38307
 Alpha virt. eigenvalues --    0.38468   0.38905   0.39550   0.39990   0.40622
 Alpha virt. eigenvalues --    0.41322   0.41703   0.42199   0.42350   0.43140
 Alpha virt. eigenvalues --    0.43558   0.43977   0.44461   0.45301   0.45966
 Alpha virt. eigenvalues --    0.46213   0.46600   0.47264   0.48385   0.48941
 Alpha virt. eigenvalues --    0.49526   0.50049   0.50889   0.51182   0.51805
 Alpha virt. eigenvalues --    0.52402   0.52975   0.54279   0.55221   0.55611
 Alpha virt. eigenvalues --    0.56751   0.57623   0.57840   0.59240   0.60479
 Alpha virt. eigenvalues --    0.61337   0.61795   0.62492   0.63280   0.64066
 Alpha virt. eigenvalues --    0.64887   0.65543   0.66396   0.67020   0.68078
 Alpha virt. eigenvalues --    0.68863   0.69449   0.69550   0.69798   0.71104
 Alpha virt. eigenvalues --    0.72175   0.72786   0.73337   0.73999   0.74769
 Alpha virt. eigenvalues --    0.75307   0.75700   0.75861   0.77223   0.77414
 Alpha virt. eigenvalues --    0.78253   0.78848   0.79486   0.80037   0.80315
 Alpha virt. eigenvalues --    0.80520   0.81546   0.81952   0.82450   0.83121
 Alpha virt. eigenvalues --    0.84201   0.84535   0.85370   0.85742   0.86526
 Alpha virt. eigenvalues --    0.87169   0.87610   0.88871   0.89049   0.90222
 Alpha virt. eigenvalues --    0.91084   0.92930   0.93348   0.94106   0.94403
 Alpha virt. eigenvalues --    0.94658   0.95096   0.96445   0.97145   0.97976
 Alpha virt. eigenvalues --    0.98524   0.98976   0.99405   1.00389   1.01095
 Alpha virt. eigenvalues --    1.02243   1.02403   1.03136   1.03535   1.04565
 Alpha virt. eigenvalues --    1.05413   1.05649   1.06112   1.06689   1.06992
 Alpha virt. eigenvalues --    1.07196   1.09048   1.09555   1.11000   1.12181
 Alpha virt. eigenvalues --    1.12869   1.13141   1.13895   1.14648   1.15290
 Alpha virt. eigenvalues --    1.15826   1.17241   1.17788   1.19612   1.20529
 Alpha virt. eigenvalues --    1.21678   1.22461   1.22642   1.24163   1.24743
 Alpha virt. eigenvalues --    1.25582   1.26412   1.27562   1.27934   1.29542
 Alpha virt. eigenvalues --    1.30356   1.30825   1.31057   1.32402   1.33004
 Alpha virt. eigenvalues --    1.33229   1.33803   1.35568   1.37178   1.38378
 Alpha virt. eigenvalues --    1.39428   1.40007   1.40959   1.41796   1.42171
 Alpha virt. eigenvalues --    1.42585   1.43647   1.43835   1.45313   1.45656
 Alpha virt. eigenvalues --    1.45954   1.47368   1.48484   1.48820   1.49092
 Alpha virt. eigenvalues --    1.50020   1.51436   1.52538   1.52591   1.53723
 Alpha virt. eigenvalues --    1.55044   1.55550   1.56280   1.56652   1.58063
 Alpha virt. eigenvalues --    1.58378   1.59168   1.59676   1.60170   1.61795
 Alpha virt. eigenvalues --    1.62413   1.63031   1.64324   1.64531   1.66575
 Alpha virt. eigenvalues --    1.66716   1.66883   1.68631   1.69269   1.70800
 Alpha virt. eigenvalues --    1.71791   1.72173   1.72920   1.73389   1.74317
 Alpha virt. eigenvalues --    1.76679   1.77379   1.79012   1.79453   1.80968
 Alpha virt. eigenvalues --    1.82163   1.82940   1.83797   1.84719   1.86141
 Alpha virt. eigenvalues --    1.88003   1.88470   1.89250   1.90996   1.91306
 Alpha virt. eigenvalues --    1.92484   1.92772   1.94830   1.96645   1.96814
 Alpha virt. eigenvalues --    1.98531   1.98942   1.99553   2.00224   2.00748
 Alpha virt. eigenvalues --    2.01825   2.02741   2.03901   2.04453   2.05469
 Alpha virt. eigenvalues --    2.06930   2.07807   2.10044   2.10919   2.11868
 Alpha virt. eigenvalues --    2.13819   2.16029   2.18123   2.19443   2.19733
 Alpha virt. eigenvalues --    2.22482   2.23005   2.24531   2.26768   2.28294
 Alpha virt. eigenvalues --    2.29938   2.32104   2.32760   2.34911   2.36184
 Alpha virt. eigenvalues --    2.36521   2.39450   2.40500   2.42944   2.44403
 Alpha virt. eigenvalues --    2.46285   2.47541   2.48029   2.50092   2.52634
 Alpha virt. eigenvalues --    2.54198   2.54830   2.57495   2.58428   2.60016
 Alpha virt. eigenvalues --    2.62758   2.63517   2.64871   2.67007   2.68342
 Alpha virt. eigenvalues --    2.69698   2.72303   2.74972   2.75535   2.77941
 Alpha virt. eigenvalues --    2.79267   2.80183   2.81983   2.85755   2.88237
 Alpha virt. eigenvalues --    2.90394   2.91249   2.92465   2.93556   2.96943
 Alpha virt. eigenvalues --    2.99046   3.01218   3.01828   3.02084   3.04186
 Alpha virt. eigenvalues --    3.07398   3.07830   3.10692   3.11461   3.15144
 Alpha virt. eigenvalues --    3.17230   3.18599   3.21759   3.23539   3.24496
 Alpha virt. eigenvalues --    3.27529   3.28649   3.30632   3.31491   3.32615
 Alpha virt. eigenvalues --    3.32855   3.35236   3.36203   3.36827   3.37739
 Alpha virt. eigenvalues --    3.38649   3.39478   3.41598   3.42156   3.43728
 Alpha virt. eigenvalues --    3.44785   3.46495   3.47325   3.49657   3.51632
 Alpha virt. eigenvalues --    3.51998   3.53750   3.54714   3.56401   3.57009
 Alpha virt. eigenvalues --    3.58090   3.58840   3.59950   3.62081   3.62573
 Alpha virt. eigenvalues --    3.63859   3.65671   3.67197   3.69073   3.70984
 Alpha virt. eigenvalues --    3.72915   3.73809   3.76616   3.77400   3.78347
 Alpha virt. eigenvalues --    3.80652   3.81452   3.83500   3.84964   3.86703
 Alpha virt. eigenvalues --    3.88237   3.88795   3.90117   3.91004   3.91909
 Alpha virt. eigenvalues --    3.93874   3.95473   3.96293   3.97511   3.98218
 Alpha virt. eigenvalues --    4.00743   4.02373   4.03330   4.05704   4.06779
 Alpha virt. eigenvalues --    4.07842   4.08427   4.10115   4.11296   4.13382
 Alpha virt. eigenvalues --    4.16152   4.17855   4.18175   4.19728   4.21430
 Alpha virt. eigenvalues --    4.22343   4.24174   4.26814   4.29062   4.31418
 Alpha virt. eigenvalues --    4.32353   4.34141   4.34817   4.36493   4.38895
 Alpha virt. eigenvalues --    4.40511   4.41561   4.42125   4.45037   4.46442
 Alpha virt. eigenvalues --    4.47859   4.48291   4.48962   4.50704   4.51486
 Alpha virt. eigenvalues --    4.52677   4.54002   4.55934   4.57600   4.58616
 Alpha virt. eigenvalues --    4.59133   4.61724   4.62604   4.65427   4.66958
 Alpha virt. eigenvalues --    4.71075   4.73339   4.73791   4.75523   4.76595
 Alpha virt. eigenvalues --    4.77863   4.79407   4.83443   4.84109   4.84929
 Alpha virt. eigenvalues --    4.88136   4.89136   4.90822   4.93524   4.94952
 Alpha virt. eigenvalues --    4.95893   5.00126   5.01038   5.03386   5.05135
 Alpha virt. eigenvalues --    5.07655   5.08539   5.11679   5.14052   5.15773
 Alpha virt. eigenvalues --    5.19424   5.20582   5.22027   5.24087   5.25871
 Alpha virt. eigenvalues --    5.28830   5.29937   5.33370   5.34686   5.38627
 Alpha virt. eigenvalues --    5.39090   5.42964   5.44038   5.51821   5.53755
 Alpha virt. eigenvalues --    5.60418   5.62725   5.65149   5.66259   5.68649
 Alpha virt. eigenvalues --    5.69719   5.72227   5.75307   5.78157   5.80697
 Alpha virt. eigenvalues --    5.81132   5.86654   5.98551   6.05184   6.13502
 Alpha virt. eigenvalues --    6.24582   6.31370   6.35076   6.36653   6.40519
 Alpha virt. eigenvalues --    6.40815   6.47549   6.56146   6.58088   6.63568
 Alpha virt. eigenvalues --    6.66461   6.68394   6.70847   6.70979   6.76004
 Alpha virt. eigenvalues --    6.77201   6.80853   6.82636   6.83895   6.87837
 Alpha virt. eigenvalues --    6.91330   6.95977   7.00932   7.01512   7.07843
 Alpha virt. eigenvalues --    7.10300   7.17079   7.19499   7.21805   7.24693
 Alpha virt. eigenvalues --    7.28346   7.29976   7.42686   7.45260   7.50022
 Alpha virt. eigenvalues --    7.58098   7.65368   7.72284   7.78952   7.83815
 Alpha virt. eigenvalues --    7.96997   8.12153   8.33919  11.03512  11.18332
 Alpha virt. eigenvalues --   11.65962  14.91792  15.48316  15.71817  16.59797
 Alpha virt. eigenvalues --   17.14970  17.68375  18.03994  26.85160
          Condensed to atoms (all electrons):
               1          2          3          4          5          6
     1  C    4.905228  -0.057222  -0.001010  -0.013218   0.002001  -0.291095
     2  C   -0.057222   5.431900   0.390809   0.338813   0.410789  -0.012057
     3  H   -0.001010   0.390809   0.426861  -0.011661  -0.005076   0.000190
     4  H   -0.013218   0.338813  -0.011661   0.363435  -0.005139   0.009404
     5  H    0.002001   0.410789  -0.005076  -0.005139   0.384227   0.010037
     6  C   -0.291095  -0.012057   0.000190   0.009404   0.010037   6.002450
     7  H   -0.069093   0.002902  -0.000489   0.000585   0.001768   0.425925
     8  H   -0.089538   0.003989   0.001184  -0.001474   0.003744   0.452281
     9  H    0.139451  -0.003032   0.002128  -0.002353  -0.006457   0.260894
    10  O    0.029349   0.027129  -0.027298   0.006518  -0.039581  -0.061747
    11  O    0.000491   0.031156  -0.014571  -0.007286   0.009791  -0.033937
    12  C   -0.001454  -0.003489   0.004592   0.005248  -0.001283   0.000018
    13  H    0.000504   0.000777  -0.000091   0.000645   0.000051  -0.000326
    14  H    0.001525  -0.000375   0.001915   0.000299  -0.000544   0.000421
    15  H    0.001367   0.002181   0.000726  -0.002720   0.001663   0.000721
    16  H    0.000386   0.004797  -0.001083  -0.001552   0.000231  -0.000131
    17  H   -0.008878  -0.015167   0.005345   0.011932   0.002312   0.003708
    18  Cl   0.562060  -0.010609   0.001756   0.000545  -0.000078  -0.092294
    19  O    0.074415   0.052524   0.018851  -0.009005   0.004594   0.035039
               7          8          9         10         11         12
     1  C   -0.069093  -0.089538   0.139451   0.029349   0.000491  -0.001454
     2  C    0.002902   0.003989  -0.003032   0.027129   0.031156  -0.003489
     3  H   -0.000489   0.001184   0.002128  -0.027298  -0.014571   0.004592
     4  H    0.000585  -0.001474  -0.002353   0.006518  -0.007286   0.005248
     5  H    0.001768   0.003744  -0.006457  -0.039581   0.009791  -0.001283
     6  C    0.425925   0.452281   0.260894  -0.061747  -0.033937   0.000018
     7  H    0.463870   0.017057  -0.054790   0.004908   0.000792   0.000029
     8  H    0.017057   0.435330  -0.044857  -0.018529  -0.001725  -0.000118
     9  H   -0.054790  -0.044857   0.540589  -0.016396  -0.000176  -0.001025
    10  O    0.004908  -0.018529  -0.016396   8.660438  -0.213802   0.001092
    11  O    0.000792  -0.001725  -0.000176  -0.213802   8.557597   0.011084
    12  C    0.000029  -0.000118  -0.001025   0.001092   0.011084   5.327357
    13  H   -0.000013  -0.000100  -0.000082  -0.005205   0.001628   0.390316
    14  H   -0.000044   0.000042  -0.000253   0.005166  -0.034535   0.423829
    15  H   -0.000011   0.000095   0.000460  -0.016059   0.002032   0.350698
    16  H   -0.001206   0.000069   0.001794   0.052732   0.070029   0.007459
    17  H    0.000991  -0.000503   0.000726   0.104761   0.051896   0.017412
    18  Cl  -0.014409  -0.021634   0.021937  -0.155323  -0.015714   0.001862
    19  O   -0.009482   0.014110  -0.014669  -0.134870  -0.075879   0.022824
              13         14         15         16         17         18
     1  C    0.000504   0.001525   0.001367   0.000386  -0.008878   0.562060
     2  C    0.000777  -0.000375   0.002181   0.004797  -0.015167  -0.010609
     3  H   -0.000091   0.001915   0.000726  -0.001083   0.005345   0.001756
     4  H    0.000645   0.000299  -0.002720  -0.001552   0.011932   0.000545
     5  H    0.000051  -0.000544   0.001663   0.000231   0.002312  -0.000078
     6  C   -0.000326   0.000421   0.000721  -0.000131   0.003708  -0.092294
     7  H   -0.000013  -0.000044  -0.000011  -0.001206   0.000991  -0.014409
     8  H   -0.000100   0.000042   0.000095   0.000069  -0.000503  -0.021634
     9  H   -0.000082  -0.000253   0.000460   0.001794   0.000726   0.021937
    10  O   -0.005205   0.005166  -0.016059   0.052732   0.104761  -0.155323
    11  O    0.001628  -0.034535   0.002032   0.070029   0.051896  -0.015714
    12  C    0.390316   0.423829   0.350698   0.007459   0.017412   0.001862
    13  H    0.343263  -0.000196   0.005439  -0.003782  -0.004084  -0.000139
    14  H   -0.000196   0.374941  -0.010394   0.009958   0.004069   0.001539
    15  H    0.005439  -0.010394   0.340898   0.004582  -0.004477   0.000278
    16  H   -0.003782   0.009958   0.004582   0.585337   0.000047  -0.016020
    17  H   -0.004084   0.004069  -0.004477   0.000047   0.584924   0.009478
    18  Cl  -0.000139   0.001539   0.000278  -0.016020   0.009478  16.980671
    19  O    0.001798   0.002073   0.006362   0.068569  -0.010430  -0.070313
              19
     1  C    0.074415
     2  C    0.052524
     3  H    0.018851
     4  H   -0.009005
     5  H    0.004594
     6  C    0.035039
     7  H   -0.009482
     8  H    0.014110
     9  H   -0.014669
    10  O   -0.134870
    11  O   -0.075879
    12  C    0.022824
    13  H    0.001798
    14  H    0.002073
    15  H    0.006362
    16  H    0.068569
    17  H   -0.010430
    18  Cl  -0.070313
    19  O    8.929001
 Mulliken charges:
               1
     1  C    0.814731
     2  C   -0.595817
     3  H    0.206922
     4  H    0.316985
     5  H    0.226950
     6  C   -0.709501
     7  H    0.230709
     8  H    0.250575
     9  H    0.176112
    10  O   -0.203281
    11  O   -0.338873
    12  C   -0.556449
    13  H    0.269596
    14  H    0.220564
    15  H    0.316159
    16  H    0.217786
    17  H    0.245937
    18  Cl  -0.183593
    19  O   -0.905512
 Sum of Mulliken charges =   0.00000
 Mulliken charges with hydrogens summed into heavy atoms:
               1
     1  C    0.814731
     2  C    0.155040
     6  C   -0.052105
    10  O   -0.203281
    11  O    0.124850
    12  C    0.249870
    18  Cl  -0.183593
    19  O   -0.905512
 APT charges:
               1
     1  C    0.382107
     2  C   -1.578696
     3  H    0.641215
     4  H    0.414682
     5  H    0.623063
     6  C   -1.737732
     7  H    0.587018
     8  H    0.535531
     9  H    0.619830
    10  O   -0.183421
    11  O   -0.302616
    12  C   -1.628865
    13  H    0.672230
    14  H    0.818182
    15  H    0.324061
    16  H    0.363479
    17  H    0.320838
    18  Cl  -0.084857
    19  O   -0.786049
 Sum of APT charges =   0.00000
 APT charges with hydrogens summed into heavy atoms:
               1
     1  C    0.382107
     2  C    0.100265
     6  C    0.004647
    10  O   -0.183421
    11  O    0.381701
    12  C    0.185607
    18  Cl  -0.084857
    19  O   -0.786049
 Electronic spatial extent (au):  <R**2>=           1338.1913
 Charge=              0.0000 electrons
 Dipole moment (field-independent basis, Debye):
    X=             -2.8715    Y=              3.7534    Z=             -0.3644  Tot=              4.7398
 Quadrupole moment (field-independent basis, Debye-Ang):
   XX=            -47.8352   YY=            -56.5034   ZZ=            -61.5070
   XY=              2.8197   XZ=              1.1386   YZ=             -2.2564
 Traceless Quadrupole moment (field-independent basis, Debye-Ang):
   XX=              7.4466   YY=             -1.2215   ZZ=             -6.2251
   XY=              2.8197   XZ=              1.1386   YZ=             -2.2564
 Octapole moment (field-independent basis, Debye-Ang**2):
  XXX=            -25.5509  YYY=              7.5308  ZZZ=             -7.5864  XYY=             -3.5859
  XXY=              3.6750  XXZ=              6.0636  XZZ=             -5.7445  YZZ=             -0.4762
  YYZ=             -0.3778  XYZ=              3.2039
 Hexadecapole moment (field-independent basis, Debye-Ang**3):
 XXXX=           -911.7054 YYYY=           -526.0517 ZZZZ=           -246.4486 XXXY=             20.8548
 XXXZ=              3.0761 YYYX=              2.3857 YYYZ=             -4.4850 ZZZX=              1.9862
 ZZZY=             -2.5801 XXYY=           -257.3709 XXZZ=           -191.4556 YYZZ=           -122.3523
 XXYZ=             -9.2800 YYXZ=             -5.0543 ZZXY=              2.0695
 N-N= 5.231875724889D+02 E-N=-3.042646427322D+03  KE= 8.418495716573D+02
  Exact polarizability:   0.000   0.000   0.000   0.000   0.000   0.000
 Approx polarizability: 127.595  -3.428 131.744  -4.471   6.691 123.435
 PrsmSu:  requested number of processors reduced to:   4 ShMem   1 Linda.
 PrsmSu:  requested number of processors reduced to:   4 ShMem   1 Linda.
   1 Symmetry operations used in ECPInt.
 ECPInt:  NShTT=   22155 NPrTT=   57295 LenC2=   21814 LenP2D=   46906.
 LDataN:  DoStor=T MaxTD1= 8 Len=  415
 Calling FoFJK, ICntrl=    100147 FMM=F ISym2X=0 I1Cent= 0 IOpClX= 0 NMat=1 NMatS=1 NMatT=0.
 CoulSu:  requested number of processors reduced to:   4 ShMem   1 Linda.
 ***** Axes restored to original set *****
 -------------------------------------------------------------------
 Center     Atomic                   Forces (Hartrees/Bohr)
 Number     Number              X              Y              Z
 -------------------------------------------------------------------
      1        6          -0.033428006   -0.011304888    0.000029807
      2        6           0.008113184   -0.007181716   -0.004491632
      3        1           0.002366341    0.002974662    0.004684883
      4        1           0.000090471    0.001353429   -0.003622407
      5        1          -0.006808165    0.001418931    0.001573615
      6        6           0.019176932    0.010171913    0.004593969
      7        1          -0.009671176    0.002672592   -0.004167688
      8        1          -0.004972903   -0.003280138    0.005742617
      9        1          -0.002261666   -0.004950896   -0.002836838
     10        8          -0.021513861    0.011186990   -0.018667697
     11        8           0.011226998    0.012289967    0.015955559
     12        6           0.003183603   -0.012694344   -0.004966079
     13        1          -0.001320592    0.001885410    0.007352138
     14        1          -0.000890024    0.007176896   -0.003044330
     15        1          -0.002033904   -0.002058618   -0.001378703
     16        1          -0.005732474    0.016378418   -0.037513819
     17        1           0.014879399   -0.009103643    0.021115207
     18       17           0.013455153   -0.015096776   -0.004592593
     19        8           0.016140688   -0.001838188    0.024233992
 -------------------------------------------------------------------
 Cartesian Forces:  Max     0.037513819 RMS     0.011650287
 FormGI is forming the generalized inverse of G from B-inverse, IUseBI=4.

 GradGradGradGradGradGradGradGradGradGradGradGradGradGradGradGradGradGrad
 Berny optimization.
 Internal  Forces:  Max     0.024045123 RMS     0.006724257
 Search for a saddle point.
 Step number   1 out of a maximum of   99
 All quantities printed in internal units (Hartrees-Bohrs-Radians)
 Swapping is turned off.
 Second derivative matrix not updated -- analytic derivatives used.
 ITU=  0
     Eigenvalues ---   -0.05507   0.00036   0.00156   0.00230   0.00270
     Eigenvalues ---    0.00345   0.00524   0.01124   0.02148   0.02784
     Eigenvalues ---    0.03128   0.04218   0.04359   0.05304   0.05863
     Eigenvalues ---    0.06197   0.06277   0.06330   0.06362   0.07108
[...]
 00265022,-0.07741418,0.00950779,0.07137267,0.00920058,-0.00450877,-0.0
 2190854,0.07629116,-0.00026489,0.00226209,-0.00576929,0.00967706,-0.05
 513307,-0.03078457,-0.00313484,0.00249467,0.00510062,-0.01697792,0.068
 18862,-0.00231949,0.00193335,-0.00263492,0.07369942,-0.03650800,-0.271
 92234,0.00711786,-0.00199530,-0.01790579,-0.08182533,0.04682543,0.2915
 8709,-0.00011107,0.00045583,-0.00081353,-0.23164501,-0.11723185,0.0475
 3168,-0.01795711,-0.01110536,0.00577844,-0.00678993,-0.00400124,0.0008
 2878,0.24322847,-0.00370342,0.00107193,-0.00282597,-0.10902776,-0.1150
 8022,0.02952635,0.00456699,0.00543227,-0.00210783,0.00358092,0.0051484
 8,0.00004032,0.12371478,0.14196128,0.00160485,0.00087058,-0.00023263,0
 .04765867,0.02996166,-0.06397784,-0.01827056,-0.01177449,0.00562449,0.
 02570347,0.01552860,-0.00505104,-0.04985958,-0.03060115,0.06043456,-0.
 13736808,-0.05669678,-0.01586048,-0.00120410,-0.00139493,-0.00139955,0
 .00004352,-0.00018759,0.00006234,-0.00032255,0.00018458,0.00002529,-0.
 00033720,0.00006314,-0.00021021,0.51124511,-0.06598105,-0.11429048,-0.
 01481513,-0.00008424,0.00317257,0.00084243,0.00009826,-0.00036358,-0.0
 0034084,0.00036726,-0.00033638,-0.00026119,0.00033890,0.00000113,0.000
 09591,-0.04751851,0.53479258,-0.01935108,-0.01388392,-0.07320513,-0.00
 160221,-0.00084063,-0.00126110,-0.00016047,-0.00013124,-0.00021687,0.0
 0051169,0.00057973,-0.00009962,-0.00112244,0.00053203,0.00039482,-0.03
 218088,-0.02094040,0.58520187,-0.01855373,0.01453777,-0.01567909,0.000
 38752,-0.00147125,0.00028256,0.00006920,0.00012117,-0.00003395,0.00008
 699,0.00011984,0.00002352,0.00010222,0.00018465,0.00006026,-0.15538532
 ,0.08555052,-0.10113852,0.16864046,-0.01246064,0.00876603,-0.01096264,
 0.00016291,-0.00156912,0.00030942,0.00020980,0.00041576,0.00008279,-0.
 00019844,0.00008924,0.00014501,0.00040251,0.00032268,-0.00024909,0.088
 43459,-0.11336996,0.08240206,-0.09289032,0.12227754,-0.00481344,0.0032
 8813,-0.00529344,0.00042302,-0.00061764,-0.00006428,0.00004451,0.00014
 031,0.00008216,-0.00020513,0.00001874,0.00012351,0.00020712,-0.0001456
 4,-0.00006479,-0.10156234,0.08031527,-0.13802049,0.11226446,-0.0870088
 4,0.14730611,-0.01086786,-0.00301634,0.02576240,-0.00079085,-0.0001495
 7,0.00030194,0.00013133,0.00014761,-0.00004120,0.00017251,-0.00003649,
 -0.00008436,-0.00019644,0.00055123,-0.00016752,-0.10314099,-0.03133331
 ,0.10401911,0.01146422,0.00469295,-0.01777298,0.11153227,-0.00524898,-
 0.00412543,0.01963932,0.00039134,0.00057465,-0.00039939,-0.00017571,-0
 .00011630,0.00010791,-0.00005571,-0.00001434,0.00007814,0.00003685,-0.
 00018592,0.00018654,-0.03017169,-0.06420734,0.05297891,-0.00812170,-0.
 00426911,0.01256415,0.03523017,0.06570250,-0.00336662,-0.00249056,0.00
 396003,-0.00010872,0.00033834,-0.00017482,-0.00013888,-0.00011085,0.00
 006625,-0.00009453,-0.00004233,0.00001960,-0.00014481,-0.00020105,0.00
 014133,0.10921197,0.05776364,-0.24709819,0.00887075,0.00339164,-0.0146
 1306,-0.11647230,-0.06152680,0.26494088,0.00746690,-0.02128334,-0.0117
 9251,-0.00064623,0.00044371,-0.00161179,-0.00020605,-0.00002046,0.0001
 0663,-0.00059972,0.00021176,-0.00006441,-0.00053562,0.00011941,-0.0002
 3697,-0.07379702,0.06549142,0.04119728,-0.00596912,0.01603160,0.011326
 09,-0.00471112,0.01211021,0.00467251,0.07743269,0.00849016,-0.01783634
 ,-0.00998703,0.00057691,-0.00042010,0.00034064,0.00011308,0.00036323,0
 .00028231,-0.00015721,0.00006292,0.00033849,0.00052980,0.00013643,0.00
 013795,0.06335713,-0.22245374,-0.10353519,0.00413483,-0.01236842,-0.00
 774183,-0.00235224,0.00885242,0.00406352,-0.07202668,0.24297789,0.0022
 0610,-0.00606628,-0.00489964,-0.00048204,-0.00099718,-0.00019270,0.000
 23345,0.00042591,0.00015788,-0.00035217,0.00004522,0.00026697,0.000074
 20,0.00035440,-0.00082508,0.04008050,-0.10402784,-0.10929766,-0.004717
 30,0.01568338,0.01035289,0.00644853,-0.02214508,-0.01061019,-0.0423459
 8,0.11599976,0.11423224,-0.04113712,-0.05133464,0.03791813,-0.08529649
 ,0.01665362,-0.00904458,-0.00340194,0.03226282,0.00546427,-0.00055471,
 0.01442837,0.00159608,0.01395776,-0.02460915,-0.00570423,-0.01910705,0
 .01786960,-0.02310002,-0.00461295,-0.00545860,-0.00224170,0.00158714,0
 .00119018,0.00027686,0.00102788,-0.00016209,-0.00024097,0.17717170,-0.
 02912859,-0.03539223,-0.02620212,0.01818240,-0.18698466,-0.02770865,0.
 00860917,-0.02464347,-0.00005259,0.00947331,-0.02390841,-0.00986457,0.
 00574504,-0.03879100,-0.00376099,-0.00440472,0.00601247,-0.00562278,-0
 .00199181,-0.00078887,-0.00108502,0.00136935,0.00019763,0.00001028,0.0
 0101477,0.00046325,0.00099915,-0.00553227,0.37960982,0.02185464,-0.052
 86675,-0.01102936,-0.01094612,-0.02012194,-0.08190002,-0.00380942,0.02
 680045,0.00647650,0.00546913,-0.03332222,0.00365017,-0.00232295,0.0044
 8692,0.00369857,-0.01280203,0.01035948,-0.00988884,-0.00185240,-0.0027
 4715,0.00030047,-0.00088558,-0.00036653,0.00080645,0.00117894,0.000340
 51,0.00000995,-0.01005827,0.01478623,0.16389241,0.01390474,-0.00448738
 ,-0.01978140,-0.00829676,0.00891741,0.00194841,0.00061167,-0.00111957,
 0.00085494,0.00015079,-0.00117781,-0.00149701,0.00065129,-0.00360459,-
 0.00064799,-0.00219462,0.00000023,0.00255293,0.00005623,-0.00007853,-0
 .00008847,-0.00059884,-0.00074395,0.00015296,0.00028410,0.00006628,0.0
 0010278,-0.04475270,-0.05137944,0.02023621,0.46141707,0.00299530,-0.01
 051129,0.01220715,-0.00332927,0.00816779,0.00005855,0.00052310,-0.0002
 5023,0.00029872,0.00060981,-0.00079609,-0.00068684,0.00033961,-0.00188
 018,-0.00023778,-0.00067247,0.00155155,-0.00179499,-0.00054729,-0.0003
 9532,-0.00036300,0.00057355,0.00008279,-0.00002508,0.00012111,0.000019
 26,0.00015279,-0.05604117,-0.02370295,0.01104602,-0.01863158,0.1915183
 7,0.00391299,0.01260235,-0.04484918,0.00538975,-0.00435206,0.00036446,
 -0.00036422,-0.00063839,-0.00017362,-0.00045861,0.00088041,0.00034582,
 -0.00033218,0.00229809,0.00006312,-0.00082413,-0.00316534,0.00593127,0
 .00103004,0.00061902,0.00048506,-0.00153681,-0.00109552,0.00002635,0.0
 0000411,0.00014704,-0.00012805,0.04614528,0.02352641,0.01139059,0.0099
 4998,-0.00934843,0.27509283,-0.00401831,0.00048587,0.00260318,0.000802
 46,-0.00446459,-0.00023509,-0.00019118,0.00027809,-0.00033571,-0.00008
 078,0.00026518,0.00060564,-0.00014543,0.00059631,0.00012744,0.00053462
 ,-0.00006140,-0.00026370,0.00007583,0.00007566,0.00001065,0.00013533,0
 .00016736,-0.00001238,-0.00002887,0.00010017,0.00000201,0.00917611,0.0
 0611005,-0.00163311,-0.17736004,0.04017514,0.02369174,0.46858072,0.001
 68654,-0.00082867,0.00037162,-0.00185001,0.00205032,0.00085166,0.00009
 272,-0.00013467,0.00024203,-0.00019849,-0.00044825,-0.00051166,0.00019
 750,-0.00084699,-0.00028293,-0.00021862,0.00019565,0.00006031,-0.00005
 492,-0.00004693,-0.00003847,-0.00000325,-0.00006595,0.00001589,0.00000
 016,-0.00005230,-0.00000130,-0.00813288,-0.00946229,0.00198476,0.05054
 510,-0.09042431,-0.00242230,0.04780840,0.56697934,0.00165164,0.0010301
 9,-0.00520726,0.00071774,0.00153001,0.00061854,0.00005891,-0.00000564,
 0.00019435,-0.00022529,-0.00016862,-0.00048078,0.00011777,0.00011038,-
 0.00021697,-0.00022275,-0.00010157,0.00051453,0.00006058,-0.00001693,0
 .00003470,-0.00017287,-0.00011402,0.00006648,-0.00000420,-0.00001006,-
 0.00002812,0.00097149,0.00153253,0.00112594,0.03676059,-0.00580761,-0.
 09915748,0.03872651,-0.02155319,0.59041668,0.00096493,0.00048029,-0.00
 235603,-0.00016665,0.00048419,-0.00009634,0.00004269,-0.00017237,0.000
 11158,-0.00000746,-0.00001894,-0.00004468,0.00005951,-0.00007460,0.000
 03597,-0.00010162,-0.00006567,0.00025135,0.00002648,0.00000239,0.00001
 493,-0.00008223,-0.00005263,0.00002305,0.00000947,0.00000156,-0.000010
 26,-0.00025592,-0.00081249,0.00077507,-0.03313428,0.00952109,-0.026829
 65,-0.11076751,0.01462531,-0.10812738,0.13412082,-0.00032686,0.0000899
 1,0.00044769,-0.00002497,-0.00005877,-0.00023557,-0.00003597,-0.000054
 65,0.00010949,0.00002735,0.00005288,0.00001119,0.00004192,0.00000927,0
 .00005172,0.00006501,-0.00001622,-0.00005943,0.00000178,0.00000328,0.0
 0000110,0.00001681,0.00002653,-0.00000335,-0.00000413,0.00000117,-0.00
 000937,0.00027277,0.00012000,0.00005691,0.01232544,-0.00137189,0.01013
 339,0.01483989,-0.05601318,0.02781078,-0.02417780,0.05394904,0.0001347
 8,-0.00004832,0.00019187,-0.00009427,0.00010534,-0.00013000,-0.0000219
 6,-0.00004602,0.00007196,0.00001532,0.00001946,-0.00001085,0.00002471,
 -0.00003385,0.00003522,-0.00001376,-0.00000209,-0.00004545,-0.00000227
 ,-0.00000417,-0.00000263,0.00000900,0.00001105,-0.00000815,0.00000117,
 -0.00000102,-0.00000465,-0.00039380,-0.00029374,-0.00005374,0.00828707
 ,-0.00300664,0.01507992,-0.11860338,0.03210716,-0.25043289,0.12341333,
 -0.03276549,0.26094790,0.00077928,-0.00066029,0.00093743,-0.00072100,0
 .00052740,0.00001751,0.00002336,-0.00005599,0.00007381,0.00001988,-0.0
 0007689,-0.00006104,0.00005697,-0.00031124,-0.00000518,-0.00008701,0.0
 0011410,-0.00007547,-0.00004386,-0.00002178,-0.00002238,0.00002227,-0.
 00000449,0.00000089,0.00001716,-0.00000830,0.00001397,-0.00329339,-0.0
 0307391,0.00031048,-0.03150015,-0.01896311,0.02535178,-0.09276002,-0.0
 7754358,0.05691047,0.00969843,0.01184796,-0.00840579,0.11369791,-0.000
 01391,0.00001545,-0.00006650,0.00020822,-0.00055931,-0.00014041,-0.000
 00374,0.00007450,-0.00014409,0.00004774,0.00011009,0.00021480,-0.00009
 935,0.00014240,0.00008797,0.00000234,-0.00002566,-0.00000463,0.0000034
 6,0.00001119,0.00000835,0.00000184,-0.00000336,-0.00000229,0.00000748,
 0.00000464,0.00001517,0.00125118,0.00142791,-0.00039778,0.01076159,0.0
 1430577,-0.01177349,-0.08548839,-0.18937811,0.10930137,-0.00109312,-0.
 00181188,0.00086153,0.08553238,0.19532737,-0.00039194,0.00021971,0.000
 00396,0.00015989,-0.00032953,-0.00020294,-0.00000064,-0.00002120,-0.00
 001785,0.00001615,0.00007486,0.00012922,-0.00002771,0.00008474,0.00009
 882,0.00005437,-0.00003302,-0.00001369,0.00001007,0.00000876,0.0000083
 7,0.00000673,0.00001136,-0.00000212,-0.00000373,0.00000027,-0.00000168
 ,0.00103409,0.00098078,-0.00025655,0.00977893,0.00331959,-0.00315925,0
 .06222177,0.10479622,-0.13417938,0.01152249,0.02012935,-0.01377954,-0.
 07410640,-0.11432227,0.13942235,-0.00019580,0.00023699,0.00059997,-0.0
 0019742,0.00045000,0.00037088,0.00002817,-0.00005116,-0.00001468,-0.00
 013170,-0.00028921,-0.00011423,0.00004268,-0.00010103,-0.00012038,-0.0
 0000550,-0.00000349,0.00000356,-0.00000195,-0.00001070,-0.00000102,-0.
 00000658,0.00000103,-0.00000505,-0.00001701,-0.00003148,-0.00001983,-0
 .00085099,-0.00081895,-0.00014404,-0.01284385,0.03446150,0.02162707,-0
 .05404929,-0.02929202,-0.01780234,0.00035584,-0.01438966,-0.00645498,0
 .00054851,-0.01062485,-0.00818875,0.06173168,-0.00015938,-0.00004513,-
 0.00031874,0.00005260,-0.00066744,-0.00007252,-0.00004983,0.00001949,-
 0.00007289,-0.00008365,0.00007380,0.00018016,-0.00007400,0.00009224,0.
 00007890,0.00002090,-0.00001914,-0.00000084,0.00001088,0.00000709,0.00
 000205,-0.00000076,0.00000993,-0.00000677,0.00000390,0.00002759,0.0000
 0512,0.00134174,0.00099907,-0.00035003,0.01151630,-0.00576015,-0.00598
 102,-0.02349432,-0.23853382,-0.10949319,-0.00081001,0.00585363,0.00296
 307,-0.00368542,-0.01778848,-0.01226808,0.01810653,0.25702091,-0.00010
 123,-0.00057464,0.00111058,0.00014301,-0.00069311,-0.00018173,0.000030
 33,0.00013489,-0.00029557,0.00013282,0.00013040,0.00035704,-0.00015790
 ,0.00013796,0.00010602,0.00000776,0.00006500,-0.00012104,-0.00002128,0
 .00000343,-0.00001081,0.00004365,0.00001937,-0.00001071,0.00001353,0.0
 0001722,0.00003387,0.00024052,0.00100124,-0.00048595,0.00745070,-0.006
 90073,-0.00187873,-0.01395002,-0.10959486,-0.11925247,-0.00327120,-0.0
 2379640,-0.01177469,0.00113658,0.01578146,0.01115716,0.00951053,0.1249
 5780,0.12203956,-0.03063729,-0.01692613,0.05858132,-0.00119757,-0.0013
 6660,-0.00169483,-0.00018028,0.00140577,-0.00038450,0.00063213,-0.0000
 3805,0.00069882,-0.00009592,-0.00045901,0.00015647,0.00334484,0.002791
 06,-0.00620164,-0.00087234,-0.00037972,-0.00043893,0.00190739,0.001286
 59,-0.00030715,-0.00020697,-0.00027306,0.00000722,-0.02381700,-0.00158
 594,-0.01124964,-0.07099009,-0.00577917,-0.01630500,-0.02751733,0.0053
 2292,-0.00763089,0.00201893,-0.00086692,0.00122832,0.00099055,-0.00036
 943,-0.00098300,0.00296074,-0.00154372,-0.00179943,0.06313806,-0.01101
 656,-0.00423961,0.01496879,-0.00002929,-0.00150272,0.00012647,-0.00006
 938,0.00038026,-0.00009648,0.00000016,-0.00031582,0.00011535,0.0000655
 1,0.00014301,-0.00012325,-0.00002953,0.00109482,-0.00060879,-0.0002216
 4,-0.00004666,-0.00016551,0.00007869,0.00049697,-0.00005675,0.00006827
 ,-0.00000058,-0.00009397,-0.00431669,0.00115327,-0.00539328,0.00062747
 ,-0.03296430,-0.00730682,0.00626158,-0.00199377,0.01136996,0.00295591,
 -0.00109639,-0.00106105,-0.00090215,0.00041829,-0.00052307,0.00080573,
 -0.00034127,0.00044103,-0.01805494,0.05459875,0.00152879,-0.00044604,0
 .04621881,-0.00142989,0.00020280,-0.00083435,-0.00008711,0.00079175,-0
 .00025782,0.00051808,-0.00023303,0.00033342,-0.00004726,-0.00069422,0.
 00002801,0.00273450,0.00208249,-0.00629149,-0.00061856,-0.00039301,-0.
 00023883,0.00173687,0.00132151,0.00003751,-0.00019329,-0.00019179,0.00
 000168,-0.01566936,-0.00143700,-0.00800246,-0.05538692,-0.00459578,-0.
 13032172,-0.00103387,0.00215648,0.02073646,0.00660649,-0.00243675,-0.0
 0088229,0.00144577,0.00031061,-0.00032028,0.00206524,-0.00205020,-0.00
 085887,0.00773590,-0.02539357,0.15378830,-0.01962260,0.01926951,-0.039
 09765,0.01771202,-0.00945644,-0.00070835,-0.00065781,0.00122382,-0.001
 09086,-0.00098045,0.00286413,0.00188966,-0.00056194,0.00746921,0.00086
 191,0.00128272,-0.00276470,0.00315473,0.00108450,0.00051176,0.00061439
 ,-0.00096225,-0.00031128,0.00006850,-0.00029938,0.00002250,-0.00033595
 ,-0.00412693,0.02009243,0.00445124,-0.02971534,0.01628890,-0.02233571,
 -0.02276016,0.00065452,0.00777871,0.00115627,-0.00102046,0.00032299,0.
 00307973,-0.00001488,-0.00161960,0.00269428,-0.00204505,-0.00087702,0.
 03778678,0.00897607,0.01447256,0.03713331,-0.00360777,0.02707623,-0.02
 978294,-0.00472517,-0.02200032,0.00157440,-0.00069505,0.00036760,-0.00
 007072,-0.00103196,0.00192953,0.00093990,0.00100520,0.00217569,0.00000
 156,0.00234239,-0.00401269,0.00402252,0.00137354,0.00092797,0.00085824
 ,-0.00102047,-0.00033021,0.00004182,-0.00036761,-0.00012869,-0.0003170
 5,0.04521369,-0.01513101,0.00720224,0.00151136,-0.06184132,0.01326667,
 -0.00491805,0.01962596,-0.01104870,0.00074577,-0.00017697,0.00078638,0
 .00702373,-0.00223522,-0.00219984,0.00234999,-0.00146203,-0.00164205,0
 .01994130,0.00154425,0.02439645,-0.04761469,0.06752342,-0.01403148,-0.
 01492038,0.01938154,-0.00671214,0.00226038,-0.00015542,0.00048109,0.00
 071930,0.00052405,-0.00014021,-0.00165448,-0.00062661,0.00026782,-0.00
 229288,-0.00025749,-0.00162880,0.00309782,-0.00337581,-0.00103026,-0.0
 0070680,-0.00048556,0.00063849,0.00028186,0.00002415,0.00020255,-0.000
 08797,0.00014054,-0.01149727,-0.00283953,-0.03209695,0.00180386,0.0135
 5790,-0.03685473,0.00835386,-0.00614479,-0.00206030,-0.00153352,0.0000
 5066,0.00029525,-0.00267175,0.00033200,0.00114780,-0.00065922,0.001406
 10,0.00033034,-0.00703043,0.01802412,-0.03112010,0.02035980,-0.0160227
 7,0.09158450,-0.02147848,-0.01257698,-0.00655035,-0.00252040,-0.001456
 95,-0.00204530,-0.00026083,0.00123212,0.00024841,-0.00015825,0.0000846
 2,0.00030788,0.00017285,0.00031762,-0.00014633,0.00310772,-0.00786207,
 -0.00465769,0.00089133,-0.00044581,0.00065789,0.00075588,0.00054229,-0
 .00080477,-0.00032577,-0.00214693,-0.00098399,-0.00776829,0.02496430,-
 0.00180850,-0.00378126,0.00023797,-0.00107771,0.00100501,0.00002985,-0
 .00012409,-0.00016981,0.00006019,-0.00004362,-0.00010601,-0.00001151,0
 .00008490,-0.00010902,0.00005149,0.00007004,0.00376074,0.00052710,0.00
 230927,0.00034756,0.00013107,0.00046185,0.03894958,-0.02627762,-0.0274
 3974,0.01368124,0.00375337,0.00208807,0.00243185,0.00050491,-0.0015320
 6,-0.00022414,-0.00012267,0.00006229,-0.00020208,-0.00026712,0.0001453
 3,-0.00010488,0.00895913,-0.02630193,-0.01535627,0.00047345,0.00009602
 ,-0.00035428,0.00057098,-0.00075910,-0.00046891,-0.00402194,-0.0024427
 7,-0.00153854,0.01500395,-0.02766006,0.00225144,0.00489826,0.00150660,
 0.00280824,-0.00051123,0.00013824,0.00049073,0.00027334,-0.00010862,0.
 00000547,0.00011606,0.00000413,-0.00010467,-0.00020916,0.00012578,0.00
 004222,-0.00762333,-0.00160781,-0.00555319,-0.00149793,-0.00282533,-0.
 00035485,-0.01958693,0.07979188,-0.01594192,0.00330645,-0.01831340,-0.
 00085597,0.00096156,0.00069511,0.00006800,0.00000948,0.00004960,-0.000
 35622,0.00075830,0.00000046,0.00001549,0.00001134,-0.00009963,0.004536
 66,-0.01565615,-0.00535609,0.00121291,-0.00026295,0.00015099,-0.000769
 31,-0.00083437,0.00071908,-0.00197969,-0.00160852,0.00054582,-0.002332
 81,0.00362731,0.00765313,0.00324947,-0.00005938,0.00372270,-0.00042849
 ,-0.00000723,0.00045654,0.00028392,-0.00005805,0.00002594,-0.00001573,
 0.00000223,-0.00005724,-0.00017371,0.00013202,-0.00005199,-0.00728441,
 -0.00141111,-0.00553949,0.00086971,-0.00023607,-0.00145501,-0.01319885
 ,0.02945281,0.04774363,-0.24285501,-0.08028068,0.13216616,0.00157897,0
 .00150866,0.00266460,0.00055982,-0.00168546,-0.00031721,-0.00021067,-0
 .00181926,-0.00078241,0.00010392,0.00072654,-0.00084011,-0.02650748,-0
 .01694689,0.03816347,0.00255427,0.00142037,0.00158333,-0.00635118,-0.0
 0606987,-0.00182229,0.00110468,-0.00023444,0.00031973,0.03605489,0.003
 16729,0.00323636,-0.06190797,-0.00188301,-0.06703871,0.00936883,-0.003
 66925,-0.00944461,-0.00376789,0.00134767,0.00059714,-0.00042261,-0.000
 09704,0.00043239,0.00004721,0.00084179,0.00139861,0.03897461,0.0142736
 9,0.03331277,-0.02259030,-0.01765725,0.01436574,-0.01231257,0.02556450
 ,0.03310094,0.28657848,-0.07120301,-0.11117794,0.05155985,-0.00091773,
 0.00462017,0.00104853,0.00027743,-0.00066920,0.00003567,-0.00043714,0.
 00047775,-0.00079251,-0.00009452,0.00000218,0.00013317,-0.02213435,-0.
 00142367,0.02220356,-0.00121295,-0.00006241,0.00032390,-0.00532073,-0.
 00186637,-0.00069040,0.00210036,0.00279414,0.00151573,0.01009956,-0.00
 351846,0.03625071,-0.01994660,0.01274589,-0.02019824,0.00177427,-0.000
 76026,-0.00485640,-0.00181223,0.00060284,0.00040293,0.00014552,-0.0000
 3970,0.00017605,-0.00059005,0.00038794,0.00046979,0.02451835,-0.015720
 68,0.01216249,-0.01264740,-0.01102686,0.00529432,0.01590856,0.00671909
 ,-0.01812767,0.08149264,0.11791555,0.18174632,0.08328149,-0.27606634,0
 .00077184,-0.01028291,-0.00713918,-0.00071980,0.00291304,0.00081330,-0
 .00082354,0.00201276,0.00191866,-0.00001765,0.00132008,0.00010052,0.00
 999151,0.00472155,0.00224899,0.00127846,-0.00029392,-0.00005039,-0.001
 06379,-0.00071840,0.00170913,-0.00047025,0.00149570,0.00024592,-0.0133
 6373,0.03240308,-0.05529029,-0.02572705,-0.00781443,0.00402065,0.00015
 297,-0.00202942,-0.00314858,-0.00076912,0.00056214,0.00047683,-0.00083
 494,-0.00006402,0.00002285,-0.00047903,0.00088905,-0.00021200,-0.00709
 820,-0.00281207,-0.03647647,0.01122094,0.00822996,-0.00494018,0.027300
 96,-0.02690218,-0.03089015,-0.18109591,-0.08691149,0.40265673\\0.00000
 262,0.00000773,0.00000155,-0.00000628,-0.00000390,-0.00000889,-0.00000
 820,-0.00001206,-0.00001035,-0.00000706,0.00000036,-0.00001040,-0.0000
 0939,-0.00000183,-0.00001320,-0.00000145,0.00001402,-0.00000256,0.0000
 0083,0.00002055,0.00000008,-0.00000299,0.00001015,-0.00000473,-0.00000
 535,0.00001563,-0.00000844,-0.00000329,-0.00000555,0.00000384,0.000009
 50,-0.00000577,0.00000844,0.00000362,-0.00001026,0.00000622,0.00000265
 ,-0.00001851,0.00000491,0.00000703,-0.00000881,0.00001044,-0.00000028,
 -0.00000694,0.00000003,0.00000312,0.00000443,0.00000747,0.00000468,-0.
 00001175,0.00000245,0.00000772,0.00000367,0.00001039,0.00000252,0.0000
 0885,0.00000273\\\@


 MY GROUP MEETINGS AREN'T VERY STRUCTURED.
     -- PROF. M. S. GORDON, OCT. 5, 1984
 Job cpu time:       1 days 17 hours 14 minutes  9.3 seconds.
 File lengths (MBytes):  RWF=    411 Int=      0 D2E=      0 Chk=     27 Scr=      1
 Normal termination of Gaussian 09 at Sat Mar 28 12:31:50 2015.
