 Entering Gaussian System, Link 0=g09
 Initial command:
 /opt/gridware/applications/gaussian/g09/l1.exe "/lustre/SCRATCH5/gau/mlawal/869324.sched01/Gau-30366.inp" -scrdir="/lustre/SCRATCH5/gau/mlawal/869324.sched01/"
 Entering Link 1 = /opt/gridware/applications/gaussian/g09/l1.exe PID=     30367.
  
 Copyright (c) 1988,1990,1992,1993,1995,1998,2003,2009,2013,
            Gaussian, Inc.  All Rights Reserved.
  
 This is part of the Gaussian(R) 09 program.  It is based on
 the Gaussian(R) 03 system (copyright 2003, Gaussian, Inc.),
 the Gaussian(R) 98 system (copyright 1998, Gaussian, Inc.),
 the Gaussian(R) 94 system (copyright 1995, Gaussian, Inc.),
 the Gaussian 92(TM) system (copyright 1992, Gaussian, Inc.),
 the Gaussian 90(TM) system (copyright 1990, Gaussian, Inc.),
 the Gaussian 88(TM) system (copyright 1988, Gaussian, Inc.),
 the Gaussian 86(TM) system (copyright 1986, Carnegie Mellon
 University), and the Gaussian 82(TM) system (copyright 1983,
 Carnegie Mellon University). Gaussian is a federally registered
 trademark of Gaussian, Inc.
  
 This software contains proprietary and confidential information,
 including trade secrets, belonging to Gaussian, Inc.
  
 This software is provided under written license and may be
 used, copied, transmitted, or stored only in accord with that
 written license.
  
 The following legend is applicable only to US Government
 contracts under FAR:
  
                    RESTRICTED RIGHTS LEGEND
  
 Use, reproduction and disclosure by the US Government is
 subject to restrictions as set forth in subparagraphs (a)
 and (c) of the Commercial Computer Software - Restricted
 Rights clause in FAR 52.227-19.
  
 Gaussian, Inc.
 340 Quinnipiac St., Bldg. 40, Wallingford CT 06492
  
  
 ---------------------------------------------------------------
 Warning -- This program may not be used in any manner that
 competes with the business of Gaussian, Inc. or will provide
 assistance to any competitor of Gaussian, Inc.  The licensee
 of this program is prohibited from giving any competitor of
 Gaussian, Inc. access to this program.  By using this program,
 the user acknowledges that Gaussian, Inc. is engaged in the
 business of creating and licensing software in the field of
 computational chemistry and represents and warrants to the
 licensee that it is not a competitor of Gaussian, Inc. and that
 it will not use this program in any manner prohibited above.
 ---------------------------------------------------------------
  

 Cite this work as:
 Gaussian 09, Revision D.01,
 M. J. Frisch, G. W. Trucks, H. B. Schlegel, G. E. Scuseria, 
 M. A. Robb, J. R. Cheeseman, G. Scalmani, V. Barone, B. Mennucci, 
 G. A. Petersson, H. Nakatsuji, M. Caricato, X. Li, H. P. Hratchian, 
 A. F. Izmaylov, J. Bloino, G. Zheng, J. L. Sonnenberg, M. Hada, 
 M. Ehara, K. Toyota, R. Fukuda, J. Hasegawa, M. Ishida, T. Nakajima, 
 Y. Honda, O. Kitao, H. Nakai, T. Vreven, J. A. Montgomery, Jr., 
 J. E. Peralta, F. Ogliaro, M. Bearpark, J. J. Heyd, E. Brothers, 
 K. N. Kudin, V. N. Staroverov, T. Keith, R. Kobayashi, J. Normand, 
 K. Raghavachari, A. Rendell, J. C. Burant, S. S. Iyengar, J. Tomasi, 
 M. Cossi, N. Rega, J. M. Millam, M. Klene, J. E. Knox, J. B. Cross, 
 V. Bakken, C. Adamo, J. Jaramillo, R. Gomperts, R. E. Stratmann, 
 O. Yazyev, A. J. Austin, R. Cammi, C. Pomelli, J. W. Ochterski, 
 R. L. Martin, K. Morokuma, V. G. Zakrzewski, G. A. Voth, 
 P. Salvador, J. J. Dannenberg, S. Dapprich, A. D. Daniels, 
 O. Farkas, J. B. Foresman, J. V. Ortiz, J. Cioslowski, 
 and D. J. Fox, Gaussian, Inc., Wallingford CT, 2013.
 
 ******************************************
 Gaussian 09:  EM64L-G09RevD.01 24-Apr-2013
                30-Mar-2015 
 ******************************************
 %nprocshared=8
 Will use up to    8 processors via shared memory.
 %nprocl=1
 Will use up to    1 processors via Linda.
 -----------------------------------------------------------------
 # freq=noraman b3lyp/genecp geom=connectivity gfinput pseudo=read
 -----------------------------------------------------------------
 1/10=4,30=1,38=1,57=2/1,3;
 2/12=2,17=6,18=5,40=1/2;
 3/5=7,11=2,16=1,17=8,24=10,25=1,30=1,71=2,74=-5,140=1/1,2,3;
 4//1;
 5/5=2,38=5,98=1/2;
 8/6=4,10=90,11=11/1;
 11/6=1,8=1,9=11,15=111,16=1/1,2,10;
 10/6=1/2;
 6/7=2,8=2,9=2,10=2,18=1,28=1/1;
 7/8=1,10=1,25=1/1,2,3,16;
 1/10=4,30=1/3;
 99//99;
 ---------------------------------------------------------
 gen calculation freq ts624Br-C H O=aug-ccpvtz/Br=Def2TZVP
 ---------------------------------------------------------
 Symbolic Z-matrix:
 Charge =  0 Multiplicity = 1
 C                     0.24569   0.68034   0.49543 
 O                    -0.45757   0.25008   1.45966 
 O                    -0.55695   0.78214  -0.78827 
 O                    -1.86089  -1.08612   0.06741 
 C                    -3.29815  -1.19755   0.10402 
 H                    -3.76507  -0.21757   0.19616 
 H                    -3.62176  -1.68631  -0.81072 
 H                    -3.55465  -1.81488   0.95975 
 H                    -1.46583  -0.34609  -0.5395 
 H                    -1.36262  -0.6453    0.92209 
 C                     1.09907   1.90657   0.72683 
 H                     1.58901   1.78354   1.69002 
 H                     1.84719   2.03473  -0.048 
 H                     0.46805   2.79448   0.78764 
 C                    -1.28505   2.00537  -0.94453 
 H                    -0.61654   2.82037  -1.21947 
 H                    -1.99008   1.84852  -1.76032 
 H                    -1.83337   2.27355  -0.03735 
 Br                    1.62113  -0.82235  -0.23832 
 

 GradGradGradGradGradGradGradGradGradGradGradGradGradGradGradGradGradGrad
 Berny optimization.
 Initialization pass.
 Trust Radius=3.00D-01 FncErr=1.00D-07 GrdErr=1.00D-07
 Number of steps in this run=      2 maximum allowed number of steps=      2.
 GradGradGradGradGradGradGradGradGradGradGradGradGradGradGradGradGradGrad

                          Input orientation:                          
 ---------------------------------------------------------------------
 Center     Atomic      Atomic             Coordinates (Angstroms)
 Number     Number       Type             X           Y           Z
 ---------------------------------------------------------------------
      1          6           0        0.245687    0.680344    0.495433
      2          8           0       -0.457574    0.250083    1.459661
      3          8           0       -0.556951    0.782143   -0.788268
      4          8           0       -1.860891   -1.086117    0.067409
      5          6           0       -3.298145   -1.197553    0.104024
      6          1           0       -3.765071   -0.217574    0.196164
      7          1           0       -3.621760   -1.686309   -0.810719
      8          1           0       -3.554654   -1.814883    0.959752
      9          1           0       -1.465827   -0.346086   -0.539500
     10          1           0       -1.362623   -0.645304    0.922090
     11          6           0        1.099072    1.906572    0.726830
     12          1           0        1.589011    1.783538    1.690016
     13          1           0        1.847189    2.034732   -0.048000
     14          1           0        0.468048    2.794478    0.787635
     15          6           0       -1.285050    2.005370   -0.944528
     16          1           0       -0.616537    2.820372   -1.219474
     17          1           0       -1.990084    1.848515   -1.760322
     18          1           0       -1.833374    2.273545   -0.037351
     19         35           0        1.621132   -0.822351   -0.238322
 ---------------------------------------------------------------------
                    Distance matrix (angstroms):
                    1          2          3          4          5
     1  C    0.000000
     2  O    1.268636   0.000000
     3  O    1.517392   2.312174   0.000000
     4  O    2.782312   2.386021   2.433688   0.000000
     5  C    4.029695   3.464426   3.497074   1.442032   0.000000
     6  H    4.120922   3.571367   3.501510   2.096866   1.089435
     7  H    4.718498   4.349289   3.935329   2.057182   1.086446
     8  H    4.569939   3.755782   4.334321   2.048465   1.085893
     9  H    2.248094   2.317032   1.469980   1.035403   2.120497
    10  H    2.127449   1.381960   2.368974   1.083082   2.172661
    11  C    1.511769   2.388335   2.510433   4.260564   5.418394
    12  H    2.109167   2.567695   3.427803   4.771750   5.940250
    13  H    2.166678   3.281760   2.810136   4.847976   6.078260
    14  H    2.145784   2.789685   2.753831   4.582761   5.530628
    15  C    2.484419   3.089640   1.432072   3.303468   3.925650
    16  H    2.874727   3.716103   2.084194   4.297108   5.008632
    17  H    3.384040   3.907923   2.033693   3.459676   3.803333
    18  H    2.672946   2.868496   2.101764   3.361408   3.770154
    19  Br   2.165257   2.890377   2.760595   3.505357   4.945429
                    6          7          8          9         10
     6  H    0.000000
     7  H    1.786486   0.000000
     8  H    1.782902   1.776401   0.000000
     9  H    2.417486   2.552999   2.961135   0.000000
    10  H    2.545914   3.031504   2.484821   1.495469   0.000000
    11  C    5.334181   6.128548   5.963275   3.640984   3.551076
    12  H    5.907812   6.741339   6.319748   4.340285   3.898862
    13  H    6.052269   6.658625   6.709322   4.109251   4.292617
    14  H    5.228919   6.273653   6.120291   3.919732   3.898915
    15  C    3.520392   4.371111   4.834430   2.392922   3.242893
    16  H    4.598523   5.432184   5.904841   3.348151   4.141721
    17  H    3.353676   4.007380   4.823605   2.565448   3.715935
    18  H    3.160958   4.413260   4.546676   2.692529   3.108346
    19  Br   5.437437   5.344341   5.404559   3.137969   3.206352
                   11         12         13         14         15
    11  C    0.000000
    12  H    1.087614   0.000000
    13  H    1.084650   1.774952   0.000000
    14  H    1.090993   1.758650   1.782563   0.000000
    15  C    2.913286   3.905158   3.258151   2.587747   0.000000
    16  H    2.750717   3.795339   2.838931   2.281552   1.089373
    17  H    3.966381   4.971818   4.206113   3.664607   1.089585
    18  H    3.052520   3.864793   3.688318   2.499703   1.093411
    19  Br   2.941273   3.241940   2.872324   3.932384   4.115899
                   16         17         18         19
    16  H    0.000000
    17  H    1.767386   0.000000
    18  H    1.782450   1.781527   0.000000
    19  Br   4.386257   4.742456   4.643121   0.000000
 Stoichiometry    C4H11BrO3
 Framework group  C1[X(C4H11BrO3)]
 Deg. of freedom    51
 Full point group                 C1      NOp   1
 Largest Abelian subgroup         C1      NOp   1
 Largest concise Abelian subgroup C1      NOp   1
                         Standard orientation:                         
 ---------------------------------------------------------------------
 Center     Atomic      Atomic             Coordinates (Angstroms)
 Number     Number       Type             X           Y           Z
 ---------------------------------------------------------------------
      1          6           0        0.245687    0.680344    0.495433
      2          8           0       -0.457574    0.250083    1.459661
      3          8           0       -0.556951    0.782143   -0.788268
      4          8           0       -1.860891   -1.086117    0.067409
      5          6           0       -3.298145   -1.197553    0.104024
      6          1           0       -3.765071   -0.217574    0.196164
      7          1           0       -3.621760   -1.686309   -0.810719
      8          1           0       -3.554654   -1.814883    0.959752
      9          1           0       -1.465827   -0.346086   -0.539500
     10          1           0       -1.362623   -0.645304    0.922090
     11          6           0        1.099072    1.906572    0.726830
     12          1           0        1.589011    1.783538    1.690016
     13          1           0        1.847189    2.034732   -0.048000
     14          1           0        0.468048    2.794478    0.787635
     15          6           0       -1.285050    2.005370   -0.944528
     16          1           0       -0.616537    2.820372   -1.219474
     17          1           0       -1.990084    1.848515   -1.760322
     18          1           0       -1.833374    2.273545   -0.037351
     19         35           0        1.621132   -0.822351   -0.238322
 ---------------------------------------------------------------------
 Rotational constants (GHZ):      1.6177605      0.8836073      0.6963797
 General basis read from cards:  (5D, 7F)
 ======================================================================================================
                                       Pseudopotential Parameters
 ======================================================================================================
  Center     Atomic      Valence      Angular      Power
  Number     Number     Electrons     Momentum     of R      Exponent        Coefficient   SO-Coeffient
 ======================================================================================================
    1          6
                                   No pseudopotential on this center.
    2          8
                                   No pseudopotential on this center.
    3          8
                                   No pseudopotential on this center.
    4          8
                                   No pseudopotential on this center.
    5          6
                                   No pseudopotential on this center.
    6          1
                                   No pseudopotential on this center.
    7          1
                                   No pseudopotential on this center.
    8          1
                                   No pseudopotential on this center.
    9          1
                                   No pseudopotential on this center.
   10          1
                                   No pseudopotential on this center.
   11          6
                                   No pseudopotential on this center.
   12          1
                                   No pseudopotential on this center.
   13          1
                                   No pseudopotential on this center.
   14          1
                                   No pseudopotential on this center.
   15          6
                                   No pseudopotential on this center.
   16          1
                                   No pseudopotential on this center.
   17          1
                                   No pseudopotential on this center.
   18          1
                                   No pseudopotential on this center.
   19         35
                                   No pseudopotential on this center.
 ======================================================================================================
 AO basis set in the form of general basis input (Overlap normalization):
      1 0
 S   7 1.00       0.000000000000
      0.8236000000D+04  0.5419783203D-03
      0.1235000000D+04  0.4192873817D-02
      0.2808000000D+03  0.2152216205D-01
      0.7927000000D+02  0.8353432195D-01
      0.2559000000D+02  0.2395828457D+00
      0.8997000000D+01  0.4428528419D+00
      0.3319000000D+01  0.3517995618D+00
 S   6 1.00       0.000000000000
      0.2808000000D+03 -0.5949224937D-04
      0.7927000000D+02 -0.1148158310D-02
      0.2559000000D+02 -0.1001913745D-01
      0.8997000000D+01 -0.6121949230D-01
      0.3319000000D+01 -0.1732698541D+00
      0.3643000000D+00  0.1072915192D+01
 S   1 1.00       0.000000000000
      0.9059000000D+00  0.1000000000D+01
 S   1 1.00       0.000000000000
      0.1285000000D+00  0.1000000000D+01
 S   1 1.00       0.000000000000
      0.4402000000D-01  0.1000000000D+01
 P   3 1.00       0.000000000000
      0.1871000000D+02  0.3942638716D-01
      0.4133000000D+01  0.2440889849D+00
      0.1200000000D+01  0.8154920089D+00
 P   1 1.00       0.000000000000
      0.3827000000D+00  0.1000000000D+01
 P   1 1.00       0.000000000000
      0.1209000000D+00  0.1000000000D+01
 P   1 1.00       0.000000000000
      0.3569000000D-01  0.1000000000D+01
 D   1 1.00       0.000000000000
      0.1097000000D+01  0.1000000000D+01
 D   1 1.00       0.000000000000
      0.3180000000D+00  0.1000000000D+01
 D   1 1.00       0.000000000000
      0.1000000000D+00  0.1000000000D+01
 F   1 1.00       0.000000000000
      0.7610000000D+00  0.1000000000D+01
 F   1 1.00       0.000000000000
      0.2680000000D+00  0.1000000000D+01
 ****
      2 0
 S   7 1.00       0.000000000000
      0.1533000000D+05  0.5198089434D-03
      0.2299000000D+04  0.4020256215D-02
      0.5224000000D+03  0.2071282673D-01
      0.1473000000D+03  0.8101055358D-01
      0.4755000000D+02  0.2359629851D+00
      0.1676000000D+02  0.4426534455D+00
      0.6207000000D+01  0.3570644227D+00
 S   6 1.00       0.000000000000
      0.5224000000D+03 -0.4421150084D-04
      0.1473000000D+03 -0.1225910413D-02
      0.4755000000D+02 -0.1055177248D-01
      0.1676000000D+02 -0.6744526326D-01
      0.6207000000D+01 -0.1711986073D+00
      0.6882000000D+00  0.1073298561D+01
 S   1 1.00       0.000000000000
      0.1752000000D+01  0.1000000000D+01
 S   1 1.00       0.000000000000
      0.2384000000D+00  0.1000000000D+01
 S   1 1.00       0.000000000000
      0.7376000000D-01  0.1000000000D+01
 P   3 1.00       0.000000000000
      0.3446000000D+02  0.4116348957D-01
      0.7749000000D+01  0.2577628359D+00
      0.2280000000D+01  0.8024192744D+00
 P   1 1.00       0.000000000000
      0.7156000000D+00  0.1000000000D+01
 P   1 1.00       0.000000000000
      0.2140000000D+00  0.1000000000D+01
 P   1 1.00       0.000000000000
      0.5974000000D-01  0.1000000000D+01
 D   1 1.00       0.000000000000
      0.2314000000D+01  0.1000000000D+01
 D   1 1.00       0.000000000000
      0.6450000000D+00  0.1000000000D+01
 D   1 1.00       0.000000000000
      0.2140000000D+00  0.1000000000D+01
 F   1 1.00       0.000000000000
      0.1428000000D+01  0.1000000000D+01
 F   1 1.00       0.000000000000
      0.5000000000D+00  0.1000000000D+01
 ****
      3 0
 S   7 1.00       0.000000000000
      0.1533000000D+05  0.5198089434D-03
      0.2299000000D+04  0.4020256215D-02
      0.5224000000D+03  0.2071282673D-01
      0.1473000000D+03  0.8101055358D-01
      0.4755000000D+02  0.2359629851D+00
      0.1676000000D+02  0.4426534455D+00
      0.6207000000D+01  0.3570644227D+00
 S   6 1.00       0.000000000000
      0.5224000000D+03 -0.4421150084D-04
      0.1473000000D+03 -0.1225910413D-02
      0.4755000000D+02 -0.1055177248D-01
      0.1676000000D+02 -0.6744526326D-01
      0.6207000000D+01 -0.1711986073D+00
      0.6882000000D+00  0.1073298561D+01
 S   1 1.00       0.000000000000
      0.1752000000D+01  0.1000000000D+01
 S   1 1.00       0.000000000000
      0.2384000000D+00  0.1000000000D+01
 S   1 1.00       0.000000000000
      0.7376000000D-01  0.1000000000D+01
 P   3 1.00       0.000000000000
      0.3446000000D+02  0.4116348957D-01
      0.7749000000D+01  0.2577628359D+00
      0.2280000000D+01  0.8024192744D+00
 P   1 1.00       0.000000000000
      0.7156000000D+00  0.1000000000D+01
 P   1 1.00       0.000000000000
      0.2140000000D+00  0.1000000000D+01
 P   1 1.00       0.000000000000
      0.5974000000D-01  0.1000000000D+01
 D   1 1.00       0.000000000000
      0.2314000000D+01  0.1000000000D+01
 D   1 1.00       0.000000000000
      0.6450000000D+00  0.1000000000D+01
 D   1 1.00       0.000000000000
      0.2140000000D+00  0.1000000000D+01
 F   1 1.00       0.000000000000
      0.1428000000D+01  0.1000000000D+01
 F   1 1.00       0.000000000000
      0.5000000000D+00  0.1000000000D+01
 ****
      4 0
 S   7 1.00       0.000000000000
      0.1533000000D+05  0.5198089434D-03
      0.2299000000D+04  0.4020256215D-02
      0.5224000000D+03  0.2071282673D-01
      0.1473000000D+03  0.8101055358D-01
      0.4755000000D+02  0.2359629851D+00
      0.1676000000D+02  0.4426534455D+00
      0.6207000000D+01  0.3570644227D+00
 S   6 1.00       0.000000000000
      0.5224000000D+03 -0.4421150084D-04
      0.1473000000D+03 -0.1225910413D-02
      0.4755000000D+02 -0.1055177248D-01
      0.1676000000D+02 -0.6744526326D-01
      0.6207000000D+01 -0.1711986073D+00
      0.6882000000D+00  0.1073298561D+01
 S   1 1.00       0.000000000000
      0.1752000000D+01  0.1000000000D+01
 S   1 1.00       0.000000000000
      0.2384000000D+00  0.1000000000D+01
 S   1 1.00       0.000000000000
      0.7376000000D-01  0.1000000000D+01
 P   3 1.00       0.000000000000
      0.3446000000D+02  0.4116348957D-01
      0.7749000000D+01  0.2577628359D+00
      0.2280000000D+01  0.8024192744D+00
 P   1 1.00       0.000000000000
      0.7156000000D+00  0.1000000000D+01
 P   1 1.00       0.000000000000
      0.2140000000D+00  0.1000000000D+01
 P   1 1.00       0.000000000000
      0.5974000000D-01  0.1000000000D+01
 D   1 1.00       0.000000000000
      0.2314000000D+01  0.1000000000D+01
 D   1 1.00       0.000000000000
      0.6450000000D+00  0.1000000000D+01
 D   1 1.00       0.000000000000
      0.2140000000D+00  0.1000000000D+01
 F   1 1.00       0.000000000000
      0.1428000000D+01  0.1000000000D+01
 F   1 1.00       0.000000000000
      0.5000000000D+00  0.1000000000D+01
 ****
      5 0
 S   7 1.00       0.000000000000
      0.8236000000D+04  0.5419783203D-03
      0.1235000000D+04  0.4192873817D-02
      0.2808000000D+03  0.2152216205D-01
      0.7927000000D+02  0.8353432195D-01
      0.2559000000D+02  0.2395828457D+00
      0.8997000000D+01  0.4428528419D+00
      0.3319000000D+01  0.3517995618D+00
 S   6 1.00       0.000000000000
      0.2808000000D+03 -0.5949224937D-04
      0.7927000000D+02 -0.1148158310D-02
      0.2559000000D+02 -0.1001913745D-01
      0.8997000000D+01 -0.6121949230D-01
      0.3319000000D+01 -0.1732698541D+00
      0.3643000000D+00  0.1072915192D+01
 S   1 1.00       0.000000000000
      0.9059000000D+00  0.1000000000D+01
 S   1 1.00       0.000000000000
      0.1285000000D+00  0.1000000000D+01
 S   1 1.00       0.000000000000
      0.4402000000D-01  0.1000000000D+01
 P   3 1.00       0.000000000000
      0.1871000000D+02  0.3942638716D-01
      0.4133000000D+01  0.2440889849D+00
      0.1200000000D+01  0.8154920089D+00
 P   1 1.00       0.000000000000
      0.3827000000D+00  0.1000000000D+01
 P   1 1.00       0.000000000000
      0.1209000000D+00  0.1000000000D+01
 P   1 1.00       0.000000000000
      0.3569000000D-01  0.1000000000D+01
 D   1 1.00       0.000000000000
      0.1097000000D+01  0.1000000000D+01
 D   1 1.00       0.000000000000
      0.3180000000D+00  0.1000000000D+01
 D   1 1.00       0.000000000000
      0.1000000000D+00  0.1000000000D+01
 F   1 1.00       0.000000000000
      0.7610000000D+00  0.1000000000D+01
 F   1 1.00       0.000000000000
      0.2680000000D+00  0.1000000000D+01
 ****
      6 0
 S   3 1.00       0.000000000000
      0.3387000000D+02  0.2549486323D-01
      0.5095000000D+01  0.1903627659D+00
      0.1159000000D+01  0.8521620222D+00
 S   1 1.00       0.000000000000
      0.3258000000D+00  0.1000000000D+01
 S   1 1.00       0.000000000000
      0.1027000000D+00  0.1000000000D+01
 S   1 1.00       0.000000000000
      0.2526000000D-01  0.1000000000D+01
 P   1 1.00       0.000000000000
      0.1407000000D+01  0.1000000000D+01
 P   1 1.00       0.000000000000
      0.3880000000D+00  0.1000000000D+01
 P   1 1.00       0.000000000000
      0.1020000000D+00  0.1000000000D+01
 D   1 1.00       0.000000000000
      0.1057000000D+01  0.1000000000D+01
 D   1 1.00       0.000000000000
      0.2470000000D+00  0.1000000000D+01
 ****
      7 0
 S   3 1.00       0.000000000000
      0.3387000000D+02  0.2549486323D-01
      0.5095000000D+01  0.1903627659D+00
      0.1159000000D+01  0.8521620222D+00
 S   1 1.00       0.000000000000
      0.3258000000D+00  0.1000000000D+01
 S   1 1.00       0.000000000000
      0.1027000000D+00  0.1000000000D+01
 S   1 1.00       0.000000000000
      0.2526000000D-01  0.1000000000D+01
 P   1 1.00       0.000000000000
      0.1407000000D+01  0.1000000000D+01
 P   1 1.00       0.000000000000
      0.3880000000D+00  0.1000000000D+01
 P   1 1.00       0.000000000000
      0.1020000000D+00  0.1000000000D+01
 D   1 1.00       0.000000000000
      0.1057000000D+01  0.1000000000D+01
 D   1 1.00       0.000000000000
      0.2470000000D+00  0.1000000000D+01
 ****
      8 0
 S   3 1.00       0.000000000000
      0.3387000000D+02  0.2549486323D-01
      0.5095000000D+01  0.1903627659D+00
      0.1159000000D+01  0.8521620222D+00
 S   1 1.00       0.000000000000
      0.3258000000D+00  0.1000000000D+01
 S   1 1.00       0.000000000000
      0.1027000000D+00  0.1000000000D+01
 S   1 1.00       0.000000000000
      0.2526000000D-01  0.1000000000D+01
 P   1 1.00       0.000000000000
      0.1407000000D+01  0.1000000000D+01
 P   1 1.00       0.000000000000
      0.3880000000D+00  0.1000000000D+01
 P   1 1.00       0.000000000000
      0.1020000000D+00  0.1000000000D+01
 D   1 1.00       0.000000000000
      0.1057000000D+01  0.1000000000D+01
 D   1 1.00       0.000000000000
      0.2470000000D+00  0.1000000000D+01
 ****
      9 0
 S   3 1.00       0.000000000000
      0.3387000000D+02  0.2549486323D-01
      0.5095000000D+01  0.1903627659D+00
      0.1159000000D+01  0.8521620222D+00
 S   1 1.00       0.000000000000
      0.3258000000D+00  0.1000000000D+01
 S   1 1.00       0.000000000000
      0.1027000000D+00  0.1000000000D+01
 S   1 1.00       0.000000000000
      0.2526000000D-01  0.1000000000D+01
 P   1 1.00       0.000000000000
      0.1407000000D+01  0.1000000000D+01
 P   1 1.00       0.000000000000
      0.3880000000D+00  0.1000000000D+01
 P   1 1.00       0.000000000000
      0.1020000000D+00  0.1000000000D+01
 D   1 1.00       0.000000000000
      0.1057000000D+01  0.1000000000D+01
 D   1 1.00       0.000000000000
      0.2470000000D+00  0.1000000000D+01
 ****
     10 0
 S   3 1.00       0.000000000000
      0.3387000000D+02  0.2549486323D-01
      0.5095000000D+01  0.1903627659D+00
      0.1159000000D+01  0.8521620222D+00
 S   1 1.00       0.000000000000
      0.3258000000D+00  0.1000000000D+01
 S   1 1.00       0.000000000000
      0.1027000000D+00  0.1000000000D+01
 S   1 1.00       0.000000000000
      0.2526000000D-01  0.1000000000D+01
 P   1 1.00       0.000000000000
      0.1407000000D+01  0.1000000000D+01
 P   1 1.00       0.000000000000
      0.3880000000D+00  0.1000000000D+01
 P   1 1.00       0.000000000000
      0.1020000000D+00  0.1000000000D+01
 D   1 1.00       0.000000000000
      0.1057000000D+01  0.1000000000D+01
 D   1 1.00       0.000000000000
      0.2470000000D+00  0.1000000000D+01
 ****
     11 0
 S   7 1.00       0.000000000000
      0.8236000000D+04  0.5419783203D-03
      0.1235000000D+04  0.4192873817D-02
      0.2808000000D+03  0.2152216205D-01
      0.7927000000D+02  0.8353432195D-01
      0.2559000000D+02  0.2395828457D+00
      0.8997000000D+01  0.4428528419D+00
      0.3319000000D+01  0.3517995618D+00
 S   6 1.00       0.000000000000
      0.2808000000D+03 -0.5949224937D-04
      0.7927000000D+02 -0.1148158310D-02
      0.2559000000D+02 -0.1001913745D-01
      0.8997000000D+01 -0.6121949230D-01
      0.3319000000D+01 -0.1732698541D+00
      0.3643000000D+00  0.1072915192D+01
 S   1 1.00       0.000000000000
      0.9059000000D+00  0.1000000000D+01
 S   1 1.00       0.000000000000
      0.1285000000D+00  0.1000000000D+01
 S   1 1.00       0.000000000000
      0.4402000000D-01  0.1000000000D+01
 P   3 1.00       0.000000000000
      0.1871000000D+02  0.3942638716D-01
      0.4133000000D+01  0.2440889849D+00
      0.1200000000D+01  0.8154920089D+00
 P   1 1.00       0.000000000000
      0.3827000000D+00  0.1000000000D+01
 P   1 1.00       0.000000000000
      0.1209000000D+00  0.1000000000D+01
 P   1 1.00       0.000000000000
      0.3569000000D-01  0.1000000000D+01
 D   1 1.00       0.000000000000
      0.1097000000D+01  0.1000000000D+01
 D   1 1.00       0.000000000000
      0.3180000000D+00  0.1000000000D+01
 D   1 1.00       0.000000000000
      0.1000000000D+00  0.1000000000D+01
 F   1 1.00       0.000000000000
      0.7610000000D+00  0.1000000000D+01
 F   1 1.00       0.000000000000
      0.2680000000D+00  0.1000000000D+01
 ****
     12 0
 S   3 1.00       0.000000000000
      0.3387000000D+02  0.2549486323D-01
      0.5095000000D+01  0.1903627659D+00
      0.1159000000D+01  0.8521620222D+00
 S   1 1.00       0.000000000000
      0.3258000000D+00  0.1000000000D+01
 S   1 1.00       0.000000000000
      0.1027000000D+00  0.1000000000D+01
 S   1 1.00       0.000000000000
      0.2526000000D-01  0.1000000000D+01
 P   1 1.00       0.000000000000
      0.1407000000D+01  0.1000000000D+01
 P   1 1.00       0.000000000000
      0.3880000000D+00  0.1000000000D+01
 P   1 1.00       0.000000000000
      0.1020000000D+00  0.1000000000D+01
 D   1 1.00       0.000000000000
      0.1057000000D+01  0.1000000000D+01
 D   1 1.00       0.000000000000
      0.2470000000D+00  0.1000000000D+01
 ****
     13 0
 S   3 1.00       0.000000000000
      0.3387000000D+02  0.2549486323D-01
      0.5095000000D+01  0.1903627659D+00
      0.1159000000D+01  0.8521620222D+00
 S   1 1.00       0.000000000000
      0.3258000000D+00  0.1000000000D+01
 S   1 1.00       0.000000000000
      0.1027000000D+00  0.1000000000D+01
 S   1 1.00       0.000000000000
      0.2526000000D-01  0.1000000000D+01
 P   1 1.00       0.000000000000
      0.1407000000D+01  0.1000000000D+01
 P   1 1.00       0.000000000000
      0.3880000000D+00  0.1000000000D+01
 P   1 1.00       0.000000000000
      0.1020000000D+00  0.1000000000D+01
 D   1 1.00       0.000000000000
      0.1057000000D+01  0.1000000000D+01
 D   1 1.00       0.000000000000
      0.2470000000D+00  0.1000000000D+01
 ****
     14 0
 S   3 1.00       0.000000000000
      0.3387000000D+02  0.2549486323D-01
      0.5095000000D+01  0.1903627659D+00
      0.1159000000D+01  0.8521620222D+00
 S   1 1.00       0.000000000000
      0.3258000000D+00  0.1000000000D+01
 S   1 1.00       0.000000000000
      0.1027000000D+00  0.1000000000D+01
 S   1 1.00       0.000000000000
      0.2526000000D-01  0.1000000000D+01
 P   1 1.00       0.000000000000
      0.1407000000D+01  0.1000000000D+01
 P   1 1.00       0.000000000000
      0.3880000000D+00  0.1000000000D+01
 P   1 1.00       0.000000000000
      0.1020000000D+00  0.1000000000D+01
 D   1 1.00       0.000000000000
      0.1057000000D+01  0.1000000000D+01
 D   1 1.00       0.000000000000
      0.2470000000D+00  0.1000000000D+01
 ****
     15 0
 S   7 1.00       0.000000000000
      0.8236000000D+04  0.5419783203D-03
      0.1235000000D+04  0.4192873817D-02
      0.2808000000D+03  0.2152216205D-01
      0.7927000000D+02  0.8353432195D-01
      0.2559000000D+02  0.2395828457D+00
      0.8997000000D+01  0.4428528419D+00
      0.3319000000D+01  0.3517995618D+00
 S   6 1.00       0.000000000000
      0.2808000000D+03 -0.5949224937D-04
      0.7927000000D+02 -0.1148158310D-02
      0.2559000000D+02 -0.1001913745D-01
      0.8997000000D+01 -0.6121949230D-01
      0.3319000000D+01 -0.1732698541D+00
      0.3643000000D+00  0.1072915192D+01
 S   1 1.00       0.000000000000
      0.9059000000D+00  0.1000000000D+01
 S   1 1.00       0.000000000000
      0.1285000000D+00  0.1000000000D+01
 S   1 1.00       0.000000000000
      0.4402000000D-01  0.1000000000D+01
 P   3 1.00       0.000000000000
      0.1871000000D+02  0.3942638716D-01
      0.4133000000D+01  0.2440889849D+00
      0.1200000000D+01  0.8154920089D+00
 P   1 1.00       0.000000000000
      0.3827000000D+00  0.1000000000D+01
 P   1 1.00       0.000000000000
      0.1209000000D+00  0.1000000000D+01
 P   1 1.00       0.000000000000
      0.3569000000D-01  0.1000000000D+01
 D   1 1.00       0.000000000000
      0.1097000000D+01  0.1000000000D+01
 D   1 1.00       0.000000000000
      0.3180000000D+00  0.1000000000D+01
 D   1 1.00       0.000000000000
      0.1000000000D+00  0.1000000000D+01
 F   1 1.00       0.000000000000
      0.7610000000D+00  0.1000000000D+01
 F   1 1.00       0.000000000000
      0.2680000000D+00  0.1000000000D+01
 ****
     16 0
 S   3 1.00       0.000000000000
      0.3387000000D+02  0.2549486323D-01
      0.5095000000D+01  0.1903627659D+00
      0.1159000000D+01  0.8521620222D+00
 S   1 1.00       0.000000000000
      0.3258000000D+00  0.1000000000D+01
 S   1 1.00       0.000000000000
      0.1027000000D+00  0.1000000000D+01
 S   1 1.00       0.000000000000
      0.2526000000D-01  0.1000000000D+01
 P   1 1.00       0.000000000000
      0.1407000000D+01  0.1000000000D+01
 P   1 1.00       0.000000000000
      0.3880000000D+00  0.1000000000D+01
 P   1 1.00       0.000000000000
      0.1020000000D+00  0.1000000000D+01
 D   1 1.00       0.000000000000
      0.1057000000D+01  0.1000000000D+01
 D   1 1.00       0.000000000000
      0.2470000000D+00  0.1000000000D+01
 ****
     17 0
 S   3 1.00       0.000000000000
      0.3387000000D+02  0.2549486323D-01
      0.5095000000D+01  0.1903627659D+00
      0.1159000000D+01  0.8521620222D+00
 S   1 1.00       0.000000000000
      0.3258000000D+00  0.1000000000D+01
 S   1 1.00       0.000000000000
      0.1027000000D+00  0.1000000000D+01
 S   1 1.00       0.000000000000
      0.2526000000D-01  0.1000000000D+01
 P   1 1.00       0.000000000000
      0.1407000000D+01  0.1000000000D+01
 P   1 1.00       0.000000000000
      0.3880000000D+00  0.1000000000D+01
 P   1 1.00       0.000000000000
      0.1020000000D+00  0.1000000000D+01
 D   1 1.00       0.000000000000
      0.1057000000D+01  0.1000000000D+01
 D   1 1.00       0.000000000000
      0.2470000000D+00  0.1000000000D+01
 ****
     18 0
 S   3 1.00       0.000000000000
      0.3387000000D+02  0.2549486323D-01
      0.5095000000D+01  0.1903627659D+00
      0.1159000000D+01  0.8521620222D+00
 S   1 1.00       0.000000000000
      0.3258000000D+00  0.1000000000D+01
 S   1 1.00       0.000000000000
      0.1027000000D+00  0.1000000000D+01
 S   1 1.00       0.000000000000
      0.2526000000D-01  0.1000000000D+01
 P   1 1.00       0.000000000000
      0.1407000000D+01  0.1000000000D+01
 P   1 1.00       0.000000000000
      0.3880000000D+00  0.1000000000D+01
 P   1 1.00       0.000000000000
      0.1020000000D+00  0.1000000000D+01
 D   1 1.00       0.000000000000
      0.1057000000D+01  0.1000000000D+01
 D   1 1.00       0.000000000000
      0.2470000000D+00  0.1000000000D+01
 ****
     19 0
 S   8 1.00       0.000000000000
      0.5650732526D+06  0.2313996799D-03
      0.8470172318D+05  0.1794480895D-02
      0.1927627190D+05  0.9336632833D-02
      0.5456428458D+04  0.3802214115D-01
      0.1776950350D+04  0.1243860819D+00
      0.6391939828D+03  0.2976826547D+00
      0.2487882396D+03  0.4351247869D+00
      0.9867830549D+02  0.2384543263D+00
 S   4 1.00       0.000000000000
      0.6060782457D+03 -0.2580299811D-01
      0.1884559848D+03 -0.1214377016D+00
      0.3149714451D+02  0.5492715414D+00
      0.1373600832D+02  0.5403867432D+00
 S   2 1.00       0.000000000000
      0.2120321277D+02 -0.4189765707D+00
      0.3761642018D+01  0.1196292202D+01
 S   1 1.00       0.000000000000
      0.1773593396D+01  0.1000000000D+01
 S   1 1.00       0.000000000000
      0.4519741366D+00  0.1000000000D+01
 S   1 1.00       0.000000000000
      0.1661337710D+00  0.1000000000D+01
 P   6 1.00       0.000000000000
      0.3019695572D+04  0.2697896720D-02
      0.7153548113D+03  0.2206117705D-01
      0.2299832875D+03  0.1046886297D+00
      0.8616784462D+02  0.3030971016D+00
      0.3466787080D+02  0.4819318191D+00
      0.1411387031D+02  0.2637288336D+00
 P   4 1.00       0.000000000000
      0.5708565308D+02 -0.1928818758D-01
      0.8819384584D+01  0.2886445949D+00
      0.3934030287D+01  0.5105806350D+00
      0.1799883038D+01  0.2962687446D+00
 P   1 1.00       0.000000000000
      0.6689941051D+00  0.1000000000D+01
 P   1 1.00       0.000000000000
      0.2713623823D+00  0.1000000000D+01
 P   1 1.00       0.000000000000
      0.1008379024D+00  0.1000000000D+01
 D   5 1.00       0.000000000000
      0.1688537026D+03  0.9842827717D-02
      0.4997794992D+02  0.6812837709D-01
      0.1827491334D+02  0.2357380148D+00
      0.7245569463D+01  0.4427795439D+00
      0.2856231503D+01  0.4633455553D+00
 D   1 1.00       0.000000000000
      0.1045962114D+01  0.1000000000D+01
 D   1 1.00       0.000000000000
      0.5686565500D+00  0.1000000000D+01
 D   1 1.00       0.000000000000
      0.2203149000D+00  0.1000000000D+01
 F   1 1.00       0.000000000000
      0.5708331200D+00  0.1000000000D+01
 ****

 There are   715 symmetry adapted cartesian basis functions of A   symmetry.
 There are   623 symmetry adapted basis functions of A   symmetry.
   623 basis functions,   915 primitive gaussians,   715 cartesian basis functions
    47 alpha electrons       47 beta electrons
       nuclear repulsion energy       682.0332528240 Hartrees.
 NAtoms=   19 NActive=   19 NUniq=   19 SFac= 1.00D+00 NAtFMM=   60 NAOKFM=F Big=F
 Integral buffers will be    131072 words long.
 Raffenetti 2 integral format.
 Two-electron integral symmetry is turned on.
 One-electron integrals computed using PRISM.
 PrsmSu:  requested number of processors reduced to:   3 ShMem   1 Linda.
   1 Symmetry operations used in ECPInt.
 ECPInt:  NShTT=   22791 NPrTT=   61447 LenC2=   22396 LenP2D=   49441.
 LDataN:  DoStor=T MaxTD1= 6 Len=  172
 Number of processors reduced to   6 by ecpmxn.
 NBasis=   623 RedAO= T EigKep=  7.85D-06  NBF=   623
 NBsUse=   623 1.00D-06 EigRej= -1.00D+00 NBFU=   623
 ExpMin= 2.53D-02 ExpMax= 5.65D+05 ExpMxC= 5.46D+03 IAcc=3 IRadAn=         5 AccDes= 0.00D+00
 Harris functional with IExCor=  402 and IRadAn=       5 diagonalized for initial guess.
 HarFok:  IExCor=  402 AccDes= 0.00D+00 IRadAn=         5 IDoV= 1 UseB2=F ITyADJ=14
 ICtDFT=  3500011 ScaDFX=  1.000000  1.000000  1.000000  1.000000
 FoFCou: FMM=F IPFlag=           0 FMFlag=      100000 FMFlg1=           0
         NFxFlg=           0 DoJE=T BraDBF=F KetDBF=T FulRan=T
         wScrn=  0.000000 ICntrl=     500 IOpCl=  0 I1Cent=   200000004 NGrid=           0
         NMat0=    1 NMatS0=      1 NMatT0=    0 NMatD0=    1 NMtDS0=    0 NMtDT0=    0
 Petite list used in FoFCou.
 Requested convergence on RMS density matrix=1.00D-08 within 128 cycles.
 Requested convergence on MAX density matrix=1.00D-06.
 Requested convergence on             energy=1.00D-06.
 No special actions if energy rises.
 SCF Done:  E(RB3LYP) =  -2959.01868833     A.U. after   14 cycles
            NFock= 14  Conv=0.18D-08     -V/T= 2.0021
 DoSCS=F DFT=T ScalE2(SS,OS)=  1.000000  1.000000
 Range of M.O.s used for correlation:     1   623
 NBasis=   623 NAE=    47 NBE=    47 NFC=     0 NFV=     0
 NROrb=    623 NOA=    47 NOB=    47 NVA=   576 NVB=   576

 **** Warning!!: The largest alpha MO coefficient is  0.50980404D+02

 PrsmSu:  requested number of processors reduced to:   2 ShMem   1 Linda.
 PrsmSu:  requested number of processors reduced to:   1 ShMem   1 Linda.
   1 Symmetry operations used in ECPInt.
 ECPInt:  NShTT=   22791 NPrTT=   61447 LenC2=   22396 LenP2D=   49441.
 LDataN:  DoStor=T MaxTD1= 7 Len=  274
 Number of processors reduced to   1 by ecpmxn.
 Symmetrizing basis deriv contribution to polar:
 IMax=3 JMax=2 DiffMx= 0.00D+00
 G2DrvN: will do     1 centers at a time, making   20 passes.
 Estimated number of processors is:    5
 Calling FoFCou, ICntrl=  3107 FMM=F I1Cent=   0 AccDes= 0.00D+00.
 CoulSu:  requested number of processors reduced to:   6 ShMem   1 Linda.
 Calling FoFCou, ICntrl=  3107 FMM=F I1Cent=   0 AccDes= 0.00D+00.
 CoulSu:  requested number of processors reduced to:   5 ShMem   1 Linda.
 Calling FoFCou, ICntrl=  3107 FMM=F I1Cent=   0 AccDes= 0.00D+00.
 CoulSu:  requested number of processors reduced to:   5 ShMem   1 Linda.
 Calling FoFCou, ICntrl=  3107 FMM=F I1Cent=   0 AccDes= 0.00D+00.
 CoulSu:  requested number of processors reduced to:   5 ShMem   1 Linda.
 Calling FoFCou, ICntrl=  3107 FMM=F I1Cent=   0 AccDes= 0.00D+00.
 CoulSu:  requested number of processors reduced to:   5 ShMem   1 Linda.
 Calling FoFCou, ICntrl=  3107 FMM=F I1Cent=   0 AccDes= 0.00D+00.
 CoulSu:  requested number of processors reduced to:   5 ShMem   1 Linda.
 Calling FoFCou, ICntrl=  3107 FMM=F I1Cent=   0 AccDes= 0.00D+00.
 CoulSu:  requested number of processors reduced to:   5 ShMem   1 Linda.
 Calling FoFCou, ICntrl=  3107 FMM=F I1Cent=   0 AccDes= 0.00D+00.
 CoulSu:  requested number of processors reduced to:   5 ShMem   1 Linda.
 Calling FoFCou, ICntrl=  3107 FMM=F I1Cent=   0 AccDes= 0.00D+00.
 CoulSu:  requested number of processors reduced to:   5 ShMem   1 Linda.
 Calling FoFCou, ICntrl=  3107 FMM=F I1Cent=   0 AccDes= 0.00D+00.
 CoulSu:  requested number of processors reduced to:   5 ShMem   1 Linda.
 Calling FoFCou, ICntrl=  3107 FMM=F I1Cent=   0 AccDes= 0.00D+00.
 CoulSu:  requested number of processors reduced to:   5 ShMem   1 Linda.
 Calling FoFCou, ICntrl=  3107 FMM=F I1Cent=   0 AccDes= 0.00D+00.
 CoulSu:  requested number of processors reduced to:   5 ShMem   1 Linda.
 Calling FoFCou, ICntrl=  3107 FMM=F I1Cent=   0 AccDes= 0.00D+00.
 CoulSu:  requested number of processors reduced to:   5 ShMem   1 Linda.
 Calling FoFCou, ICntrl=  3107 FMM=F I1Cent=   0 AccDes= 0.00D+00.
 CoulSu:  requested number of processors reduced to:   5 ShMem   1 Linda.
 Calling FoFCou, ICntrl=  3107 FMM=F I1Cent=   0 AccDes= 0.00D+00.
 CoulSu:  requested number of processors reduced to:   5 ShMem   1 Linda.
 Calling FoFCou, ICntrl=  3107 FMM=F I1Cent=   0 AccDes= 0.00D+00.
 CoulSu:  requested number of processors reduced to:   5 ShMem   1 Linda.
 Calling FoFCou, ICntrl=  3107 FMM=F I1Cent=   0 AccDes= 0.00D+00.
 CoulSu:  requested number of processors reduced to:   5 ShMem   1 Linda.
 Calling FoFCou, ICntrl=  3107 FMM=F I1Cent=   0 AccDes= 0.00D+00.
 CoulSu:  requested number of processors reduced to:   5 ShMem   1 Linda.
 Calling FoFCou, ICntrl=  3107 FMM=F I1Cent=   0 AccDes= 0.00D+00.
 CoulSu:  requested number of processors reduced to:   5 ShMem   1 Linda.
 Calling FoFCou, ICntrl=  3107 FMM=F I1Cent=   0 AccDes= 0.00D+00.
 CoulSu:  requested number of processors reduced to:   5 ShMem   1 Linda.
 End of G2Drv F.D. properties file   721 does not exist.
 End of G2Drv F.D. properties file   722 does not exist.
 End of G2Drv F.D. properties file   788 does not exist.
          IDoAtm=1111111111111111111
          Differentiating once with respect to electric field.
                with respect to dipole field.
          Differentiating once with respect to nuclear coordinates.
 CoulSu:  requested number of processors reduced to:   7 ShMem   1 Linda.
 PrRfSu:  requested number of processors reduced to:   4 ShMem   1 Linda.
 CoulSu:  requested number of processors reduced to:   7 ShMem   1 Linda.
 PrRfSu:  requested number of processors reduced to:   4 ShMem   1 Linda.
 CoulSu:  requested number of processors reduced to:   7 ShMem   1 Linda.
 PrRfSu:  requested number of processors reduced to:   4 ShMem   1 Linda.
 CoulSu:  requested number of processors reduced to:   7 ShMem   1 Linda.
 PrRfSu:  requested number of processors reduced to:   4 ShMem   1 Linda.
 CoulSu:  requested number of processors reduced to:   7 ShMem   1 Linda.
 PrRfSu:  requested number of processors reduced to:   4 ShMem   1 Linda.
 CoulSu:  requested number of processors reduced to:   7 ShMem   1 Linda.
 PrRfSu:  requested number of processors reduced to:   4 ShMem   1 Linda.
 CoulSu:  requested number of processors reduced to:   7 ShMem   1 Linda.
 PrRfSu:  requested number of processors reduced to:   4 ShMem   1 Linda.
 CoulSu:  requested number of processors reduced to:   7 ShMem   1 Linda.
 PrRfSu:  requested number of processors reduced to:   4 ShMem   1 Linda.
 CoulSu:  requested number of processors reduced to:   7 ShMem   1 Linda.
 PrRfSu:  requested number of processors reduced to:   4 ShMem   1 Linda.
 CoulSu:  requested number of processors reduced to:   7 ShMem   1 Linda.
 PrRfSu:  requested number of processors reduced to:   4 ShMem   1 Linda.
          There are    60 degrees of freedom in the 1st order CPHF.  IDoFFX=6 NUNeed=     3.
     60 vectors produced by pass  0 Test12= 4.51D-14 1.67D-09 XBig12= 8.98D+01 4.95D+00.
 AX will form     6 AO Fock derivatives at one time.
 CoulSu:  requested number of processors reduced to:   7 ShMem   1 Linda.
 PrRfSu:  requested number of processors reduced to:   4 ShMem   1 Linda.
 CoulSu:  requested number of processors reduced to:   7 ShMem   1 Linda.
 PrRfSu:  requested number of processors reduced to:   4 ShMem   1 Linda.
 CoulSu:  requested number of processors reduced to:   7 ShMem   1 Linda.
 PrRfSu:  requested number of processors reduced to:   4 ShMem   1 Linda.
 CoulSu:  requested number of processors reduced to:   7 ShMem   1 Linda.
 PrRfSu:  requested number of processors reduced to:   4 ShMem   1 Linda.
 CoulSu:  requested number of processors reduced to:   7 ShMem   1 Linda.
 PrRfSu:  requested number of processors reduced to:   4 ShMem   1 Linda.
 CoulSu:  requested number of processors reduced to:   7 ShMem   1 Linda.
 PrRfSu:  requested number of processors reduced to:   4 ShMem   1 Linda.
 CoulSu:  requested number of processors reduced to:   7 ShMem   1 Linda.
 PrRfSu:  requested number of processors reduced to:   4 ShMem   1 Linda.
 CoulSu:  requested number of processors reduced to:   7 ShMem   1 Linda.
 PrRfSu:  requested number of processors reduced to:   4 ShMem   1 Linda.
 CoulSu:  requested number of processors reduced to:   7 ShMem   1 Linda.
 PrRfSu:  requested number of processors reduced to:   4 ShMem   1 Linda.
 CoulSu:  requested number of processors reduced to:   7 ShMem   1 Linda.
 PrRfSu:  requested number of processors reduced to:   4 ShMem   1 Linda.
     60 vectors produced by pass  1 Test12= 4.51D-14 1.67D-09 XBig12= 1.39D+01 4.84D-01.
 CoulSu:  requested number of processors reduced to:   7 ShMem   1 Linda.
 PrRfSu:  requested number of processors reduced to:   4 ShMem   1 Linda.
 CoulSu:  requested number of processors reduced to:   7 ShMem   1 Linda.
 PrRfSu:  requested number of processors reduced to:   4 ShMem   1 Linda.
 CoulSu:  requested number of processors reduced to:   7 ShMem   1 Linda.
 PrRfSu:  requested number of processors reduced to:   4 ShMem   1 Linda.
 CoulSu:  requested number of processors reduced to:   7 ShMem   1 Linda.
 PrRfSu:  requested number of processors reduced to:   4 ShMem   1 Linda.
 CoulSu:  requested number of processors reduced to:   7 ShMem   1 Linda.
 PrRfSu:  requested number of processors reduced to:   4 ShMem   1 Linda.
 CoulSu:  requested number of processors reduced to:   7 ShMem   1 Linda.
 PrRfSu:  requested number of processors reduced to:   4 ShMem   1 Linda.
 CoulSu:  requested number of processors reduced to:   7 ShMem   1 Linda.
 PrRfSu:  requested number of processors reduced to:   4 ShMem   1 Linda.
 CoulSu:  requested number of processors reduced to:   7 ShMem   1 Linda.
 PrRfSu:  requested number of processors reduced to:   4 ShMem   1 Linda.
 CoulSu:  requested number of processors reduced to:   7 ShMem   1 Linda.
 PrRfSu:  requested number of processors reduced to:   4 ShMem   1 Linda.
 CoulSu:  requested number of processors reduced to:   7 ShMem   1 Linda.
 PrRfSu:  requested number of processors reduced to:   4 ShMem   1 Linda.
     57 vectors produced by pass  2 Test12= 4.51D-14 1.67D-09 XBig12= 1.68D-01 5.94D-02.
 CoulSu:  requested number of processors reduced to:   7 ShMem   1 Linda.
 PrRfSu:  requested number of processors reduced to:   4 ShMem   1 Linda.
 CoulSu:  requested number of processors reduced to:   7 ShMem   1 Linda.
 PrRfSu:  requested number of processors reduced to:   4 ShMem   1 Linda.
 CoulSu:  requested number of processors reduced to:   7 ShMem   1 Linda.
 PrRfSu:  requested number of processors reduced to:   4 ShMem   1 Linda.
 CoulSu:  requested number of processors reduced to:   7 ShMem   1 Linda.
 PrRfSu:  requested number of processors reduced to:   4 ShMem   1 Linda.
 CoulSu:  requested number of processors reduced to:   7 ShMem   1 Linda.
 PrRfSu:  requested number of processors reduced to:   4 ShMem   1 Linda.
 CoulSu:  requested number of processors reduced to:   7 ShMem   1 Linda.
 PrRfSu:  requested number of processors reduced to:   4 ShMem   1 Linda.
 CoulSu:  requested number of processors reduced to:   7 ShMem   1 Linda.
 PrRfSu:  requested number of processors reduced to:   4 ShMem   1 Linda.
 CoulSu:  requested number of processors reduced to:   7 ShMem   1 Linda.
 PrRfSu:  requested number of processors reduced to:   4 ShMem   1 Linda.
 CoulSu:  requested number of processors reduced to:   7 ShMem   1 Linda.
 PrRfSu:  requested number of processors reduced to:   4 ShMem   1 Linda.
     57 vectors produced by pass  3 Test12= 4.51D-14 1.67D-09 XBig12= 1.04D-03 4.45D-03.
 CoulSu:  requested number of processors reduced to:   7 ShMem   1 Linda.
 PrRfSu:  requested number of processors reduced to:   4 ShMem   1 Linda.
 CoulSu:  requested number of processors reduced to:   7 ShMem   1 Linda.
 PrRfSu:  requested number of processors reduced to:   4 ShMem   1 Linda.
 CoulSu:  requested number of processors reduced to:   7 ShMem   1 Linda.
 PrRfSu:  requested number of processors reduced to:   4 ShMem   1 Linda.
 CoulSu:  requested number of processors reduced to:   7 ShMem   1 Linda.
 PrRfSu:  requested number of processors reduced to:   4 ShMem   1 Linda.
 CoulSu:  requested number of processors reduced to:   7 ShMem   1 Linda.
 PrRfSu:  requested number of processors reduced to:   4 ShMem   1 Linda.
 CoulSu:  requested number of processors reduced to:   7 ShMem   1 Linda.
 PrRfSu:  requested number of processors reduced to:   4 ShMem   1 Linda.
 CoulSu:  requested number of processors reduced to:   7 ShMem   1 Linda.
 PrRfSu:  requested number of processors reduced to:   4 ShMem   1 Linda.
 CoulSu:  requested number of processors reduced to:   7 ShMem   1 Linda.
 PrRfSu:  requested number of processors reduced to:   4 ShMem   1 Linda.
 CoulSu:  requested number of processors reduced to:   7 ShMem   1 Linda.
 PrRfSu:  requested number of processors reduced to:   4 ShMem   1 Linda.
     57 vectors produced by pass  4 Test12= 4.51D-14 1.67D-09 XBig12= 3.56D-06 1.79D-04.
 CoulSu:  requested number of processors reduced to:   7 ShMem   1 Linda.
 PrRfSu:  requested number of processors reduced to:   4 ShMem   1 Linda.
 CoulSu:  requested number of processors reduced to:   7 ShMem   1 Linda.
 PrRfSu:  requested number of processors reduced to:   4 ShMem   1 Linda.
 CoulSu:  requested number of processors reduced to:   7 ShMem   1 Linda.
 PrRfSu:  requested number of processors reduced to:   4 ShMem   1 Linda.
 CoulSu:  requested number of processors reduced to:   7 ShMem   1 Linda.
 PrRfSu:  requested number of processors reduced to:   4 ShMem   1 Linda.
 CoulSu:  requested number of processors reduced to:   7 ShMem   1 Linda.
 PrRfSu:  requested number of processors reduced to:   4 ShMem   1 Linda.
 CoulSu:  requested number of processors reduced to:   7 ShMem   1 Linda.
 PrRfSu:  requested number of processors reduced to:   4 ShMem   1 Linda.
 CoulSu:  requested number of processors reduced to:   7 ShMem   1 Linda.
 PrRfSu:  requested number of processors reduced to:   4 ShMem   1 Linda.
 CoulSu:  requested number of processors reduced to:   7 ShMem   1 Linda.
 PrRfSu:  requested number of processors reduced to:   4 ShMem   1 Linda.
 CoulSu:  requested number of processors reduced to:   7 ShMem   1 Linda.
 PrRfSu:  requested number of processors reduced to:   4 ShMem   1 Linda.
     57 vectors produced by pass  5 Test12= 4.51D-14 1.67D-09 XBig12= 6.96D-09 7.86D-06.
 CoulSu:  requested number of processors reduced to:   7 ShMem   1 Linda.
 PrRfSu:  requested number of processors reduced to:   4 ShMem   1 Linda.
 CoulSu:  requested number of processors reduced to:   7 ShMem   1 Linda.
 PrRfSu:  requested number of processors reduced to:   4 ShMem   1 Linda.
 CoulSu:  requested number of processors reduced to:   7 ShMem   1 Linda.
 PrRfSu:  requested number of processors reduced to:   4 ShMem   1 Linda.
 CoulSu:  requested number of processors reduced to:   7 ShMem   1 Linda.
 PrRfSu:  requested number of processors reduced to:   4 ShMem   1 Linda.
 CoulSu:  requested number of processors reduced to:   7 ShMem   1 Linda.
 PrRfSu:  requested number of processors reduced to:   4 ShMem   1 Linda.
 CoulSu:  requested number of processors reduced to:   7 ShMem   1 Linda.
 PrRfSu:  requested number of processors reduced to:   4 ShMem   1 Linda.
 CoulSu:  requested number of processors reduced to:   7 ShMem   1 Linda.
 PrRfSu:  requested number of processors reduced to:   4 ShMem   1 Linda.
 CoulSu:  requested number of processors reduced to:   7 ShMem   1 Linda.
 PrRfSu:  requested number of processors reduced to:   4 ShMem   1 Linda.
 CoulSu:  requested number of processors reduced to:   7 ShMem   1 Linda.
 PrRfSu:  requested number of processors reduced to:   4 ShMem   1 Linda.
     32 vectors produced by pass  6 Test12= 4.51D-14 1.67D-09 XBig12= 1.35D-11 4.58D-07.
 CoulSu:  requested number of processors reduced to:   7 ShMem   1 Linda.
 PrRfSu:  requested number of processors reduced to:   4 ShMem   1 Linda.
 CoulSu:  requested number of processors reduced to:   7 ShMem   1 Linda.
 PrRfSu:  requested number of processors reduced to:   4 ShMem   1 Linda.
 PrRfSu:  requested number of processors reduced to:   4 ShMem   1 Linda.
 CoulSu:  requested number of processors reduced to:   7 ShMem   1 Linda.
 PrRfSu:  requested number of processors reduced to:   4 ShMem   1 Linda.
 PrRfSu:  requested number of processors reduced to:   4 ShMem   1 Linda.
      6 vectors produced by pass  7 Test12= 4.51D-14 1.67D-09 XBig12= 1.29D-13 2.23D-08.
 CoulSu:  requested number of processors reduced to:   7 ShMem   1 Linda.
 PrRfSu:  requested number of processors reduced to:   4 ShMem   1 Linda.
      3 vectors produced by pass  8 Test12= 4.51D-14 1.67D-09 XBig12= 2.13D-15 3.68D-09.
      3 vectors produced by pass  9 Test12= 4.51D-14 1.67D-09 XBig12= 3.59D-15 4.33D-09.
      3 vectors produced by pass 10 Test12= 4.51D-14 1.67D-09 XBig12= 6.10D-15 4.90D-09.
      3 vectors produced by pass 11 Test12= 4.51D-14 1.67D-09 XBig12= 6.81D-15 6.08D-09.
      2 vectors produced by pass 12 Test12= 4.51D-14 1.67D-09 XBig12= 5.07D-15 4.83D-09.
 InvSVY:  IOpt=1 It=  1 EMax= 7.11D-15
 Solved reduced A of dimension   400 with    60 vectors.
 Isotropic polarizability for W=    0.000000       99.91 Bohr**3.
 End of Minotr F.D. properties file   721 does not exist.
 End of Minotr F.D. properties file   722 does not exist.
 End of Minotr F.D. properties file   788 does not exist.

 **********************************************************************

            Population analysis using the SCF density.

 **********************************************************************

 Orbital symmetries:
       Occupied  (A) (A) (A) (A) (A) (A) (A) (A) (A) (A) (A) (A)
                 (A) (A) (A) (A) (A) (A) (A) (A) (A) (A) (A) (A)
                 (A) (A) (A) (A) (A) (A) (A) (A) (A) (A) (A) (A)
                 (A) (A) (A) (A) (A) (A) (A) (A) (A) (A) (A)
       Virtual   (A) (A) (A) (A) (A) (A) (A) (A) (A) (A) (A) (A)
                 (A) (A) (A) (A) (A) (A) (A) (A) (A) (A) (A) (A)
                 (A) (A) (A) (A) (A) (A) (A) (A) (A) (A) (A) (A)
                 (A) (A) (A) (A) (A) (A) (A) (A) (A) (A) (A) (A)
                 (A) (A) (A) (A) (A) (A) (A) (A) (A) (A) (A) (A)
                 (A) (A) (A) (A) (A) (A) (A) (A) (A) (A) (A) (A)
                 (A) (A) (A) (A) (A) (A) (A) (A) (A) (A) (A) (A)
                 (A) (A) (A) (A) (A) (A) (A) (A) (A) (A) (A) (A)
                 (A) (A) (A) (A) (A) (A) (A) (A) (A) (A) (A) (A)
                 (A) (A) (A) (A) (A) (A) (A) (A) (A) (A) (A) (A)
                 (A) (A) (A) (A) (A) (A) (A) (A) (A) (A) (A) (A)
                 (A) (A) (A) (A) (A) (A) (A) (A) (A) (A) (A) (A)
                 (A) (A) (A) (A) (A) (A) (A) (A) (A) (A) (A) (A)
                 (A) (A) (A) (A) (A) (A) (A) (A) (A) (A) (A) (A)
                 (A) (A) (A) (A) (A) (A) (A) (A) (A) (A) (A) (A)
                 (A) (A) (A) (A) (A) (A) (A) (A) (A) (A) (A) (A)
                 (A) (A) (A) (A) (A) (A) (A) (A) (A) (A) (A) (A)
                 (A) (A) (A) (A) (A) (A) (A) (A) (A) (A) (A) (A)
                 (A) (A) (A) (A) (A) (A) (A) (A) (A) (A) (A) (A)
                 (A) (A) (A) (A) (A) (A) (A) (A) (A) (A) (A) (A)
                 (A) (A) (A) (A) (A) (A) (A) (A) (A) (A) (A) (A)
                 (A) (A) (A) (A) (A) (A) (A) (A) (A) (A) (A) (A)
                 (A) (A) (A) (A) (A) (A) (A) (A) (A) (A) (A) (A)
                 (A) (A) (A) (A) (A) (A) (A) (A) (A) (A) (A) (A)
                 (A) (A) (A) (A) (A) (A) (A) (A) (A) (A) (A) (A)
                 (A) (A) (A) (A) (A) (A) (A) (A) (A) (A) (A) (A)
                 (A) (A) (A) (A) (A) (A) (A) (A) (A) (A) (A) (A)
                 (A) (A) (A) (A) (A) (A) (A) (A) (A) (A) (A) (A)
                 (A) (A) (A) (A) (A) (A) (A) (A) (A) (A) (A) (A)
                 (A) (A) (A) (A) (A) (A) (A) (A) (A) (A) (A) (A)
                 (A) (A) (A) (A) (A) (A) (A) (A) (A) (A) (A) (A)
                 (A) (A) (A) (A) (A) (A) (A) (A) (A) (A) (A) (A)
                 (A) (A) (A) (A) (A) (A) (A) (A) (A) (A) (A) (A)
                 (A) (A) (A) (A) (A) (A) (A) (A) (A) (A) (A) (A)
                 (A) (A) (A) (A) (A) (A) (A) (A) (A) (A) (A) (A)
                 (A) (A) (A) (A) (A) (A) (A) (A) (A) (A) (A) (A)
                 (A) (A) (A) (A) (A) (A) (A) (A) (A) (A) (A) (A)
                 (A) (A) (A) (A) (A) (A) (A) (A) (A) (A) (A) (A)
                 (A) (A) (A) (A) (A) (A) (A) (A) (A) (A) (A) (A)
                 (A) (A) (A) (A) (A) (A) (A) (A) (A) (A) (A) (A)
                 (A) (A) (A) (A) (A) (A) (A) (A) (A) (A) (A) (A)
                 (A) (A) (A) (A) (A) (A) (A) (A) (A) (A) (A) (A)
                 (A) (A) (A) (A) (A) (A) (A) (A) (A) (A) (A) (A)
                 (A) (A) (A) (A) (A) (A) (A) (A) (A) (A) (A) (A)
                 (A) (A) (A) (A) (A) (A) (A) (A) (A) (A) (A) (A)
                 (A) (A) (A) (A) (A) (A) (A) (A) (A) (A) (A) (A)
                 (A) (A) (A) (A) (A) (A) (A) (A) (A) (A) (A) (A)
                 (A) (A) (A) (A) (A) (A) (A) (A) (A) (A) (A) (A)
 The electronic state is 1-A.
 Alpha  occ. eigenvalues -- -482.79785 -62.44470 -56.26051 -56.25781 -56.25771
 Alpha  occ. eigenvalues --  -19.21257 -19.17104 -19.11026 -10.32221 -10.26804
 Alpha  occ. eigenvalues --  -10.24158 -10.17407  -8.63437  -6.46206  -6.45382
 Alpha  occ. eigenvalues --   -6.45356  -2.57681  -2.57461  -2.57439  -2.56781
 Alpha  occ. eigenvalues --   -2.56780  -1.12201  -1.07076  -1.01075  -0.76569
 Alpha  occ. eigenvalues --   -0.75507  -0.72005  -0.69970  -0.58786  -0.58454
 Alpha  occ. eigenvalues --   -0.56780  -0.50123  -0.49863  -0.48471  -0.48244
 Alpha  occ. eigenvalues --   -0.44964  -0.43208  -0.42365  -0.41167  -0.39088
 Alpha  occ. eigenvalues --   -0.37936  -0.35958  -0.31702  -0.29116  -0.25904
 Alpha  occ. eigenvalues --   -0.24600  -0.24005
 Alpha virt. eigenvalues --   -0.02879  -0.01398  -0.00886   0.00157   0.00490
 Alpha virt. eigenvalues --    0.01150   0.01959   0.02352   0.03202   0.04127
 Alpha virt. eigenvalues --    0.04592   0.04909   0.05538   0.05725   0.06272
 Alpha virt. eigenvalues --    0.06674   0.07491   0.07807   0.08290   0.08489
 Alpha virt. eigenvalues --    0.08675   0.09491   0.09884   0.10046   0.10659
 Alpha virt. eigenvalues --    0.11176   0.11446   0.11535   0.11990   0.12522
 Alpha virt. eigenvalues --    0.13285   0.13683   0.14259   0.14569   0.15420
 Alpha virt. eigenvalues --    0.15908   0.16271   0.17385   0.18522   0.18596
 Alpha virt. eigenvalues --    0.18771   0.19427   0.20358   0.20796   0.21087
 Alpha virt. eigenvalues --    0.21699   0.22215   0.23044   0.23630   0.24018
 Alpha virt. eigenvalues --    0.24887   0.25246   0.25421   0.26132   0.26325
 Alpha virt. eigenvalues --    0.27047   0.27121   0.27464   0.27912   0.28783
 Alpha virt. eigenvalues --    0.29391   0.29602   0.29806   0.30661   0.30840
 Alpha virt. eigenvalues --    0.31181   0.31479   0.31955   0.32211   0.32592
 Alpha virt. eigenvalues --    0.33282   0.33491   0.33995   0.34423   0.34649
 Alpha virt. eigenvalues --    0.35145   0.35900   0.36215   0.36707   0.37365
 Alpha virt. eigenvalues --    0.38321   0.38520   0.38947   0.39274   0.39679
 Alpha virt. eigenvalues --    0.40218   0.40470   0.40984   0.41641   0.42250
 Alpha virt. eigenvalues --    0.42782   0.43249   0.43987   0.44340   0.44608
 Alpha virt. eigenvalues --    0.45109   0.45859   0.46963   0.47327   0.48221
 Alpha virt. eigenvalues --    0.48655   0.49150   0.49713   0.50315   0.51736
 Alpha virt. eigenvalues --    0.51981   0.53061   0.53815   0.54572   0.54874
 Alpha virt. eigenvalues --    0.55873   0.56683   0.57604   0.58363   0.59433
 Alpha virt. eigenvalues --    0.60565   0.60996   0.61912   0.62538   0.62981
 Alpha virt. eigenvalues --    0.63346   0.64669   0.65266   0.65763   0.66214
 Alpha virt. eigenvalues --    0.67167   0.67864   0.68355   0.69433   0.69654
 Alpha virt. eigenvalues --    0.70019   0.71338   0.71596   0.72192   0.72908
 Alpha virt. eigenvalues --    0.73574   0.74491   0.75423   0.76202   0.76722
 Alpha virt. eigenvalues --    0.76953   0.77725   0.77865   0.78534   0.78658
 Alpha virt. eigenvalues --    0.79368   0.80464   0.80871   0.81432   0.82064
 Alpha virt. eigenvalues --    0.82596   0.83316   0.84390   0.84744   0.85756
 Alpha virt. eigenvalues --    0.86659   0.87258   0.88224   0.89218   0.89604
 Alpha virt. eigenvalues --    0.90374   0.91205   0.91750   0.92726   0.93610
 Alpha virt. eigenvalues --    0.94293   0.94814   0.95500   0.96130   0.96199
 Alpha virt. eigenvalues --    0.97679   0.98162   0.98663   0.99843   1.00576
 Alpha virt. eigenvalues --    1.01232   1.01774   1.02291   1.03316   1.04031
 Alpha virt. eigenvalues --    1.04442   1.05866   1.06121   1.06221   1.07106
 Alpha virt. eigenvalues --    1.07973   1.08279   1.09202   1.10055   1.11407
 Alpha virt. eigenvalues --    1.11760   1.13705   1.14010   1.14442   1.14677
 Alpha virt. eigenvalues --    1.15763   1.17117   1.18030   1.18417   1.19108
 Alpha virt. eigenvalues --    1.19928   1.21019   1.22281   1.23016   1.23474
 Alpha virt. eigenvalues --    1.23622   1.25618   1.26304   1.26503   1.27411
 Alpha virt. eigenvalues --    1.27634   1.29009   1.29322   1.30524   1.32066
 Alpha virt. eigenvalues --    1.32389   1.33287   1.33568   1.34111   1.36122
 Alpha virt. eigenvalues --    1.36867   1.37161   1.38525   1.38656   1.39613
 Alpha virt. eigenvalues --    1.41162   1.41596   1.42763   1.43148   1.43401
 Alpha virt. eigenvalues --    1.45041   1.45323   1.45676   1.46479   1.47245
 Alpha virt. eigenvalues --    1.47336   1.47797   1.48400   1.49115   1.50102
 Alpha virt. eigenvalues --    1.50603   1.51244   1.51890   1.52337   1.54109
 Alpha virt. eigenvalues --    1.54352   1.55722   1.56514   1.58103   1.58312
 Alpha virt. eigenvalues --    1.59173   1.59463   1.60062   1.61477   1.62282
 Alpha virt. eigenvalues --    1.62340   1.63928   1.64332   1.65519   1.65835
 Alpha virt. eigenvalues --    1.66956   1.67668   1.67908   1.68507   1.69844
 Alpha virt. eigenvalues --    1.70706   1.72032   1.72959   1.73133   1.74365
 Alpha virt. eigenvalues --    1.75399   1.76075   1.78077   1.78789   1.79484
 Alpha virt. eigenvalues --    1.80507   1.82067   1.83278   1.83697   1.85721
 Alpha virt. eigenvalues --    1.85962   1.86059   1.87797   1.89263   1.89616
 Alpha virt. eigenvalues --    1.91706   1.92179   1.93323   1.94440   1.94958
 Alpha virt. eigenvalues --    1.95697   1.97005   1.97598   1.98908   1.99038
 Alpha virt. eigenvalues --    2.00929   2.01803   2.02312   2.03340   2.04509
 Alpha virt. eigenvalues --    2.06601   2.07749   2.08173   2.08376   2.10219
 Alpha virt. eigenvalues --    2.11183   2.12652   2.13812   2.16800   2.19170
 Alpha virt. eigenvalues --    2.19394   2.20401   2.22301   2.24414   2.26787
 Alpha virt. eigenvalues --    2.27809   2.31224   2.32409   2.35888   2.36678
 Alpha virt. eigenvalues --    2.36967   2.39534   2.43070   2.44801   2.45959
 Alpha virt. eigenvalues --    2.47345   2.48720   2.52773   2.53954   2.55780
 Alpha virt. eigenvalues --    2.56474   2.59116   2.60238   2.62639   2.64062
 Alpha virt. eigenvalues --    2.65434   2.68170   2.69993   2.71764   2.73877
 Alpha virt. eigenvalues --    2.74643   2.76639   2.78523   2.79371   2.82782
 Alpha virt. eigenvalues --    2.84349   2.86899   2.88333   2.91125   2.92272
 Alpha virt. eigenvalues --    2.94291   2.94667   2.95886   2.99656   3.00715
 Alpha virt. eigenvalues --    3.02385   3.03951   3.07579   3.10420   3.12957
 Alpha virt. eigenvalues --    3.13148   3.15142   3.17550   3.19961   3.21839
 Alpha virt. eigenvalues --    3.24460   3.25635   3.27591   3.29449   3.31301
 Alpha virt. eigenvalues --    3.31647   3.32862   3.33316   3.34849   3.36148
 Alpha virt. eigenvalues --    3.36560   3.38040   3.39801   3.39960   3.41441
 Alpha virt. eigenvalues --    3.41524   3.44780   3.44986   3.46457   3.48176
 Alpha virt. eigenvalues --    3.49781   3.52110   3.53284   3.54579   3.55808
 Alpha virt. eigenvalues --    3.57141   3.58324   3.59697   3.60393   3.62403
 Alpha virt. eigenvalues --    3.62839   3.65450   3.67390   3.68217   3.69268
 Alpha virt. eigenvalues --    3.70429   3.72371   3.74325   3.75030   3.76382
 Alpha virt. eigenvalues --    3.77962   3.79491   3.81075   3.82577   3.83463
 Alpha virt. eigenvalues --    3.85448   3.87705   3.90172   3.91499   3.92059
 Alpha virt. eigenvalues --    3.93431   3.93790   3.94797   3.96918   3.98780
 Alpha virt. eigenvalues --    4.00646   4.01961   4.02828   4.04301   4.05220
 Alpha virt. eigenvalues --    4.07096   4.09321   4.10799   4.11027   4.13746
 Alpha virt. eigenvalues --    4.14187   4.16368   4.17448   4.18102   4.20177
 Alpha virt. eigenvalues --    4.22978   4.23323   4.24431   4.25580   4.26753
 Alpha virt. eigenvalues --    4.28083   4.30764   4.30901   4.32567   4.34535
 Alpha virt. eigenvalues --    4.35918   4.38793   4.39564   4.39988   4.41495
 Alpha virt. eigenvalues --    4.42481   4.42972   4.45812   4.46550   4.47867
 Alpha virt. eigenvalues --    4.48450   4.50456   4.52522   4.53611   4.55495
 Alpha virt. eigenvalues --    4.57031   4.58592   4.61167   4.62042   4.63659
 Alpha virt. eigenvalues --    4.66500   4.66939   4.69741   4.72000   4.72449
 Alpha virt. eigenvalues --    4.74202   4.74659   4.75159   4.78335   4.81821
 Alpha virt. eigenvalues --    4.83915   4.85725   4.87610   4.88516   4.89113
 Alpha virt. eigenvalues --    4.91699   4.92574   4.94555   4.98449   4.99891
 Alpha virt. eigenvalues --    5.01833   5.02512   5.06716   5.08594   5.09282
 Alpha virt. eigenvalues --    5.10689   5.12799   5.14854   5.16250   5.18918
 Alpha virt. eigenvalues --    5.21850   5.25506   5.27649   5.28886   5.29441
 Alpha virt. eigenvalues --    5.33145   5.33994   5.35537   5.37173   5.38371
 Alpha virt. eigenvalues --    5.39823   5.46518   5.47383   5.54052   5.61368
 Alpha virt. eigenvalues --    5.64663   5.67400   5.69013   5.70631   5.74396
 Alpha virt. eigenvalues --    5.75877   5.78268   5.78918   5.81453   5.84109
 Alpha virt. eigenvalues --    5.85289   5.86082   5.98517   6.11192   6.22923
 Alpha virt. eigenvalues --    6.29014   6.31385   6.37089   6.38394   6.42068
 Alpha virt. eigenvalues --    6.45439   6.50060   6.54818   6.57746   6.63060
 Alpha virt. eigenvalues --    6.68745   6.72727   6.74838   6.76440   6.78552
 Alpha virt. eigenvalues --    6.79642   6.83330   6.83516   6.87411   6.91619
 Alpha virt. eigenvalues --    6.93085   6.96123   7.02507   7.05752   7.07330
 Alpha virt. eigenvalues --    7.13330   7.14221   7.21931   7.25369   7.26961
 Alpha virt. eigenvalues --    7.31158   7.33480   7.41060   7.47176   7.54388
 Alpha virt. eigenvalues --    7.63557   7.69231   7.73749   7.81816   7.95424
 Alpha virt. eigenvalues --    8.03091   8.13963   8.27388   8.48818  15.35588
 Alpha virt. eigenvalues --   15.82350  15.95429  16.51496  17.37151  17.74868
 Alpha virt. eigenvalues --   18.01678
          Condensed to atoms (all electrons):
               1          2          3          4          5          6
     1  C    5.594594  -0.111010  -0.292229   0.013850  -0.023021   0.007743
     2  O   -0.111010   8.890998  -0.015035  -0.168197   0.028632  -0.000503
     3  O   -0.292229  -0.015035   8.837428  -0.224444   0.010811  -0.012102
     4  O    0.013850  -0.168197  -0.224444   8.566706   0.058507  -0.020922
     5  C   -0.023021   0.028632   0.010811   0.058507   5.337637   0.376422
     6  H    0.007743  -0.000503  -0.012102  -0.020922   0.376422   0.327330
     7  H   -0.006179   0.003250  -0.002732   0.016096   0.389950   0.003120
     8  H   -0.006946   0.000999   0.003829  -0.006754   0.395708   0.003740
     9  H    0.049446  -0.011149   0.065627  -0.018302   0.009114   0.011000
    10  H    0.060920   0.082368  -0.029095  -0.022722   0.014524   0.013090
    11  C   -0.312957   0.063196   0.051624  -0.040986  -0.004085   0.000407
    12  H   -0.058564  -0.005233   0.019441  -0.001185  -0.000053   0.000075
    13  H   -0.082219   0.002226  -0.007475  -0.000563  -0.000563  -0.000073
    14  H    0.118215  -0.007605  -0.031351   0.003279   0.000619   0.000205
    15  C   -0.216480   0.072767   0.100052   0.012761   0.009470  -0.001771
    16  H    0.028389   0.007463  -0.045467   0.004338  -0.000872   0.001135
    17  H   -0.026663   0.008747  -0.019352  -0.003068   0.003536  -0.000011
    18  H   -0.004160   0.035163  -0.032528  -0.007010   0.002936  -0.000442
    19  Br   0.685249  -0.063187  -0.194800  -0.020837  -0.005576   0.000712
               7          8          9         10         11         12
     1  C   -0.006179  -0.006946   0.049446   0.060920  -0.312957  -0.058564
     2  O    0.003250   0.000999  -0.011149   0.082368   0.063196  -0.005233
     3  O   -0.002732   0.003829   0.065627  -0.029095   0.051624   0.019441
     4  O    0.016096  -0.006754  -0.018302  -0.022722  -0.040986  -0.001185
     5  C    0.389950   0.395708   0.009114   0.014524  -0.004085  -0.000053
     6  H    0.003120   0.003740   0.011000   0.013090   0.000407   0.000075
     7  H    0.334897   0.008460  -0.018965  -0.007673  -0.000944  -0.000073
     8  H    0.008460   0.323816  -0.002603  -0.007101  -0.000344   0.000005
     9  H   -0.018965  -0.002603   0.696630   0.062538   0.005514  -0.001533
    10  H   -0.007673  -0.007101   0.062538   0.687985   0.008999  -0.006680
    11  C   -0.000944  -0.000344   0.005514   0.008999   5.811629   0.420974
    12  H   -0.000073   0.000005  -0.001533  -0.006680   0.420974   0.447909
    13  H   -0.000090  -0.000126   0.003768   0.004905   0.478884  -0.005166
    14  H   -0.000005   0.000032  -0.000781   0.001343   0.260124  -0.045662
    15  C    0.003864   0.001998  -0.035737  -0.013244   0.000709   0.011807
    16  H   -0.000038  -0.000269  -0.000622   0.000690  -0.007414   0.000416
    17  H    0.000839   0.000806   0.008351   0.000594  -0.000397  -0.000018
    18  H    0.000600   0.000460  -0.003769  -0.006880   0.003973   0.003915
    19  Br  -0.001129  -0.000215   0.003264  -0.029707  -0.140094   0.000599
              13         14         15         16         17         18
     1  C   -0.082219   0.118215  -0.216480   0.028389  -0.026663  -0.004160
     2  O    0.002226  -0.007605   0.072767   0.007463   0.008747   0.035163
     3  O   -0.007475  -0.031351   0.100052  -0.045467  -0.019352  -0.032528
     4  O   -0.000563   0.003279   0.012761   0.004338  -0.003068  -0.007010
     5  C   -0.000563   0.000619   0.009470  -0.000872   0.003536   0.002936
     6  H   -0.000073   0.000205  -0.001771   0.001135  -0.000011  -0.000442
     7  H   -0.000090  -0.000005   0.003864  -0.000038   0.000839   0.000600
     8  H   -0.000126   0.000032   0.001998  -0.000269   0.000806   0.000460
     9  H    0.003768  -0.000781  -0.035737  -0.000622   0.008351  -0.003769
    10  H    0.004905   0.001343  -0.013244   0.000690   0.000594  -0.006880
    11  C    0.478884   0.260124   0.000709  -0.007414  -0.000397   0.003973
    12  H   -0.005166  -0.045662   0.011807   0.000416  -0.000018   0.003915
    13  H    0.417051  -0.036059  -0.006413   0.003170  -0.000049  -0.004191
    14  H   -0.036059   0.573690  -0.006406  -0.006960   0.001976  -0.010538
    15  C   -0.006413  -0.006406   5.484077   0.399572   0.425828   0.344775
    16  H    0.003170  -0.006960   0.399572   0.401661  -0.000646   0.000930
    17  H   -0.000049   0.001976   0.425828  -0.000646   0.408198  -0.004657
    18  H   -0.004191  -0.010538   0.344775   0.000930  -0.004657   0.396792
    19  Br  -0.038211   0.020081  -0.017562   0.003807  -0.002400   0.002808
              19
     1  C    0.685249
     2  O   -0.063187
     3  O   -0.194800
     4  O   -0.020837
     5  C   -0.005576
     6  H    0.000712
     7  H   -0.001129
     8  H   -0.000215
     9  H    0.003264
    10  H   -0.029707
    11  C   -0.140094
    12  H    0.000599
    13  H   -0.038211
    14  H    0.020081
    15  C   -0.017562
    16  H    0.003807
    17  H   -0.002400
    18  H    0.002808
    19  Br  35.032407
 Mulliken charges:
               1
     1  C    0.582022
     2  O   -0.813892
     3  O   -0.182201
     4  O   -0.140546
     5  C   -0.603695
     6  H    0.290845
     7  H    0.276751
     8  H    0.284504
     9  H    0.178207
    10  H    0.185146
    11  C   -0.598813
    12  H    0.219025
    13  H    0.271194
    14  H    0.165802
    15  C   -0.570068
    16  H    0.210716
    17  H    0.198387
    18  H    0.281824
    19  Br  -0.235208
 Sum of Mulliken charges =   0.00000
 Mulliken charges with hydrogens summed into heavy atoms:
               1
     1  C    0.582022
     2  O   -0.813892
     3  O   -0.182201
     4  O    0.222807
     5  C    0.248404
    11  C    0.057208
    15  C    0.120859
    19  Br  -0.235208
 APT charges:
               1
     1  C    1.579222
     2  O   -1.133246
     3  O   -0.956859
     4  O   -0.869179
     5  C    0.474400
     6  H   -0.017045
     7  H   -0.003787
     8  H    0.010230
     9  H    0.586863
    10  H    0.676458
    11  C   -0.118691
    12  H    0.031478
    13  H    0.024182
    14  H   -0.012834
    15  C    0.400905
    16  H   -0.016586
    17  H   -0.018041
    18  H   -0.023808
    19  Br  -0.613662
 Sum of APT charges =   0.00000
 APT charges with hydrogens summed into heavy atoms:
               1
     1  C    1.579222
     2  O   -1.133246
     3  O   -0.956859
     4  O    0.394142
     5  C    0.463798
    11  C   -0.075864
    15  C    0.342470
    19  Br  -0.613662
 Electronic spatial extent (au):  <R**2>=           1715.4146
 Charge=              0.0000 electrons
 Dipole moment (field-independent basis, Debye):
    X=             -6.4614    Y=              2.3111    Z=             -0.9351  Tot=              6.9257
 Quadrupole moment (field-independent basis, Debye-Ang):
   XX=            -51.7303   YY=            -58.3343   ZZ=            -66.7332
   XY=              6.2528   XZ=              2.4956   YZ=             -1.8150
 Traceless Quadrupole moment (field-independent basis, Debye-Ang):
   XX=              7.2023   YY=              0.5983   ZZ=             -7.8006
   XY=              6.2528   XZ=              2.4956   YZ=             -1.8150
 Octapole moment (field-independent basis, Debye-Ang**2):
  XXX=            -23.3707  YYY=            -14.6691  ZZZ=            -12.2373  XYY=              1.4871
  XXY=            -18.5834  XXZ=             -1.0122  XZZ=              7.3741  YZZ=             -9.0384
  YYZ=             -3.5482  XYZ=              5.3510
 Hexadecapole moment (field-independent basis, Debye-Ang**3):
 XXXX=          -1025.4300 YYYY=           -647.6071 ZZZZ=           -279.6286 XXXY=             28.3471
 XXXZ=            -14.7725 YYYX=            -24.7905 YYYZ=             -4.7623 ZZZX=             -1.0121
 ZZZY=             -2.1428 XXYY=           -271.9274 XXZZ=           -224.9470 YYZZ=           -147.8905
 XXYZ=             -2.9309 YYXZ=             -4.3337 ZZXY=             -1.3241
 N-N= 6.820332528240D+02 E-N=-8.418576671282D+03  KE= 2.952849103021D+03
  Exact polarizability: 112.629  -5.284 102.643  -1.600   3.024  84.467
 Approx polarizability: 151.613 -16.148 145.340 -11.636   9.644 133.270
 PrsmSu:  requested number of processors reduced to:   2 ShMem   1 Linda.
 PrsmSu:  requested number of processors reduced to:   4 ShMem   1 Linda.
   1 Symmetry operations used in ECPInt.
 ECPInt:  NShTT=   22791 NPrTT=   61447 LenC2=   22396 LenP2D=   49441.
 LDataN:  DoStor=T MaxTD1= 8 Len=  415
 Calling FoFJK, ICntrl=    100127 FMM=F ISym2X=0 I1Cent= 0 IOpClX= 0 NMat=1 NMatS=1 NMatT=0.
 CoulSu:  requested number of processors reduced to:   4 ShMem   1 Linda.
 Full mass-weighted force constant matrix:
 Low frequencies --- -614.4212  -41.1626  -28.1486  -16.1821   -0.0036    0.0079
 Low frequencies ---    0.0151   38.8560   76.4522
 ******    1 imaginary frequencies (negative Signs) ****** 
 Diagonal vibrational polarizability:
      161.0082992      92.7305884      18.0832611
 Harmonic frequencies (cm**-1), IR intensities (KM/Mole), Raman scattering
 activities (A**4/AMU), depolarization ratios for plane and unpolarized
 incident light, reduced masses (AMU), force constants (mDyne/A),
 and normal coordinates:
                      1                      2                      3
                      A                      A                      A
 Frequencies --   -614.2596                36.4078                76.0547
 Red. masses --      1.5812                 4.3658                 2.7632
 Frc consts  --      0.3515                 0.0034                 0.0094
 IR Inten    --    447.0499                 2.5297                 0.1923
  Atom  AN      X      Y      Z        X      Y      Z        X      Y      Z
     1   6     0.00   0.00  -0.13     0.04   0.09  -0.01     0.02  -0.02  -0.02
     2   8    -0.07  -0.06  -0.05     0.01   0.17   0.01     0.01  -0.01  -0.02
     3   8     0.07   0.04   0.02     0.05   0.10  -0.01     0.03  -0.04  -0.03
     4   8     0.00  -0.01   0.08     0.16   0.01   0.01     0.00  -0.01  -0.01
     5   6     0.01   0.00   0.01     0.17  -0.16  -0.15    -0.03   0.23  -0.07
     6   1     0.00  -0.01   0.00     0.04  -0.21  -0.30     0.13   0.31  -0.16
     7   1    -0.01  -0.01   0.01     0.34  -0.29  -0.14    -0.06   0.22  -0.05
     8   1    -0.01   0.01   0.01     0.15  -0.12  -0.12    -0.17   0.33  -0.04
     9   1    -0.27  -0.39  -0.12     0.14  -0.02  -0.03     0.10  -0.08  -0.03
    10   1     0.50   0.66   0.14     0.04   0.12   0.02     0.00   0.02  -0.01
    11   6    -0.02  -0.02   0.02     0.13   0.03  -0.07     0.00   0.00  -0.04
    12   1    -0.03  -0.04   0.03     0.10   0.06  -0.05    -0.03   0.05  -0.02
    13   1     0.00   0.00   0.04     0.15  -0.07  -0.06     0.01  -0.02  -0.03
    14   1    -0.01  -0.02   0.02     0.19   0.09  -0.14    -0.02  -0.01  -0.10
    15   6     0.02   0.01   0.01    -0.11   0.03   0.15    -0.21  -0.15   0.13
    16   1    -0.03   0.05   0.01    -0.23   0.13   0.17    -0.37   0.00   0.17
    17   1     0.04  -0.04   0.01    -0.16   0.02   0.19    -0.24  -0.20   0.17
    18   1    -0.01  -0.01   0.00    -0.07  -0.12   0.22    -0.18  -0.34   0.20
    19  35     0.00   0.01   0.00    -0.09  -0.05   0.01     0.04   0.00   0.01
                      4                      5                      6
                      A                      A                      A
 Frequencies --    101.8780               136.8954               155.1986
 Red. masses --      1.0755                 3.5697                 3.3765
[...]
 0106852,-0.01623236,-0.03882356,-0.04331840,-0.02231012,-0.01218488,-0
 .03653055,0.01440183,0.44285381,0.01172672,-0.00569759,-0.00604106,-0.
 03747503,-0.01830508,-0.01803630,-0.03574923,-0.03847475,0.01466731,0.
 14473978,0.29181915,0.00721323,0.00546766,-0.04526373,-0.06006451,-0.0
 4763290,0.00261740,0.02944481,0.02850863,0.01116174,0.00857454,-0.0617
 7602,0.34284222,-0.00516913,-0.00053150,0.00309248,0.01036089,0.007047
 27,0.00109845,0.00642269,0.00878061,-0.00224376,-0.19664743,-0.0134671
 8,0.00341660,0.42829561,-0.00004561,-0.00006122,0.00005748,-0.00061282
 ,-0.00137893,-0.00211738,-0.00076290,-0.00397004,0.00166509,0.00391490
 ,-0.06826736,0.00833653,-0.01003778,0.59320313,0.00118257,0.00067826,-
 0.00524865,-0.00588244,-0.00764392,-0.00265426,0.00235847,0.00477794,0
 .00011822,0.00227462,0.01060682,-0.09576883,0.00645496,-0.00518979,0.6
 1157303,-0.00002754,0.00047524,-0.00037638,-0.00067594,-0.00125606,-0.
 00025110,-0.00036731,-0.00117585,0.00031974,-0.03479571,0.02670148,0.0
 0246363,-0.08762591,0.08720059,0.00823421,0.10810018,-0.00017756,-0.00
 005473,0.00006897,0.00051154,0.00030973,0.00031648,0.00058399,0.000700
 62,-0.00036225,-0.00191316,0.01214952,0.00038274,0.09507196,-0.2738560
 4,-0.02007292,-0.10439580,0.28695553,-0.00010663,-0.00023317,0.0008546
 2,0.00059548,0.00015988,-0.00039252,-0.00038551,-0.00001950,-0.0003693
 5,0.00127289,0.00002715,0.00234607,0.00841820,-0.02037907,-0.05615145,
 -0.01019426,0.02214159,0.04922339,0.00135328,0.00026780,-0.00238091,-0
 .00352141,-0.00355518,-0.00104067,-0.00004637,-0.00054807,0.00074753,-
 0.02927703,-0.01838985,-0.03522966,-0.06324049,-0.02882349,-0.05337929
 ,0.00621238,0.00454636,0.01101268,0.08355930,0.00020993,0.00014932,-0.
 00043741,-0.00036581,-0.00030058,0.00009296,0.00000379,-0.00012463,0.0
 0028014,-0.00359878,0.00166390,-0.00009678,-0.03262481,-0.10810393,-0.
 10416392,-0.00760180,-0.01130659,-0.02524084,0.03752919,0.10760020,0.0
 0028197,0.00004980,-0.00011614,-0.00017716,0.00000920,0.00014432,-0.00
 011302,-0.00017241,0.00000626,-0.00043106,0.00193066,0.00756774,-0.064
 34243,-0.10435217,-0.25005841,0.00052856,0.00037231,0.00009119,0.06914
 022,0.11338154,0.26083724,0.00061166,-0.00017576,0.00097369,-0.0002191
 0,0.00006619,-0.00057586,-0.00173900,-0.00308894,0.00042396,-0.0253886
 8,-0.02711644,0.03355120,-0.05682181,-0.02623190,0.03599073,0.00518927
 ,0.00603668,-0.01071338,0.00380939,0.00623697,-0.00603693,0.07541401,0
 .00005270,-0.00004954,0.00046757,0.00006751,-0.00002085,-0.00045563,-0
 .00007679,-0.00003245,-0.00020462,-0.00359920,0.00054088,0.00034436,-0
 .03319193,-0.14113711,0.12373593,-0.00582807,-0.01455814,0.02340901,0.
 00442859,0.01033278,-0.01233061,0.03813052,0.14408942,-0.00027927,0.00
 007765,0.00024454,0.00044503,0.00038225,-0.00014088,0.00007068,0.00002
 804,-0.00001235,0.00119941,-0.00140791,0.00488735,0.04794322,0.1245316
 1,-0.22530023,-0.00186821,-0.00313409,0.00447651,0.00511849,0.01612750
 ,-0.01914179,-0.05136897,-0.13495315,0.23455888,-0.01099989,0.00044839
 ,-0.02500711,-0.01217985,-0.01065462,0.00612810,-0.00867373,0.01671388
 ,0.00120810,-0.06407444,-0.02982959,0.00709438,-0.01804349,-0.01744496
 ,0.01569163,0.00247161,-0.00016642,0.00079149,0.00094070,-0.00032415,0
 .00004787,-0.00183068,0.00039485,-0.00102548,0.07813266,-0.01414720,0.
 01387415,-0.03185180,-0.01225046,-0.01467906,0.00748429,0.02967265,0.0
 1188112,0.00660778,-0.04759885,-0.13891971,0.09812813,-0.01004412,0.00
 549663,-0.01259047,0.00310070,0.00005810,-0.00047542,0.00029669,-0.000
 17914,0.00077040,0.00625704,0.00094921,-0.00078214,0.01861968,0.113774
 41,-0.00937201,-0.01476298,0.01868834,0.01157322,0.00848171,-0.0031868
 2,-0.00971020,-0.00693929,-0.02236114,0.03349351,0.09703396,-0.1160849
 2,0.00756148,-0.00615235,0.00589920,-0.00152554,0.00079130,0.00014672,
 -0.00146529,-0.00081650,0.00008889,-0.00323899,-0.00067783,0.00057241,
 -0.01594592,-0.09076237,0.16518591,-0.02672851,-0.01341654,0.04324475,
 0.01594304,0.03668412,-0.00338015,-0.01332109,-0.00617449,-0.00893021,
 -0.04250364,-0.01251224,0.00511733,-0.02109405,-0.00691586,-0.01309321
 ,0.00194125,-0.00012354,-0.00079088,0.00089096,0.00061363,0.00126067,0
 .00164949,-0.00036347,-0.00040191,0.02420930,0.01929399,-0.00760161,0.
 04936687,-0.02319952,-0.00903844,0.04100950,0.03745944,0.00517493,-0.0
 0586166,-0.01000871,-0.00516095,-0.01159334,-0.01285186,-0.04308027,-0
 .03108636,-0.00841047,-0.00156311,0.00888835,0.00288107,-0.00011098,0.
 00054028,0.00381109,0.00029314,0.00030696,-0.00020565,0.00005309,-0.00
 074053,0.01670826,0.02167662,0.01157904,-0.01282310,0.03498984,-0.0033
 8936,0.00877366,0.04575652,0.03107187,0.02352119,-0.04273511,-0.011323
 60,-0.00649175,-0.00802261,-0.02589478,-0.03719739,-0.12588064,-0.0115
 0884,0.00340226,0.01657843,0.00265626,-0.00062539,-0.00012723,0.006948
 03,0.00083181,0.00058416,0.00125963,0.00070310,-0.00006790,0.00646185,
 0.01465554,-0.04274411,-0.00490015,-0.00480720,0.16851415,-0.10188258,
 -0.04978321,-0.01178784,-0.02001225,-0.03138689,0.01003211,-0.01361234
 ,-0.01358323,-0.01475888,-0.00242758,-0.00183361,-0.00188011,0.0005959
 8,-0.00008032,-0.00027092,-0.00003125,0.00001003,-0.00000952,-0.000218
 76,-0.00001299,-0.00002049,-0.00006814,0.00000099,0.00004439,0.0005932
 2,0.00188199,-0.00122866,0.00409005,0.00186225,0.00401101,0.55062932,-
 0.06374351,-0.14739919,-0.01650610,-0.01693811,-0.00971498,0.00651093,
 0.00633807,0.00614886,0.00403628,-0.00008630,0.00024201,-0.00218235,0.
 00009445,0.00010517,-0.00008805,-0.00002035,-0.00000035,0.00003802,-0.
 00001678,-0.00002664,-0.00001613,0.00005812,0.00000196,0.00000100,-0.0
 0093168,-0.00211558,0.00167887,0.00133574,0.00235945,0.00151817,-0.037
 22891,0.48485320,-0.01280489,-0.01590667,-0.07388750,0.02798082,0.0310
 5446,0.00115996,-0.02579708,-0.02047347,-0.01529581,0.00171205,-0.0001
 7123,0.00660678,-0.00016894,0.00004412,0.00052474,0.00007594,-0.000006
 74,-0.00008914,0.00025085,0.00005305,-0.00001534,-0.00011503,-0.000045
 10,-0.00003189,0.00246034,0.00480619,-0.00371357,-0.00463773,-0.003609
 54,-0.00657162,-0.02608530,-0.02720738,0.58900206,-0.00981551,0.003696
 82,-0.01728346,0.00161021,0.00075606,0.00155743,-0.00289434,-0.0031892
 7,-0.00189232,0.00014872,-0.00015514,0.00099948,0.00005582,0.00001793,
 0.00008991,0.00000605,0.00000421,-0.00002299,0.00002822,0.00001085,-0.
 00000005,-0.00003189,-0.00001488,-0.00000253,0.00055996,0.00098997,-0.
 00076792,-0.00069664,-0.00057756,-0.00069843,-0.10051039,0.01287525,-0
 .10612518,0.10774403,-0.01301502,0.00220168,-0.02459133,0.00231452,0.0
 0119235,0.00017679,-0.00592606,-0.00418987,-0.00298478,0.00007579,-0.0
 0031246,0.00109316,0.00007392,-0.00000050,0.00006305,-0.00000363,0.000
 00336,-0.00001027,0.00001957,0.00000760,-0.00000167,-0.00003642,-0.000
 00165,-0.00000113,0.00054248,0.00123196,-0.00090470,-0.00060029,-0.000
 54200,-0.00075002,0.01537974,-0.04870915,0.03141264,-0.01344450,0.0534
 6864,-0.00343603,0.00121294,-0.00714802,0.00205817,0.00115544,0.001073
 63,-0.00079651,-0.00115026,0.00080340,0.00012254,-0.00006383,0.0005471
 1,-0.00001858,-0.00001016,0.00007801,0.00001032,0.00000203,-0.00001104
 ,0.00002263,0.00000498,0.00000194,-0.00001906,-0.00000311,-0.00000079,
 0.00035594,0.00065050,-0.00037168,-0.00044974,-0.00051960,-0.00031210,
 -0.10944664,0.02770198,-0.25969459,0.11940297,-0.03097123,0.27877426,-
 0.01207131,0.00225604,0.01518114,-0.00196431,-0.00488454,-0.00063273,0
 .00068992,0.00052511,-0.00126860,-0.00046444,-0.00007676,-0.00104327,0
 .00011564,0.00000611,-0.00013276,-0.00002096,0.00000355,0.00001549,-0.
 00006756,-0.00001001,0.00000184,0.00001180,0.00000892,0.00000961,-0.00
 033079,-0.00053881,0.00032219,0.00123748,0.00068434,0.00130827,-0.1779
 3511,-0.02386529,0.13478573,0.01233608,0.00197377,-0.01062258,0.189520
 43,-0.01628033,-0.00195047,0.02280093,-0.00620098,-0.00612080,-0.00076
 241,0.00112010,0.00021033,-0.00076803,-0.00064987,-0.00044997,-0.00145
 949,0.00018158,-0.00002369,-0.00011475,-0.00001417,0.00000320,0.000009
 44,-0.00007979,-0.00000401,-0.00000074,0.00000279,0.00000522,0.0000144
 5,-0.00030076,-0.00037096,0.00029627,0.00114344,0.00124360,0.00179686,
 -0.01873143,-0.04861913,0.01856863,-0.00224271,-0.00139160,0.00232243,
 0.02462292,0.05436196,-0.00499712,-0.00085171,0.00290728,-0.00059996,-
 0.00104667,0.00184817,0.00048907,0.00022339,0.00027525,0.00023653,0.00
 022332,0.00007348,-0.00004565,0.00001877,0.00004825,0.00000345,-0.0000
 0404,-0.00000048,0.00002502,-0.00000225,0.00000043,0.00000201,-0.00000
 076,-0.00000258,0.00001115,-0.00008349,0.00002167,-0.00024692,-0.00029
 657,0.00001085,0.13698336,0.02407404,-0.19085001,0.02002194,0.00262320
 ,-0.01764330,-0.14921482,-0.02307576,0.20236256,0.00997123,-0.01347199
 ,0.00103020,0.00005906,0.00099986,-0.00105828,0.00114001,0.00163129,0.
 00120603,0.00022061,0.00013237,-0.00016703,-0.00004351,0.00000401,0.00
 000527,-0.00000112,-0.00000525,0.00000566,0.00001225,0.00000308,0.0000
 0005,0.00001324,0.00000597,-0.00000251,-0.00022700,-0.00037583,0.00028
 111,-0.00018757,0.00021076,-0.00001189,-0.13650987,0.12014421,0.009731
 13,-0.00892382,0.01133744,0.00166874,-0.01157600,0.01707926,-0.0016632
 9,0.14755713,0.01709652,-0.02324233,-0.00116159,-0.00178692,0.00250886
 ,-0.00003835,0.00020557,0.00156841,0.00070041,0.00004833,0.00014433,-0
 .00026626,0.00012263,-0.00000964,-0.00000914,-0.00005855,0.00001231,0.
 00001483,-0.00000352,-0.00000298,0.00000163,0.00000154,0.00000693,-0.0
 0000405,-0.00013290,-0.00059401,0.00022863,-0.00004956,0.00014173,0.00
 011108,0.12031739,-0.21620482,-0.01078366,0.00173887,-0.00252376,0.000
 18437,-0.00266510,0.00446447,-0.00061994,-0.13508725,0.23625932,0.0034
 7284,-0.00540668,-0.00181924,0.00048710,0.00074540,-0.00028094,0.00001
 457,0.00133772,-0.00002801,0.00015611,0.00030653,-0.00018200,-0.000054
 41,-0.00000713,-0.00003239,-0.00001815,0.00000013,0.00002049,0.0000052
 1,-0.00000759,0.00000148,0.00001669,0.00001495,-0.00000500,-0.00029171
 ,-0.00054318,0.00025670,0.00009019,-0.00014890,0.00002888,0.00914383,-
 0.00989207,-0.04554992,-0.01607480,0.02357817,0.00311550,0.01163427,-0
 .01915044,0.00045336,-0.00651678,0.01237788,0.04606086,-0.02000378,0.0
 1603223,-0.01166107,0.00070681,-0.00124535,0.00632455,-0.09386803,0.04
 335872,-0.01856713,-0.00734432,-0.00692460,0.00488519,0.00247371,-0.00
 093229,0.00083258,-0.00045568,0.00018937,0.00009760,-0.00024055,-0.000
 05647,-0.00005424,-0.00072580,0.00002619,0.00002931,0.01291897,0.00738
 474,-0.00407125,0.00012196,0.00025951,-0.00097400,-0.00012245,-0.00170
 843,-0.00036558,0.00054027,0.00087040,0.00054223,-0.00047092,0.0002193
 3,-0.00012075,-0.00119586,0.00057464,-0.00123176,0.53441649,0.01884581
 ,-0.00636951,0.02655965,0.00056998,0.00285589,-0.00977754,0.04854794,-
 0.17040446,0.00111713,0.00333774,0.00673795,-0.00275445,-0.00379416,0.
 00010929,0.00031820,0.00065732,-0.00033502,-0.00003962,0.00034562,-0.0
 0003109,0.00003779,0.00039571,-0.00021103,-0.00005660,-0.00018305,-0.0
 1478121,0.00330999,-0.00103875,-0.00168670,0.00012591,-0.00250610,0.00
 287303,-0.00229934,-0.00081237,-0.00171282,-0.00038455,-0.00031413,0.0
 0030169,0.00006971,0.00015424,-0.00032822,-0.00114108,0.07506798,0.475
 83272,-0.01333671,0.02333053,-0.00088498,0.00207379,-0.00057125,-0.003
 69084,-0.01263562,-0.01004711,-0.07906467,-0.00060247,-0.00170844,0.00
 165013,0.00076266,0.00032870,0.00008813,0.00006578,0.00017138,0.000238
 75,-0.00002200,-0.00024495,-0.00002970,-0.00015622,0.00004608,-0.00004
 714,0.00182064,0.00431218,-0.00109715,-0.00114949,0.00003078,-0.000896
 07,-0.00077722,-0.00083556,-0.00201357,0.00017431,0.00091753,0.0001592
 1,0.00037769,-0.00034152,0.00017906,-0.00260657,0.00041496,-0.00055354
 ,0.00452041,0.01775107,0.58476024,0.00116625,0.00049254,0.00048608,0.0
 0013908,-0.00016404,-0.00060485,0.01472319,0.02231031,-0.00605325,0.00
 116175,0.00110533,-0.00074710,-0.00040158,0.00028807,-0.00007726,0.000
 17352,-0.00006254,-0.00008078,0.00004312,0.00000329,0.00000218,0.00014
 401,-0.00006335,-0.00000259,-0.00202935,-0.00067566,0.00049132,-0.0001
 0458,0.00003373,0.00007818,-0.00007366,-0.00044399,-0.00136148,-0.0001
 3288,0.00043157,0.00017078,-0.00027249,-0.00011508,0.00000968,-0.00105
 617,0.00053520,-0.00080206,-0.16131290,-0.12716878,0.04438184,0.168721
 47,-0.00367398,-0.00035265,-0.00402992,0.00044655,0.00035821,0.0014674
 4,-0.00595697,-0.03771857,0.00975524,-0.00221132,-0.00208659,0.0016681
 5,0.00069927,-0.00026493,0.00032853,-0.00012838,0.00001744,0.00000802,
 -0.00005897,0.00001138,-0.00001873,-0.00023199,-0.00001069,0.00000262,
 0.00419782,0.00351565,-0.00146261,-0.00023383,-0.00009645,-0.00062684,
 0.00000805,0.00000827,-0.00021219,0.00004902,0.00049035,-0.00005661,0.
 00032806,-0.00015089,-0.00000098,-0.00046396,0.00061517,0.00007712,-0.
 11999766,-0.17917895,0.04655748,0.12833669,0.20935969,0.00207072,0.001
 51627,0.00050391,-0.00086389,-0.00017551,-0.00028504,-0.00141776,0.005
 19525,0.00142801,0.00017235,0.00022938,-0.00035060,-0.00003948,-0.0000
 7980,-0.00004329,-0.00005790,-0.00001514,-0.00004587,-0.00000019,0.000
 06707,0.00000570,0.00002610,0.00001498,0.00001984,-0.00044883,-0.00048
 114,0.00007744,0.00020097,-0.00004781,0.00017014,-0.00051280,0.0003484
 0,0.00017462,0.00020922,-0.00026508,0.00002446,-0.00013167,0.00005422,
 0.00000942,-0.00061977,-0.00026434,-0.00143808,0.04279657,0.04533159,-
 0.06791033,-0.04401997,-0.05254896,0.06622291,0.00073862,0.00030850,0.
 00476584,0.00085049,0.00040071,-0.00121686,-0.01513239,0.00675034,-0.0
 1687734,0.00049817,0.00069897,-0.00014297,-0.00018620,-0.00001596,-0.0
 0000379,0.00004110,-0.00004037,0.00003026,0.00005722,0.00002218,-0.000
 00637,0.00001873,-0.00000116,0.00000497,-0.00050050,-0.00069339,0.0000
 4661,-0.00033434,-0.00030538,-0.00021931,0.00017056,0.00020316,-0.0002
 8395,-0.00003039,0.00011071,-0.00000245,0.00010134,-0.00013209,-0.0000
 0659,-0.00025605,0.00003288,0.00012466,-0.15358597,-0.03072886,-0.1218
 5993,-0.01229113,-0.00473336,-0.01609136,0.16797811,0.00011966,-0.0026
 4881,-0.00562951,-0.00105052,-0.00035340,0.00187684,0.02963544,-0.0047
 0689,0.03097761,-0.00043563,-0.00030780,-0.00057556,0.00004987,-0.0000
 4752,0.00000539,-0.00006011,0.00000808,0.00007910,-0.00004561,-0.00007
 065,-0.00000801,-0.00003344,0.00002121,-0.00002147,0.00050600,0.000218
 58,0.00072827,0.00075416,0.00062315,0.00053274,0.00004333,-0.00079872,
 -0.00037286,-0.00013051,0.00051211,0.00008337,0.00006108,-0.00005754,-
 0.00000157,-0.00045037,0.00075640,0.00024666,-0.03671046,-0.05535804,-
 0.04044067,-0.01376463,-0.00209536,-0.01811129,0.02547079,0.06521683,0
 .00110282,0.00004552,0.00155525,-0.00001949,0.00029958,0.00014052,-0.0
 0338072,0.00416160,-0.00161660,0.00082855,0.00070719,0.00003059,-0.000
 49477,0.00022955,0.00011054,0.00018407,-0.00009209,-0.00021575,0.00005
 784,0.00005995,0.00000538,0.00010623,-0.00011616,0.00000860,-0.0010675
 6,-0.00035603,0.00011907,-0.00057299,-0.00049504,-0.00048800,0.0001553
 2,-0.00019273,0.00014420,-0.00004334,-0.00001903,0.00000707,-0.0001049
 1,0.00015084,-0.00001178,0.00003490,0.00028836,-0.00006337,-0.12531709
 ,-0.03410579,-0.19857693,0.00578513,0.00065411,0.00734765,0.13989127,0
 .03395311,0.20967626,0.00052742,0.00053550,0.00516266,0.00081485,-0.00
 047248,-0.00157038,-0.01181067,0.01637371,0.00960350,0.00038446,0.0007
 3811,-0.00076337,-0.00017101,-0.00002390,-0.00009998,0.00001621,-0.000
 07679,0.00001314,-0.00000316,0.00001864,0.00000493,0.00005621,0.000006
 27,-0.00000102,-0.00113912,-0.00163118,0.00054220,0.00030039,0.0003552
 3,0.00047890,-0.00037409,0.00045163,-0.00016364,0.00007773,-0.00020536
 ,-0.00008339,0.00024511,-0.00011723,0.00000756,-0.00061109,-0.00058729
 ,-0.00012460,-0.10967712,0.02122026,0.09983457,-0.00875245,0.00330430,
 0.01883166,0.01258005,-0.00498848,-0.01704922,0.11775922,-0.00060139,0
 .00145493,-0.00564948,-0.00194263,-0.00019289,0.00167448,0.02260610,-0
 .01929291,-0.02179209,-0.00088199,-0.00079635,0.00065874,0.00042750,-0
 .00032422,0.00001506,-0.00027124,-0.00001450,0.00000147,-0.00005321,0.
 00006464,0.00000115,-0.00010411,0.00005797,0.00001270,0.00189896,0.001
 46478,-0.00138256,0.00027792,-0.00018578,0.00000510,-0.00003071,0.0000
 1602,0.00068294,0.00016708,0.00008757,0.00000101,0.00003903,-0.0000546
 5,-0.00005620,-0.00005305,-0.00002317,0.00004503,0.02184816,-0.0609595
 2,-0.04016347,-0.01080880,0.00749326,0.01942909,0.00202461,-0.00022101
 ,-0.00531326,-0.03480561,0.07155735,-0.00243361,0.00021541,-0.00088688
 ,-0.00017896,-0.00053542,0.00141567,-0.00162281,-0.00162645,0.01072059
 ,-0.00077097,-0.00068914,0.00006905,0.00056743,-0.00027488,-0.00008634
 ,-0.00021740,0.00005693,0.00007806,-0.00005630,0.00005760,-0.00000736,
 -0.00008439,0.00009846,0.00002039,0.00074468,0.00052342,-0.00032081,0.
 00058375,0.00039417,0.00039651,-0.00006278,-0.00026161,0.00003144,-0.0
 0006881,0.00008566,0.00004835,-0.00011864,0.00010821,-0.00004297,-0.00
 030492,0.00028207,0.00001841,0.10393103,-0.04467350,-0.23271785,0.0022
 5555,-0.00155463,-0.00581770,0.01187021,-0.00346926,-0.01819988,-0.114
 11946,0.05123838,0.24540263,0.00327716,-0.01424654,-0.00973987,-0.0269
 3210,0.00889260,0.02643212,-0.02042854,0.02500521,-0.00959643,-0.00481
 997,-0.00231311,-0.00272237,0.00112427,0.00049618,-0.00017528,-0.00015
 017,0.00000376,0.00005105,-0.00029148,-0.00005674,-0.00008654,-0.00009
 271,0.00001633,0.00008736,0.00020244,0.00045804,0.00061573,0.00521964,
 0.00411655,0.00464635,-0.00230065,0.00348270,0.00091193,-0.00007124,0.
 00010137,0.00052065,0.00091608,0.00049500,-0.00089466,0.00161453,-0.00
 030248,-0.00003119,-0.00217482,-0.00259641,-0.00086545,0.00015479,0.00
 032067,-0.00010398,-0.00071742,0.00102944,-0.00009605,-0.00022292,0.00
 026336,0.00008638,0.04569313,-0.02676300,-0.01527891,0.01214652,0.0208
 6473,0.00937481,-0.01786671,0.01663885,-0.01370593,0.00712491,0.002627
 87,0.00340019,0.00324204,-0.00044712,0.00009402,0.00045542,-0.00020239
 ,0.00001847,-0.00003088,0.00032954,0.00002730,0.00003901,0.00003908,-0
 .00003721,-0.00007675,-0.00006221,-0.00250156,-0.00026684,-0.00585133,
 -0.00509089,-0.00547882,0.01567364,-0.02301940,-0.00553385,0.00026086,
 0.00018819,-0.00015973,0.00184571,-0.00139676,-0.00119251,-0.00179480,
 -0.00354900,-0.00243253,0.00174399,0.00264599,0.00049226,-0.00026987,0
 .00008567,-0.00019717,0.00062772,-0.00069064,0.00014033,-0.00009533,-0
 .00013152,0.00002456,-0.02516594,0.04956718,-0.01145019,0.00277656,-0.
 01354606,0.02651470,-0.00786672,-0.01415205,-0.00780450,0.00649129,0.0
 0432850,0.00179682,0.00135900,0.00313108,-0.00039861,-0.00005138,0.000
 32533,-0.00003302,0.00000879,-0.00007297,0.00024582,0.00005364,0.00003
 399,-0.00004142,-0.00004748,-0.00003793,0.00097041,-0.00001238,-0.0011
 7614,-0.00434268,-0.00354253,-0.00419426,0.00647113,-0.00872572,0.0000
 6916,0.00052457,0.00054904,0.00054859,-0.00036624,-0.00044912,0.000361
 31,-0.00101206,-0.00145691,-0.00000318,-0.00159661,0.00061144,0.000407
 26,0.00008858,-0.00000724,-0.00009319,-0.00002290,0.00014709,0.0000271
 7,-0.00050408,0.00059192,-0.00012134,-0.00903974,0.00957071,0.02416474
 \\-0.00241204,-0.00251370,0.00596934,0.00763622,0.00461918,-0.00395331
 ,-0.00114007,-0.00617612,0.00044365,0.01042599,0.01183657,0.00404414,-
 0.00064431,-0.00107113,-0.00025708,-0.00001855,0.00002331,-0.00033571,
 -0.00000245,-0.00012663,0.00009188,0.00018331,-0.00001136,0.00012805,0
 .00035471,0.00056436,0.00879602,-0.01184271,-0.00881674,-0.01313688,-0
 .00101115,0.00061993,-0.00223438,-0.00109862,0.00047443,0.00100587,0.0
 0084101,-0.00089469,0.00075410,0.00011975,0.00011512,-0.00112743,0.001
 79586,-0.00185902,0.00157448,-0.00001620,0.00040611,-0.00002898,-0.000
 26785,0.00006990,-0.00033851,-0.00031396,0.00041220,0.00023988,-0.0025
 8893,0.00232826,-0.00163515\\\@


 Any fool can criticize, condemn, and complain -- and most do.
 -- Dale Carnegie
 Job cpu time:       2 days  0 hours 52 minutes 34.3 seconds.
 File lengths (MBytes):  RWF=    471 Int=      0 D2E=      0 Chk=     24 Scr=      1
 Normal termination of Gaussian 09 at Mon Mar 30 19:38:45 2015.
