 Entering Gaussian System, Link 0=g09
 Initial command:
 /opt/gridware/applications/gaussian/g09/l1.exe "/lustre/SCRATCH5/gau/mlawal/854271.sched01/Gau-7764.inp" -scrdir="/lustre/SCRATCH5/gau/mlawal/854271.sched01/"
 Entering Link 1 = /opt/gridware/applications/gaussian/g09/l1.exe PID=      7765.
  
 Copyright (c) 1988,1990,1992,1993,1995,1998,2003,2009,2013,
            Gaussian, Inc.  All Rights Reserved.
  
 This is part of the Gaussian(R) 09 program.  It is based on
 the Gaussian(R) 03 system (copyright 2003, Gaussian, Inc.),
 the Gaussian(R) 98 system (copyright 1998, Gaussian, Inc.),
 the Gaussian(R) 94 system (copyright 1995, Gaussian, Inc.),
 the Gaussian 92(TM) system (copyright 1992, Gaussian, Inc.),
 the Gaussian 90(TM) system (copyright 1990, Gaussian, Inc.),
 the Gaussian 88(TM) system (copyright 1988, Gaussian, Inc.),
 the Gaussian 86(TM) system (copyright 1986, Carnegie Mellon
 University), and the Gaussian 82(TM) system (copyright 1983,
 Carnegie Mellon University). Gaussian is a federally registered
 trademark of Gaussian, Inc.
  
 This software contains proprietary and confidential information,
 including trade secrets, belonging to Gaussian, Inc.
  
 This software is provided under written license and may be
 used, copied, transmitted, or stored only in accord with that
 written license.
  
 The following legend is applicable only to US Government
 contracts under FAR:
  
                    RESTRICTED RIGHTS LEGEND
  
 Use, reproduction and disclosure by the US Government is
 subject to restrictions as set forth in subparagraphs (a)
 and (c) of the Commercial Computer Software - Restricted
 Rights clause in FAR 52.227-19.
  
 Gaussian, Inc.
 340 Quinnipiac St., Bldg. 40, Wallingford CT 06492
  
  
 ---------------------------------------------------------------
 Warning -- This program may not be used in any manner that
 competes with the business of Gaussian, Inc. or will provide
 assistance to any competitor of Gaussian, Inc.  The licensee
 of this program is prohibited from giving any competitor of
 Gaussian, Inc. access to this program.  By using this program,
 the user acknowledges that Gaussian, Inc. is engaged in the
 business of creating and licensing software in the field of
 computational chemistry and represents and warrants to the
 licensee that it is not a competitor of Gaussian, Inc. and that
 it will not use this program in any manner prohibited above.
 ---------------------------------------------------------------
  

 Cite this work as:
 Gaussian 09, Revision D.01,
 M. J. Frisch, G. W. Trucks, H. B. Schlegel, G. E. Scuseria, 
 M. A. Robb, J. R. Cheeseman, G. Scalmani, V. Barone, B. Mennucci, 
 G. A. Petersson, H. Nakatsuji, M. Caricato, X. Li, H. P. Hratchian, 
 A. F. Izmaylov, J. Bloino, G. Zheng, J. L. Sonnenberg, M. Hada, 
 M. Ehara, K. Toyota, R. Fukuda, J. Hasegawa, M. Ishida, T. Nakajima, 
 Y. Honda, O. Kitao, H. Nakai, T. Vreven, J. A. Montgomery, Jr., 
 J. E. Peralta, F. Ogliaro, M. Bearpark, J. J. Heyd, E. Brothers, 
 K. N. Kudin, V. N. Staroverov, T. Keith, R. Kobayashi, J. Normand, 
 K. Raghavachari, A. Rendell, J. C. Burant, S. S. Iyengar, J. Tomasi, 
 M. Cossi, N. Rega, J. M. Millam, M. Klene, J. E. Knox, J. B. Cross, 
 V. Bakken, C. Adamo, J. Jaramillo, R. Gomperts, R. E. Stratmann, 
 O. Yazyev, A. J. Austin, R. Cammi, C. Pomelli, J. W. Ochterski, 
 R. L. Martin, K. Morokuma, V. G. Zakrzewski, G. A. Voth, 
 P. Salvador, J. J. Dannenberg, S. Dapprich, A. D. Daniels, 
 O. Farkas, J. B. Foresman, J. V. Ortiz, J. Cioslowski, 
 and D. J. Fox, Gaussian, Inc., Wallingford CT, 2013.
 
 ******************************************
 Gaussian 09:  EM64L-G09RevD.01 24-Apr-2013
                27-Mar-2015 
 ******************************************
 %nprocshared=8
 Will use up to    8 processors via shared memory.
 %nprocl=1
 Will use up to    1 processors via Linda.
 ----------------------------------------------------------------------
 # opt=(calcfc,ts,noeigentest) freq=noraman b3lyp/genecp geom=connectiv
 ity gfinput pseudo=read
 ----------------------------------------------------------------------
 1/5=1,10=4,11=1,14=-1,18=20,26=3,38=1,57=2/1,3;
 2/9=110,12=2,17=6,18=5,40=1/2;
 3/5=7,11=2,16=1,17=8,24=10,25=1,30=1,71=2,74=-5,140=1/1,2,3;
 4//1;
 5/5=2,38=5/2;
 8/6=4,10=90,11=11/1;
 11/6=1,8=1,9=11,15=111,16=1/1,2,10;
 10/6=1,13=1/2;
 6/7=2,8=2,9=2,10=2,28=1/1;
 7/10=1,18=20,25=1/1,2,3,16;
 1/5=1,10=4,11=1,14=-1,18=20,26=3/3(2);
 2/9=110/2;
 99//99;
 2/9=110/2;
 3/5=7,6=1,11=2,16=1,17=8,25=1,30=1,71=1,74=-5,82=7/1,2,3;
 4/5=5,16=3,69=1/1;
 5/5=2,38=5/2;
 7//1,2,3,16;
 1/5=1,11=1,14=-1,18=20,26=3/3(-5);
 2/9=110/2;
 6/7=2,8=2,9=2,10=2,19=2,28=1/1;
 99/9=1/99;
 -------------------------------------------------
 gen calculation ts624cl-C H O=aug-ccpvtz/Cl=midix
 -------------------------------------------------
 Symbolic Z-matrix:
 Charge =  0 Multiplicity = 1
 C                     0.88456   0.11663   0.41891 
 C                    -0.39856   2.08642  -0.60959 
 H                    -1.16612   2.27151  -1.36713 
 H                    -0.77958   2.23626   0.40602 
 H                     0.47888   2.71442  -0.79914 
 C                     2.12077   0.93679   0.59068 
 H                     2.88275   0.36133   1.14581 
 H                     2.57087   1.21375  -0.37438 
 H                     1.92442   1.84967   1.16978 
 O                     0.01831   0.71086  -0.79507 
 O                    -1.76363  -0.8697   -0.10176 
 C                    -3.04071  -0.26804   0.23386 
 H                    -3.56304  -0.12891  -0.71933 
 H                    -3.57601  -0.99358   0.85919 
 H                    -2.90073   0.67793   0.76431 
 H                    -1.12805  -0.88883   0.81811 
 H                    -1.03451  -0.03214  -0.7197 
 Cl                    1.32383  -1.44391  -0.5023 
 O                     0.04404  -0.08688   1.34089 
 
 Add virtual bond connecting atoms H16        and O11        Dist= 2.11D+00.
 Add virtual bond connecting atoms H17        and O11        Dist= 2.40D+00.
 Add virtual bond connecting atoms H17        and O10        Dist= 2.44D+00.
 Add virtual bond connecting atoms C1         and O10        Dist= 3.03D+00.
 Add virtual bond connecting atoms O19        and H16        Dist= 2.86D+00.

 GradGradGradGradGradGradGradGradGradGradGradGradGradGradGradGradGradGrad
 Berny optimization.
 Initialization pass.
                           ----------------------------
                           !    Initial Parameters    !
                           ! (Angstroms and Degrees)  !
 --------------------------                            --------------------------
 ! Name  Definition              Value          Derivative Info.                !
 --------------------------------------------------------------------------------
 ! R1    R(1,6)                  1.4934         calculate D2E/DX2 analytically  !
 ! R2    R(1,10)                 1.6054         calculate D2E/DX2 analytically  !
 ! R3    R(1,18)                 1.8646         calculate D2E/DX2 analytically  !
 ! R4    R(1,19)                 1.2641         calculate D2E/DX2 analytically  !
 ! R5    R(2,3)                  1.0942         calculate D2E/DX2 analytically  !
 ! R6    R(2,4)                  1.095          calculate D2E/DX2 analytically  !
 ! R7    R(2,5)                  1.0955         calculate D2E/DX2 analytically  !
 ! R8    R(2,10)                 1.4493         calculate D2E/DX2 analytically  !
 ! R9    R(6,7)                  1.1045         calculate D2E/DX2 analytically  !
 ! R10   R(6,8)                  1.1003         calculate D2E/DX2 analytically  !
 ! R11   R(6,9)                  1.0988         calculate D2E/DX2 analytically  !
 ! R12   R(10,17)                1.2908         calculate D2E/DX2 analytically  !
 ! R13   R(11,12)                1.4511         calculate D2E/DX2 analytically  !
 ! R14   R(11,16)                1.1182         calculate D2E/DX2 analytically  !
 ! R15   R(11,17)                1.2708         calculate D2E/DX2 analytically  !
 ! R16   R(12,13)                1.0958         calculate D2E/DX2 analytically  !
 ! R17   R(12,14)                1.0973         calculate D2E/DX2 analytically  !
 ! R18   R(12,15)                1.0935         calculate D2E/DX2 analytically  !
 ! R19   R(16,19)                1.5133         calculate D2E/DX2 analytically  !
 ! A1    A(6,1,10)             109.29           calculate D2E/DX2 analytically  !
 ! A2    A(6,1,18)             108.7494         calculate D2E/DX2 analytically  !
 ! A3    A(6,1,19)             123.7047         calculate D2E/DX2 analytically  !
 ! A4    A(10,1,18)             93.6298         calculate D2E/DX2 analytically  !
 ! A5    A(10,1,19)            104.6163         calculate D2E/DX2 analytically  !
 ! A6    A(18,1,19)            112.4725         calculate D2E/DX2 analytically  !
 ! A7    A(3,2,4)              112.0175         calculate D2E/DX2 analytically  !
 ! A8    A(3,2,5)              110.1863         calculate D2E/DX2 analytically  !
 ! A9    A(3,2,10)             105.8855         calculate D2E/DX2 analytically  !
 ! A10   A(4,2,5)              111.1443         calculate D2E/DX2 analytically  !
 ! A11   A(4,2,10)             110.4062         calculate D2E/DX2 analytically  !
 ! A12   A(5,2,10)             106.9508         calculate D2E/DX2 analytically  !
 ! A13   A(1,6,7)              110.0441         calculate D2E/DX2 analytically  !
 ! A14   A(1,6,8)              112.0838         calculate D2E/DX2 analytically  !
 ! A15   A(1,6,9)              111.652          calculate D2E/DX2 analytically  !
 ! A16   A(7,6,8)              106.8439         calculate D2E/DX2 analytically  !
 ! A17   A(7,6,9)              106.9335         calculate D2E/DX2 analytically  !
 ! A18   A(8,6,9)              109.0408         calculate D2E/DX2 analytically  !
 ! A19   A(1,10,2)             114.1896         calculate D2E/DX2 analytically  !
 ! A20   A(1,10,17)            100.5379         calculate D2E/DX2 analytically  !
 ! A21   A(2,10,17)            107.7134         calculate D2E/DX2 analytically  !
 ! A22   A(12,11,16)           108.4848         calculate D2E/DX2 analytically  !
 ! A23   A(12,11,17)           110.1294         calculate D2E/DX2 analytically  !
 ! A24   A(16,11,17)            94.8855         calculate D2E/DX2 analytically  !
 ! A25   A(11,12,13)           105.722          calculate D2E/DX2 analytically  !
 ! A26   A(11,12,14)           106.6785         calculate D2E/DX2 analytically  !
 ! A27   A(11,12,15)           110.9905         calculate D2E/DX2 analytically  !
 ! A28   A(13,12,14)           110.3134         calculate D2E/DX2 analytically  !
 ! A29   A(13,12,15)           111.9091         calculate D2E/DX2 analytically  !
 ! A30   A(14,12,15)           110.9771         calculate D2E/DX2 analytically  !
 ! A31   A(11,16,19)           135.6682         calculate D2E/DX2 analytically  !
 ! A32   A(10,17,11)           151.1314         calculate D2E/DX2 analytically  !
 ! A33   A(1,19,16)            110.3856         calculate D2E/DX2 analytically  !
 ! D1    D(10,1,6,7)          -159.762          calculate D2E/DX2 analytically  !
 ! D2    D(10,1,6,8)           -41.0181         calculate D2E/DX2 analytically  !
 ! D3    D(10,1,6,9)            81.6562         calculate D2E/DX2 analytically  !
 ! D4    D(18,1,6,7)           -58.8302         calculate D2E/DX2 analytically  !
 ! D5    D(18,1,6,8)            59.9137         calculate D2E/DX2 analytically  !
 ! D6    D(18,1,6,9)          -177.412          calculate D2E/DX2 analytically  !
 ! D7    D(19,1,6,7)            76.5385         calculate D2E/DX2 analytically  !
 ! D8    D(19,1,6,8)          -164.7176         calculate D2E/DX2 analytically  !
 ! D9    D(19,1,6,9)           -42.0433         calculate D2E/DX2 analytically  !
 ! D10   D(6,1,10,2)           -59.7896         calculate D2E/DX2 analytically  !
 ! D11   D(6,1,10,17)         -174.8027         calculate D2E/DX2 analytically  !
 ! D12   D(18,1,10,2)         -171.101          calculate D2E/DX2 analytically  !
 ! D13   D(18,1,10,17)          73.8859         calculate D2E/DX2 analytically  !
 ! D14   D(19,1,10,2)           74.5458         calculate D2E/DX2 analytically  !
 ! D15   D(19,1,10,17)         -40.4674         calculate D2E/DX2 analytically  !
 ! D16   D(6,1,19,16)          176.7496         calculate D2E/DX2 analytically  !
 ! D17   D(10,1,19,16)          50.9937         calculate D2E/DX2 analytically  !
 ! D18   D(18,1,19,16)         -49.2991         calculate D2E/DX2 analytically  !
 ! D19   D(3,2,10,1)          -166.3283         calculate D2E/DX2 analytically  !
 ! D20   D(3,2,10,17)          -55.5997         calculate D2E/DX2 analytically  !
 ! D21   D(4,2,10,1)           -44.879          calculate D2E/DX2 analytically  !
 ! D22   D(4,2,10,17)           65.8496         calculate D2E/DX2 analytically  !
 ! D23   D(5,2,10,1)            76.1679         calculate D2E/DX2 analytically  !
 ! D24   D(5,2,10,17)         -173.1035         calculate D2E/DX2 analytically  !
 ! D25   D(1,10,17,11)          13.1394         calculate D2E/DX2 analytically  !
 ! D26   D(2,10,17,11)        -106.6587         calculate D2E/DX2 analytically  !
 ! D27   D(16,11,12,13)        171.4295         calculate D2E/DX2 analytically  !
 ! D28   D(16,11,12,14)        -71.1302         calculate D2E/DX2 analytically  !
 ! D29   D(16,11,12,15)         49.8827         calculate D2E/DX2 analytically  !
 ! D30   D(17,11,12,13)         68.8279         calculate D2E/DX2 analytically  !
 ! D31   D(17,11,12,14)       -173.7318         calculate D2E/DX2 analytically  !
 ! D32   D(17,11,12,15)        -52.7189         calculate D2E/DX2 analytically  !
 ! D33   D(12,11,16,19)       -103.5454         calculate D2E/DX2 analytically  !
 ! D34   D(17,11,16,19)          9.581          calculate D2E/DX2 analytically  !
 ! D35   D(12,11,17,10)        114.9612         calculate D2E/DX2 analytically  !
 ! D36   D(16,11,17,10)          3.2308         calculate D2E/DX2 analytically  !
 ! D37   D(11,16,19,1)         -43.6502         calculate D2E/DX2 analytically  !
 --------------------------------------------------------------------------------
 Trust Radius=3.00D-01 FncErr=1.00D-07 GrdErr=1.00D-06
 Number of steps in this run=     99 maximum allowed number of steps=    114.
 Search for a saddle point of order  1.
 GradGradGradGradGradGradGradGradGradGradGradGradGradGradGradGradGradGrad

                          Input orientation:                          
 ---------------------------------------------------------------------
 Center     Atomic      Atomic             Coordinates (Angstroms)
 Number     Number       Type             X           Y           Z
 ---------------------------------------------------------------------
      1          6           0        0.884558    0.116628    0.418907
      2          6           0       -0.398563    2.086422   -0.609586
      3          1           0       -1.166118    2.271506   -1.367134
      4          1           0       -0.779578    2.236265    0.406015
      5          1           0        0.478877    2.714415   -0.799143
      6          6           0        2.120771    0.936787    0.590683
      7          1           0        2.882752    0.361331    1.145809
      8          1           0        2.570868    1.213746   -0.374381
      9          1           0        1.924419    1.849674    1.169780
     10          8           0        0.018310    0.710864   -0.795072
     11          8           0       -1.763632   -0.869703   -0.101762
     12          6           0       -3.040711   -0.268041    0.233857
     13          1           0       -3.563040   -0.128910   -0.719331
     14          1           0       -3.576005   -0.993577    0.859193
     15          1           0       -2.900725    0.677932    0.764309
     16          1           0       -1.128054   -0.888828    0.818105
     17          1           0       -1.034514   -0.032144   -0.719698
     18         17           0        1.323828   -1.443907   -0.502301
     19          8           0        0.044036   -0.086882    1.340889
 ---------------------------------------------------------------------
                    Distance matrix (angstroms):
                    1          2          3          4          5
     1  C    0.000000
     2  C    2.565986   0.000000
     3  H    3.469685   1.094201   0.000000
     4  H    2.694880   1.095021   1.815134   0.000000
     5  H    2.897709   1.095540   1.795770   1.806860   0.000000
     6  C    1.493449   3.018170   4.051933   3.183515   2.790590
     7  H    2.140338   4.101753   5.133907   4.180351   3.885673
     8  H    2.162548   3.103934   4.008675   3.588879   2.609379
     9  H    2.156054   2.935718   4.020609   2.836263   2.591144
    10  O    1.605381   1.449258   2.041012   2.099067   2.055810
    11  O    2.873474   3.295447   3.438805   3.297459   4.284984
    12  C    3.948411   3.638109   3.539289   3.378448   4.727540
    13  H    4.597500   3.864409   3.453532   3.822057   4.942465
    14  H    4.617687   4.662600   4.628699   4.296191   5.739456
    15  H    3.842230   3.183119   3.176695   2.656321   4.244214
    16  H    2.284931   3.379729   3.842451   3.171350   4.263928
    17  H    2.236379   2.214696   2.396518   2.545172   3.136917
    18  Cl   1.864632   3.929550   4.555443   4.335092   4.253669
    19  O    1.264098   2.953557   3.789440   2.636160   3.551913
                    6          7          8          9         10
     6  C    0.000000
     7  H    1.104504   0.000000
     8  H    1.100292   1.770554   0.000000
     9  H    1.098758   1.770351   1.790736   0.000000
    10  O    2.528181   3.477675   2.635417   2.964925   0.000000
    11  O    4.339524   4.965960   4.816946   4.755371   2.480764
    12  C    5.312234   6.026208   5.835706   5.478429   3.372619
    13  H    5.929381   6.728099   6.288604   6.131537   3.679270
    14  H    6.020935   6.605563   6.646655   6.199613   4.308226
    15  H    5.031160   5.804686   5.614449   4.981907   3.309610
    16  H    3.733558   4.213888   4.418695   4.115903   2.544701
    17  H    3.551302   4.356594   3.830178   3.983296   1.290806
    18  Cl   2.738145   2.899206   2.938468   3.742224   2.536362
    19  O    2.433831   2.880496   3.319437   2.704694   2.280217
                   11         12         13         14         15
    11  O    0.000000
    12  C    1.451058   0.000000
    13  H    2.041577   1.095788   0.000000
    14  H    2.055110   1.097264   1.799876   0.000000
    15  H    2.106712   1.093545   1.814068   1.805256   0.000000
    16  H    1.118249   2.094034   2.978312   2.450536   2.366431
    17  H    1.270812   2.233773   2.530377   3.142678   2.487816
    18  Cl   3.165841   4.579715   5.065353   5.105372   4.894216
    19  O    2.441662   3.282378   4.154187   3.762821   3.096611
                   16         17         18         19
    16  H    0.000000
    17  H    1.762809   0.000000
    18  Cl   2.839597   2.757193   0.000000
    19  O    1.513346   2.326432   2.622353   0.000000
 Stoichiometry    C4H11ClO3
 Framework group  C1[X(C4H11ClO3)]
 Deg. of freedom    51
 Full point group                 C1      NOp   1
 Largest Abelian subgroup         C1      NOp   1
 Largest concise Abelian subgroup C1      NOp   1
                         Standard orientation:                         
 ---------------------------------------------------------------------
 Center     Atomic      Atomic             Coordinates (Angstroms)
 Number     Number       Type             X           Y           Z
 ---------------------------------------------------------------------
      1          6           0        0.884558    0.116628    0.418907
      2          6           0       -0.398563    2.086422   -0.609586
      3          1           0       -1.166118    2.271506   -1.367134
      4          1           0       -0.779578    2.236265    0.406015
      5          1           0        0.478877    2.714415   -0.799143
      6          6           0        2.120771    0.936787    0.590683
      7          1           0        2.882752    0.361331    1.145809
      8          1           0        2.570868    1.213746   -0.374381
      9          1           0        1.924419    1.849674    1.169780
     10          8           0        0.018310    0.710864   -0.795072
     11          8           0       -1.763632   -0.869703   -0.101762
     12          6           0       -3.040711   -0.268041    0.233857
     13          1           0       -3.563040   -0.128910   -0.719331
     14          1           0       -3.576005   -0.993577    0.859193
     15          1           0       -2.900725    0.677932    0.764309
     16          1           0       -1.128054   -0.888828    0.818105
     17          1           0       -1.034514   -0.032144   -0.719698
     18         17           0        1.323828   -1.443907   -0.502301
     19          8           0        0.044036   -0.086882    1.340889
 ---------------------------------------------------------------------
 Rotational constants (GHZ):      2.0335794      1.2248437      0.9612350
 General basis read from cards:  (5D, 7F)
 ======================================================================================================
                                       Pseudopotential Parameters
 ======================================================================================================
  Center     Atomic      Valence      Angular      Power
  Number     Number     Electrons     Momentum     of R      Exponent        Coefficient   SO-Coeffient
 ======================================================================================================
    1          6
                                   No pseudopotential on this center.
    2          6
                                   No pseudopotential on this center.
    3          1
                                   No pseudopotential on this center.
    4          1
                                   No pseudopotential on this center.
    5          1
                                   No pseudopotential on this center.
    6          6
                                   No pseudopotential on this center.
    7          1
                                   No pseudopotential on this center.
    8          1
                                   No pseudopotential on this center.
    9          1
                                   No pseudopotential on this center.
   10          8
                                   No pseudopotential on this center.
   11          8
                                   No pseudopotential on this center.
   12          6
                                   No pseudopotential on this center.
   13          1
                                   No pseudopotential on this center.
   14          1
                                   No pseudopotential on this center.
   15          1
                                   No pseudopotential on this center.
   16          1
                                   No pseudopotential on this center.
   17          1
                                   No pseudopotential on this center.
   18         17
                                   No pseudopotential on this center.
   19          8
                                   No pseudopotential on this center.
 ======================================================================================================
 AO basis set in the form of general basis input (Overlap normalization):
      1 0
 S   7 1.00       0.000000000000
      0.8236000000D+04  0.5419783203D-03
      0.1235000000D+04  0.4192873817D-02
      0.2808000000D+03  0.2152216205D-01
      0.7927000000D+02  0.8353432195D-01
      0.2559000000D+02  0.2395828457D+00
      0.8997000000D+01  0.4428528419D+00
      0.3319000000D+01  0.3517995618D+00
 S   6 1.00       0.000000000000
      0.2808000000D+03 -0.5949224937D-04
      0.7927000000D+02 -0.1148158310D-02
      0.2559000000D+02 -0.1001913745D-01
      0.8997000000D+01 -0.6121949230D-01
      0.3319000000D+01 -0.1732698541D+00
      0.3643000000D+00  0.1072915192D+01
 S   1 1.00       0.000000000000
      0.9059000000D+00  0.1000000000D+01
 S   1 1.00       0.000000000000
      0.1285000000D+00  0.1000000000D+01
 S   1 1.00       0.000000000000
      0.4402000000D-01  0.1000000000D+01
 P   3 1.00       0.000000000000
      0.1871000000D+02  0.3942638716D-01
      0.4133000000D+01  0.2440889849D+00
      0.1200000000D+01  0.8154920089D+00
 P   1 1.00       0.000000000000
      0.3827000000D+00  0.1000000000D+01
 P   1 1.00       0.000000000000
      0.1209000000D+00  0.1000000000D+01
 P   1 1.00       0.000000000000
      0.3569000000D-01  0.1000000000D+01
 D   1 1.00       0.000000000000
      0.1097000000D+01  0.1000000000D+01
 D   1 1.00       0.000000000000
      0.3180000000D+00  0.1000000000D+01
 D   1 1.00       0.000000000000
      0.1000000000D+00  0.1000000000D+01
 F   1 1.00       0.000000000000
      0.7610000000D+00  0.1000000000D+01
 F   1 1.00       0.000000000000
      0.2680000000D+00  0.1000000000D+01
 ****
      2 0
 S   7 1.00       0.000000000000
      0.8236000000D+04  0.5419783203D-03
      0.1235000000D+04  0.4192873817D-02
      0.2808000000D+03  0.2152216205D-01
      0.7927000000D+02  0.8353432195D-01
      0.2559000000D+02  0.2395828457D+00
      0.8997000000D+01  0.4428528419D+00
      0.3319000000D+01  0.3517995618D+00
 S   6 1.00       0.000000000000
      0.2808000000D+03 -0.5949224937D-04
      0.7927000000D+02 -0.1148158310D-02
      0.2559000000D+02 -0.1001913745D-01
      0.8997000000D+01 -0.6121949230D-01
      0.3319000000D+01 -0.1732698541D+00
      0.3643000000D+00  0.1072915192D+01
 S   1 1.00       0.000000000000
      0.9059000000D+00  0.1000000000D+01
 S   1 1.00       0.000000000000
      0.1285000000D+00  0.1000000000D+01
 S   1 1.00       0.000000000000
      0.4402000000D-01  0.1000000000D+01
 P   3 1.00       0.000000000000
      0.1871000000D+02  0.3942638716D-01
      0.4133000000D+01  0.2440889849D+00
      0.1200000000D+01  0.8154920089D+00
 P   1 1.00       0.000000000000
      0.3827000000D+00  0.1000000000D+01
 P   1 1.00       0.000000000000
      0.1209000000D+00  0.1000000000D+01
 P   1 1.00       0.000000000000
      0.3569000000D-01  0.1000000000D+01
 D   1 1.00       0.000000000000
      0.1097000000D+01  0.1000000000D+01
 D   1 1.00       0.000000000000
      0.3180000000D+00  0.1000000000D+01
 D   1 1.00       0.000000000000
      0.1000000000D+00  0.1000000000D+01
 F   1 1.00       0.000000000000
      0.7610000000D+00  0.1000000000D+01
 F   1 1.00       0.000000000000
      0.2680000000D+00  0.1000000000D+01
 ****
      3 0
 S   3 1.00       0.000000000000
      0.3387000000D+02  0.2549486323D-01
      0.5095000000D+01  0.1903627659D+00
      0.1159000000D+01  0.8521620222D+00
 S   1 1.00       0.000000000000
      0.3258000000D+00  0.1000000000D+01
 S   1 1.00       0.000000000000
      0.1027000000D+00  0.1000000000D+01
 S   1 1.00       0.000000000000
      0.2526000000D-01  0.1000000000D+01
 P   1 1.00       0.000000000000
      0.1407000000D+01  0.1000000000D+01
 P   1 1.00       0.000000000000
      0.3880000000D+00  0.1000000000D+01
 P   1 1.00       0.000000000000
      0.1020000000D+00  0.1000000000D+01
 D   1 1.00       0.000000000000
      0.1057000000D+01  0.1000000000D+01
 D   1 1.00       0.000000000000
      0.2470000000D+00  0.1000000000D+01
 ****
      4 0
 S   3 1.00       0.000000000000
      0.3387000000D+02  0.2549486323D-01
      0.5095000000D+01  0.1903627659D+00
      0.1159000000D+01  0.8521620222D+00
 S   1 1.00       0.000000000000
      0.3258000000D+00  0.1000000000D+01
 S   1 1.00       0.000000000000
      0.1027000000D+00  0.1000000000D+01
 S   1 1.00       0.000000000000
      0.2526000000D-01  0.1000000000D+01
 P   1 1.00       0.000000000000
      0.1407000000D+01  0.1000000000D+01
 P   1 1.00       0.000000000000
      0.3880000000D+00  0.1000000000D+01
 P   1 1.00       0.000000000000
      0.1020000000D+00  0.1000000000D+01
 D   1 1.00       0.000000000000
      0.1057000000D+01  0.1000000000D+01
 D   1 1.00       0.000000000000
      0.2470000000D+00  0.1000000000D+01
 ****
      5 0
 S   3 1.00       0.000000000000
      0.3387000000D+02  0.2549486323D-01
      0.5095000000D+01  0.1903627659D+00
      0.1159000000D+01  0.8521620222D+00
 S   1 1.00       0.000000000000
      0.3258000000D+00  0.1000000000D+01
 S   1 1.00       0.000000000000
      0.1027000000D+00  0.1000000000D+01
 S   1 1.00       0.000000000000
      0.2526000000D-01  0.1000000000D+01
 P   1 1.00       0.000000000000
      0.1407000000D+01  0.1000000000D+01
 P   1 1.00       0.000000000000
      0.3880000000D+00  0.1000000000D+01
 P   1 1.00       0.000000000000
      0.1020000000D+00  0.1000000000D+01
 D   1 1.00       0.000000000000
      0.1057000000D+01  0.1000000000D+01
 D   1 1.00       0.000000000000
      0.2470000000D+00  0.1000000000D+01
 ****
      6 0
 S   7 1.00       0.000000000000
      0.8236000000D+04  0.5419783203D-03
      0.1235000000D+04  0.4192873817D-02
      0.2808000000D+03  0.2152216205D-01
      0.7927000000D+02  0.8353432195D-01
      0.2559000000D+02  0.2395828457D+00
      0.8997000000D+01  0.4428528419D+00
      0.3319000000D+01  0.3517995618D+00
 S   6 1.00       0.000000000000
      0.2808000000D+03 -0.5949224937D-04
      0.7927000000D+02 -0.1148158310D-02
      0.2559000000D+02 -0.1001913745D-01
      0.8997000000D+01 -0.6121949230D-01
      0.3319000000D+01 -0.1732698541D+00
      0.3643000000D+00  0.1072915192D+01
 S   1 1.00       0.000000000000
      0.9059000000D+00  0.1000000000D+01
 S   1 1.00       0.000000000000
      0.1285000000D+00  0.1000000000D+01
 S   1 1.00       0.000000000000
      0.4402000000D-01  0.1000000000D+01
 P   3 1.00       0.000000000000
      0.1871000000D+02  0.3942638716D-01
      0.4133000000D+01  0.2440889849D+00
      0.1200000000D+01  0.8154920089D+00
 P   1 1.00       0.000000000000
      0.3827000000D+00  0.1000000000D+01
 P   1 1.00       0.000000000000
      0.1209000000D+00  0.1000000000D+01
 P   1 1.00       0.000000000000
      0.3569000000D-01  0.1000000000D+01
 D   1 1.00       0.000000000000
      0.1097000000D+01  0.1000000000D+01
 D   1 1.00       0.000000000000
      0.3180000000D+00  0.1000000000D+01
 D   1 1.00       0.000000000000
      0.1000000000D+00  0.1000000000D+01
 F   1 1.00       0.000000000000
      0.7610000000D+00  0.1000000000D+01
 F   1 1.00       0.000000000000
      0.2680000000D+00  0.1000000000D+01
 ****
      7 0
 S   3 1.00       0.000000000000
      0.3387000000D+02  0.2549486323D-01
      0.5095000000D+01  0.1903627659D+00
      0.1159000000D+01  0.8521620222D+00
 S   1 1.00       0.000000000000
      0.3258000000D+00  0.1000000000D+01
 S   1 1.00       0.000000000000
      0.1027000000D+00  0.1000000000D+01
 S   1 1.00       0.000000000000
      0.2526000000D-01  0.1000000000D+01
 P   1 1.00       0.000000000000
      0.1407000000D+01  0.1000000000D+01
 P   1 1.00       0.000000000000
      0.3880000000D+00  0.1000000000D+01
 P   1 1.00       0.000000000000
      0.1020000000D+00  0.1000000000D+01
 D   1 1.00       0.000000000000
      0.1057000000D+01  0.1000000000D+01
 D   1 1.00       0.000000000000
      0.2470000000D+00  0.1000000000D+01
 ****
      8 0
 S   3 1.00       0.000000000000
      0.3387000000D+02  0.2549486323D-01
      0.5095000000D+01  0.1903627659D+00
      0.1159000000D+01  0.8521620222D+00
 S   1 1.00       0.000000000000
      0.3258000000D+00  0.1000000000D+01
 S   1 1.00       0.000000000000
      0.1027000000D+00  0.1000000000D+01
 S   1 1.00       0.000000000000
      0.2526000000D-01  0.1000000000D+01
 P   1 1.00       0.000000000000
      0.1407000000D+01  0.1000000000D+01
 P   1 1.00       0.000000000000
      0.3880000000D+00  0.1000000000D+01
 P   1 1.00       0.000000000000
      0.1020000000D+00  0.1000000000D+01
 D   1 1.00       0.000000000000
      0.1057000000D+01  0.1000000000D+01
 D   1 1.00       0.000000000000
      0.2470000000D+00  0.1000000000D+01
 ****
      9 0
 S   3 1.00       0.000000000000
      0.3387000000D+02  0.2549486323D-01
      0.5095000000D+01  0.1903627659D+00
      0.1159000000D+01  0.8521620222D+00
 S   1 1.00       0.000000000000
      0.3258000000D+00  0.1000000000D+01
 S   1 1.00       0.000000000000
      0.1027000000D+00  0.1000000000D+01
 S   1 1.00       0.000000000000
      0.2526000000D-01  0.1000000000D+01
 P   1 1.00       0.000000000000
      0.1407000000D+01  0.1000000000D+01
 P   1 1.00       0.000000000000
      0.3880000000D+00  0.1000000000D+01
 P   1 1.00       0.000000000000
      0.1020000000D+00  0.1000000000D+01
 D   1 1.00       0.000000000000
      0.1057000000D+01  0.1000000000D+01
 D   1 1.00       0.000000000000
      0.2470000000D+00  0.1000000000D+01
 ****
     10 0
 S   7 1.00       0.000000000000
      0.1533000000D+05  0.5198089434D-03
      0.2299000000D+04  0.4020256215D-02
      0.5224000000D+03  0.2071282673D-01
      0.1473000000D+03  0.8101055358D-01
      0.4755000000D+02  0.2359629851D+00
      0.1676000000D+02  0.4426534455D+00
      0.6207000000D+01  0.3570644227D+00
 S   6 1.00       0.000000000000
      0.5224000000D+03 -0.4421150084D-04
      0.1473000000D+03 -0.1225910413D-02
      0.4755000000D+02 -0.1055177248D-01
      0.1676000000D+02 -0.6744526326D-01
      0.6207000000D+01 -0.1711986073D+00
      0.6882000000D+00  0.1073298561D+01
 S   1 1.00       0.000000000000
      0.1752000000D+01  0.1000000000D+01
 S   1 1.00       0.000000000000
      0.2384000000D+00  0.1000000000D+01
 S   1 1.00       0.000000000000
      0.7376000000D-01  0.1000000000D+01
 P   3 1.00       0.000000000000
      0.3446000000D+02  0.4116348957D-01
      0.7749000000D+01  0.2577628359D+00
      0.2280000000D+01  0.8024192744D+00
 P   1 1.00       0.000000000000
      0.7156000000D+00  0.1000000000D+01
 P   1 1.00       0.000000000000
      0.2140000000D+00  0.1000000000D+01
 P   1 1.00       0.000000000000
      0.5974000000D-01  0.1000000000D+01
 D   1 1.00       0.000000000000
      0.2314000000D+01  0.1000000000D+01
 D   1 1.00       0.000000000000
      0.6450000000D+00  0.1000000000D+01
 D   1 1.00       0.000000000000
      0.2140000000D+00  0.1000000000D+01
 F   1 1.00       0.000000000000
      0.1428000000D+01  0.1000000000D+01
 F   1 1.00       0.000000000000
      0.5000000000D+00  0.1000000000D+01
 ****
     11 0
 S   7 1.00       0.000000000000
      0.1533000000D+05  0.5198089434D-03
      0.2299000000D+04  0.4020256215D-02
      0.5224000000D+03  0.2071282673D-01
      0.1473000000D+03  0.8101055358D-01
      0.4755000000D+02  0.2359629851D+00
      0.1676000000D+02  0.4426534455D+00
      0.6207000000D+01  0.3570644227D+00
 S   6 1.00       0.000000000000
      0.5224000000D+03 -0.4421150084D-04
      0.1473000000D+03 -0.1225910413D-02
      0.4755000000D+02 -0.1055177248D-01
      0.1676000000D+02 -0.6744526326D-01
      0.6207000000D+01 -0.1711986073D+00
      0.6882000000D+00  0.1073298561D+01
 S   1 1.00       0.000000000000
      0.1752000000D+01  0.1000000000D+01
 S   1 1.00       0.000000000000
      0.2384000000D+00  0.1000000000D+01
 S   1 1.00       0.000000000000
      0.7376000000D-01  0.1000000000D+01
 P   3 1.00       0.000000000000
      0.3446000000D+02  0.4116348957D-01
      0.7749000000D+01  0.2577628359D+00
      0.2280000000D+01  0.8024192744D+00
 P   1 1.00       0.000000000000
      0.7156000000D+00  0.1000000000D+01
 P   1 1.00       0.000000000000
      0.2140000000D+00  0.1000000000D+01
 P   1 1.00       0.000000000000
      0.5974000000D-01  0.1000000000D+01
 D   1 1.00       0.000000000000
      0.2314000000D+01  0.1000000000D+01
 D   1 1.00       0.000000000000
      0.6450000000D+00  0.1000000000D+01
 D   1 1.00       0.000000000000
      0.2140000000D+00  0.1000000000D+01
 F   1 1.00       0.000000000000
      0.1428000000D+01  0.1000000000D+01
 F   1 1.00       0.000000000000
      0.5000000000D+00  0.1000000000D+01
 ****
     12 0
 S   7 1.00       0.000000000000
      0.8236000000D+04  0.5419783203D-03
      0.1235000000D+04  0.4192873817D-02
      0.2808000000D+03  0.2152216205D-01
      0.7927000000D+02  0.8353432195D-01
      0.2559000000D+02  0.2395828457D+00
      0.8997000000D+01  0.4428528419D+00
      0.3319000000D+01  0.3517995618D+00
 S   6 1.00       0.000000000000
      0.2808000000D+03 -0.5949224937D-04
      0.7927000000D+02 -0.1148158310D-02
      0.2559000000D+02 -0.1001913745D-01
      0.8997000000D+01 -0.6121949230D-01
      0.3319000000D+01 -0.1732698541D+00
      0.3643000000D+00  0.1072915192D+01
 S   1 1.00       0.000000000000
      0.9059000000D+00  0.1000000000D+01
 S   1 1.00       0.000000000000
      0.1285000000D+00  0.1000000000D+01
 S   1 1.00       0.000000000000
      0.4402000000D-01  0.1000000000D+01
 P   3 1.00       0.000000000000
      0.1871000000D+02  0.3942638716D-01
      0.4133000000D+01  0.2440889849D+00
      0.1200000000D+01  0.8154920089D+00
 P   1 1.00       0.000000000000
      0.3827000000D+00  0.1000000000D+01
 P   1 1.00       0.000000000000
      0.1209000000D+00  0.1000000000D+01
 P   1 1.00       0.000000000000
      0.3569000000D-01  0.1000000000D+01
 D   1 1.00       0.000000000000
      0.1097000000D+01  0.1000000000D+01
 D   1 1.00       0.000000000000
      0.3180000000D+00  0.1000000000D+01
 D   1 1.00       0.000000000000
      0.1000000000D+00  0.1000000000D+01
 F   1 1.00       0.000000000000
      0.7610000000D+00  0.1000000000D+01
 F   1 1.00       0.000000000000
      0.2680000000D+00  0.1000000000D+01
 ****
     13 0
 S   3 1.00       0.000000000000
      0.3387000000D+02  0.2549486323D-01
      0.5095000000D+01  0.1903627659D+00
      0.1159000000D+01  0.8521620222D+00
 S   1 1.00       0.000000000000
      0.3258000000D+00  0.1000000000D+01
 S   1 1.00       0.000000000000
      0.1027000000D+00  0.1000000000D+01
 S   1 1.00       0.000000000000
      0.2526000000D-01  0.1000000000D+01
 P   1 1.00       0.000000000000
      0.1407000000D+01  0.1000000000D+01
 P   1 1.00       0.000000000000
      0.3880000000D+00  0.1000000000D+01
 P   1 1.00       0.000000000000
      0.1020000000D+00  0.1000000000D+01
 D   1 1.00       0.000000000000
      0.1057000000D+01  0.1000000000D+01
 D   1 1.00       0.000000000000
      0.2470000000D+00  0.1000000000D+01
 ****
     14 0
 S   3 1.00       0.000000000000
      0.3387000000D+02  0.2549486323D-01
      0.5095000000D+01  0.1903627659D+00
      0.1159000000D+01  0.8521620222D+00
 S   1 1.00       0.000000000000
      0.3258000000D+00  0.1000000000D+01
 S   1 1.00       0.000000000000
      0.1027000000D+00  0.1000000000D+01
 S   1 1.00       0.000000000000
      0.2526000000D-01  0.1000000000D+01
 P   1 1.00       0.000000000000
      0.1407000000D+01  0.1000000000D+01
 P   1 1.00       0.000000000000
      0.3880000000D+00  0.1000000000D+01
 P   1 1.00       0.000000000000
      0.1020000000D+00  0.1000000000D+01
 D   1 1.00       0.000000000000
      0.1057000000D+01  0.1000000000D+01
 D   1 1.00       0.000000000000
      0.2470000000D+00  0.1000000000D+01
 ****
     15 0
 S   3 1.00       0.000000000000
      0.3387000000D+02  0.2549486323D-01
      0.5095000000D+01  0.1903627659D+00
      0.1159000000D+01  0.8521620222D+00
 S   1 1.00       0.000000000000
      0.3258000000D+00  0.1000000000D+01
 S   1 1.00       0.000000000000
      0.1027000000D+00  0.1000000000D+01
 S   1 1.00       0.000000000000
      0.2526000000D-01  0.1000000000D+01
 P   1 1.00       0.000000000000
      0.1407000000D+01  0.1000000000D+01
 P   1 1.00       0.000000000000
      0.3880000000D+00  0.1000000000D+01
 P   1 1.00       0.000000000000
      0.1020000000D+00  0.1000000000D+01
 D   1 1.00       0.000000000000
      0.1057000000D+01  0.1000000000D+01
 D   1 1.00       0.000000000000
      0.2470000000D+00  0.1000000000D+01
 ****
     16 0
 S   3 1.00       0.000000000000
      0.3387000000D+02  0.2549486323D-01
      0.5095000000D+01  0.1903627659D+00
      0.1159000000D+01  0.8521620222D+00
 S   1 1.00       0.000000000000
      0.3258000000D+00  0.1000000000D+01
 S   1 1.00       0.000000000000
      0.1027000000D+00  0.1000000000D+01
 S   1 1.00       0.000000000000
      0.2526000000D-01  0.1000000000D+01
 P   1 1.00       0.000000000000
      0.1407000000D+01  0.1000000000D+01
 P   1 1.00       0.000000000000
      0.3880000000D+00  0.1000000000D+01
 P   1 1.00       0.000000000000
      0.1020000000D+00  0.1000000000D+01
 D   1 1.00       0.000000000000
      0.1057000000D+01  0.1000000000D+01
 D   1 1.00       0.000000000000
      0.2470000000D+00  0.1000000000D+01
 ****
     17 0
 S   3 1.00       0.000000000000
      0.3387000000D+02  0.2549486323D-01
      0.5095000000D+01  0.1903627659D+00
      0.1159000000D+01  0.8521620222D+00
 S   1 1.00       0.000000000000
      0.3258000000D+00  0.1000000000D+01
 S   1 1.00       0.000000000000
      0.1027000000D+00  0.1000000000D+01
 S   1 1.00       0.000000000000
      0.2526000000D-01  0.1000000000D+01
 P   1 1.00       0.000000000000
      0.1407000000D+01  0.1000000000D+01
 P   1 1.00       0.000000000000
      0.3880000000D+00  0.1000000000D+01
 P   1 1.00       0.000000000000
      0.1020000000D+00  0.1000000000D+01
 D   1 1.00       0.000000000000
      0.1057000000D+01  0.1000000000D+01
 D   1 1.00       0.000000000000
      0.2470000000D+00  0.1000000000D+01
 ****
     18 0
 S   3 1.00       0.000000000000
      0.1362022000D+04  0.6554398503D-01
      0.2058111000D+03  0.3829869125D+00
      0.4477216700D+02  0.6752098457D+00
 S   3 1.00       0.000000000000
      0.5922573200D+02 -0.9561999185D-01
      0.5213902000D+01  0.6414259453D+00
      0.2047346000D+01  0.4251529638D+00
 S   2 1.00       0.000000000000
      0.3419712000D+01  0.3208071805D+00
      0.4700170000D+00 -0.1130921225D+01
 S   1 1.00       0.000000000000
      0.1699580000D+00  0.1000000000D+01
 P   3 1.00       0.000000000000
      0.6409995800D+02  0.1017890594D+00
      0.1428713900D+02  0.4561072660D+00
      0.3828135000D+01  0.6142823583D+00
 P   2 1.00       0.000000000000
      0.1095126000D+01  0.4970218365D+00
      0.1321760000D+00  0.7302483162D+00
 P   1 1.00       0.000000000000
      0.3960040000D+00  0.1000000000D+01
 D   1 1.00       0.000000000000
      0.6500000000D+00  0.1000000000D+01
 ****
     19 0
 S   7 1.00       0.000000000000
      0.1533000000D+05  0.5198089434D-03
      0.2299000000D+04  0.4020256215D-02
      0.5224000000D+03  0.2071282673D-01
      0.1473000000D+03  0.8101055358D-01
      0.4755000000D+02  0.2359629851D+00
      0.1676000000D+02  0.4426534455D+00
      0.6207000000D+01  0.3570644227D+00
 S   6 1.00       0.000000000000
      0.5224000000D+03 -0.4421150084D-04
      0.1473000000D+03 -0.1225910413D-02
      0.4755000000D+02 -0.1055177248D-01
      0.1676000000D+02 -0.6744526326D-01
      0.6207000000D+01 -0.1711986073D+00
      0.6882000000D+00  0.1073298561D+01
 S   1 1.00       0.000000000000
      0.1752000000D+01  0.1000000000D+01
 S   1 1.00       0.000000000000
      0.2384000000D+00  0.1000000000D+01
 S   1 1.00       0.000000000000
      0.7376000000D-01  0.1000000000D+01
 P   3 1.00       0.000000000000
      0.3446000000D+02  0.4116348957D-01
      0.7749000000D+01  0.2577628359D+00
      0.2280000000D+01  0.8024192744D+00
 P   1 1.00       0.000000000000
      0.7156000000D+00  0.1000000000D+01
 P   1 1.00       0.000000000000
      0.2140000000D+00  0.1000000000D+01
 P   1 1.00       0.000000000000
      0.5974000000D-01  0.1000000000D+01
 D   1 1.00       0.000000000000
      0.2314000000D+01  0.1000000000D+01
 D   1 1.00       0.000000000000
      0.6450000000D+00  0.1000000000D+01
 D   1 1.00       0.000000000000
      0.2140000000D+00  0.1000000000D+01
 F   1 1.00       0.000000000000
      0.1428000000D+01  0.1000000000D+01
 F   1 1.00       0.000000000000
      0.5000000000D+00  0.1000000000D+01
 ****

 There are   679 symmetry adapted cartesian basis functions of A   symmetry.
 There are   593 symmetry adapted basis functions of A   symmetry.
   593 basis functions,   834 primitive gaussians,   679 cartesian basis functions
    38 alpha electrons       38 beta electrons
       nuclear repulsion energy       523.1875724889 Hartrees.
 NAtoms=   19 NActive=   19 NUniq=   19 SFac= 1.00D+00 NAtFMM=   60 NAOKFM=F Big=F
 Integral buffers will be    131072 words long.
 Raffenetti 2 integral format.
 Two-electron integral symmetry is turned on.
 One-electron integrals computed using PRISM.
 PrsmSu:  requested number of processors reduced to:   3 ShMem   1 Linda.
   1 Symmetry operations used in ECPInt.
 ECPInt:  NShTT=   21115 NPrTT=   53618 LenC2=   20830 LenP2D=   44550.
 LDataN:  DoStor=T MaxTD1= 6 Len=  172
 Number of processors reduced to   7 by ecpmxn.
 NBasis=   593 RedAO= T EigKep=  9.17D-06  NBF=   593
 NBsUse=   593 1.00D-06 EigRej= -1.00D+00 NBFU=   593
 ExpMin= 2.53D-02 ExpMax= 1.53D+04 ExpMxC= 1.36D+03 IAcc=3 IRadAn=         5 AccDes= 0.00D+00
 Harris functional with IExCor=  402 and IRadAn=       5 diagonalized for initial guess.
 HarFok:  IExCor=  402 AccDes= 0.00D+00 IRadAn=         5 IDoV= 1 UseB2=F ITyADJ=14
 ICtDFT=  3500011 ScaDFX=  1.000000  1.000000  1.000000  1.000000
 FoFCou: FMM=F IPFlag=           0 FMFlag=      100000 FMFlg1=           0
         NFxFlg=           0 DoJE=T BraDBF=F KetDBF=T FulRan=T
         wScrn=  0.000000 ICntrl=     500 IOpCl=  0 I1Cent=   200000004 NGrid=           0
         NMat0=    1 NMatS0=      1 NMatT0=    0 NMatD0=    1 NMtDS0=    0 NMtDT0=    0
 Petite list used in FoFCou.
 Requested convergence on RMS density matrix=1.00D-08 within 128 cycles.
 Requested convergence on MAX density matrix=1.00D-06.
 Requested convergence on             energy=1.00D-06.
 No special actions if energy rises.
 SCF Done:  E(RB3LYP) =  -842.911995492     A.U. after   13 cycles
            NFock= 13  Conv=0.66D-08     -V/T= 2.0086
 DoSCS=F DFT=T ScalE2(SS,OS)=  1.000000  1.000000
 Range of M.O.s used for correlation:     1   593
 NBasis=   593 NAE=    38 NBE=    38 NFC=     0 NFV=     0
 NROrb=    593 NOA=    38 NOB=    38 NVA=   555 NVB=   555

 **** Warning!!: The largest alpha MO coefficient is  0.51742551D+02

 PrsmSu:  requested number of processors reduced to:   3 ShMem   1 Linda.
 PrsmSu:  requested number of processors reduced to:   1 ShMem   1 Linda.
   1 Symmetry operations used in ECPInt.
 ECPInt:  NShTT=   21115 NPrTT=   53618 LenC2=   20830 LenP2D=   44550.
 LDataN:  DoStor=T MaxTD1= 7 Len=  274
 Number of processors reduced to   1 by ecpmxn.
 Symmetrizing basis deriv contribution to polar:
 IMax=3 JMax=2 DiffMx= 0.00D+00
 G2DrvN: will do     1 centers at a time, making   20 passes.
 Estimated number of processors is:    6
 Calling FoFCou, ICntrl=  3107 FMM=F I1Cent=   0 AccDes= 0.00D+00.
 CoulSu:  requested number of processors reduced to:   6 ShMem   1 Linda.
 Calling FoFCou, ICntrl=  3107 FMM=F I1Cent=   0 AccDes= 0.00D+00.
 CoulSu:  requested number of processors reduced to:   6 ShMem   1 Linda.
 Calling FoFCou, ICntrl=  3107 FMM=F I1Cent=   0 AccDes= 0.00D+00.
 CoulSu:  requested number of processors reduced to:   6 ShMem   1 Linda.
 Calling FoFCou, ICntrl=  3107 FMM=F I1Cent=   0 AccDes= 0.00D+00.
 CoulSu:  requested number of processors reduced to:   6 ShMem   1 Linda.
 Calling FoFCou, ICntrl=  3107 FMM=F I1Cent=   0 AccDes= 0.00D+00.
 CoulSu:  requested number of processors reduced to:   6 ShMem   1 Linda.
 Calling FoFCou, ICntrl=  3107 FMM=F I1Cent=   0 AccDes= 0.00D+00.
 CoulSu:  requested number of processors reduced to:   6 ShMem   1 Linda.
 Calling FoFCou, ICntrl=  3107 FMM=F I1Cent=   0 AccDes= 0.00D+00.
 CoulSu:  requested number of processors reduced to:   6 ShMem   1 Linda.
 Calling FoFCou, ICntrl=  3107 FMM=F I1Cent=   0 AccDes= 0.00D+00.
 CoulSu:  requested number of processors reduced to:   6 ShMem   1 Linda.
 Calling FoFCou, ICntrl=  3107 FMM=F I1Cent=   0 AccDes= 0.00D+00.
 CoulSu:  requested number of processors reduced to:   6 ShMem   1 Linda.
 Calling FoFCou, ICntrl=  3107 FMM=F I1Cent=   0 AccDes= 0.00D+00.
 CoulSu:  requested number of processors reduced to:   6 ShMem   1 Linda.
 Calling FoFCou, ICntrl=  3107 FMM=F I1Cent=   0 AccDes= 0.00D+00.
 CoulSu:  requested number of processors reduced to:   6 ShMem   1 Linda.
 Calling FoFCou, ICntrl=  3107 FMM=F I1Cent=   0 AccDes= 0.00D+00.
 CoulSu:  requested number of processors reduced to:   6 ShMem   1 Linda.
 Calling FoFCou, ICntrl=  3107 FMM=F I1Cent=   0 AccDes= 0.00D+00.
 CoulSu:  requested number of processors reduced to:   6 ShMem   1 Linda.
 Calling FoFCou, ICntrl=  3107 FMM=F I1Cent=   0 AccDes= 0.00D+00.
 CoulSu:  requested number of processors reduced to:   6 ShMem   1 Linda.
 Calling FoFCou, ICntrl=  3107 FMM=F I1Cent=   0 AccDes= 0.00D+00.
 CoulSu:  requested number of processors reduced to:   6 ShMem   1 Linda.
 Calling FoFCou, ICntrl=  3107 FMM=F I1Cent=   0 AccDes= 0.00D+00.
 CoulSu:  requested number of processors reduced to:   6 ShMem   1 Linda.
 Calling FoFCou, ICntrl=  3107 FMM=F I1Cent=   0 AccDes= 0.00D+00.
 CoulSu:  requested number of processors reduced to:   6 ShMem   1 Linda.
 Calling FoFCou, ICntrl=  3107 FMM=F I1Cent=   0 AccDes= 0.00D+00.
 CoulSu:  requested number of processors reduced to:   6 ShMem   1 Linda.
 Calling FoFCou, ICntrl=  3107 FMM=F I1Cent=   0 AccDes= 0.00D+00.
 CoulSu:  requested number of processors reduced to:   6 ShMem   1 Linda.
 Calling FoFCou, ICntrl=  3107 FMM=F I1Cent=   0 AccDes= 0.00D+00.
 CoulSu:  requested number of processors reduced to:   6 ShMem   1 Linda.
 End of G2Drv F.D. properties file   721 does not exist.
 End of G2Drv F.D. properties file   722 does not exist.
 End of G2Drv F.D. properties file   788 does not exist.
          IDoAtm=1111111111111111111
          Differentiating once with respect to nuclear coordinates.
 PrRfSu:  requested number of processors reduced to:   5 ShMem   1 Linda.
 PrRfSu:  requested number of processors reduced to:   5 ShMem   1 Linda.
 PrRfSu:  requested number of processors reduced to:   5 ShMem   1 Linda.
 PrRfSu:  requested number of processors reduced to:   5 ShMem   1 Linda.
 PrRfSu:  requested number of processors reduced to:   5 ShMem   1 Linda.
 PrRfSu:  requested number of processors reduced to:   5 ShMem   1 Linda.
 PrRfSu:  requested number of processors reduced to:   5 ShMem   1 Linda.
 PrRfSu:  requested number of processors reduced to:   5 ShMem   1 Linda.
 PrRfSu:  requested number of processors reduced to:   5 ShMem   1 Linda.
 PrRfSu:  requested number of processors reduced to:   5 ShMem   1 Linda.
          There are    60 degrees of freedom in the 1st order CPHF.  IDoFFX=6 NUNeed=     0.
     57 vectors produced by pass  0 Test12= 3.52D-14 1.67D-09 XBig12= 2.79D-01 8.65D-02.
 AX will form     6 AO Fock derivatives at one time.
 PrRfSu:  requested number of processors reduced to:   5 ShMem   1 Linda.
 PrRfSu:  requested number of processors reduced to:   5 ShMem   1 Linda.
 PrRfSu:  requested number of processors reduced to:   5 ShMem   1 Linda.
 PrRfSu:  requested number of processors reduced to:   5 ShMem   1 Linda.
 PrRfSu:  requested number of processors reduced to:   5 ShMem   1 Linda.
 PrRfSu:  requested number of processors reduced to:   5 ShMem   1 Linda.
 PrRfSu:  requested number of processors reduced to:   5 ShMem   1 Linda.
 PrRfSu:  requested number of processors reduced to:   5 ShMem   1 Linda.
 PrRfSu:  requested number of processors reduced to:   5 ShMem   1 Linda.
     57 vectors produced by pass  1 Test12= 3.52D-14 1.67D-09 XBig12= 6.73D-02 4.15D-02.
 PrRfSu:  requested number of processors reduced to:   5 ShMem   1 Linda.
 PrRfSu:  requested number of processors reduced to:   5 ShMem   1 Linda.
 PrRfSu:  requested number of processors reduced to:   5 ShMem   1 Linda.
 PrRfSu:  requested number of processors reduced to:   5 ShMem   1 Linda.
 PrRfSu:  requested number of processors reduced to:   5 ShMem   1 Linda.
 PrRfSu:  requested number of processors reduced to:   5 ShMem   1 Linda.
 PrRfSu:  requested number of processors reduced to:   5 ShMem   1 Linda.
 PrRfSu:  requested number of processors reduced to:   5 ShMem   1 Linda.
 PrRfSu:  requested number of processors reduced to:   5 ShMem   1 Linda.
     55 vectors produced by pass  2 Test12= 3.52D-14 1.67D-09 XBig12= 1.43D-03 4.26D-03.
 PrRfSu:  requested number of processors reduced to:   5 ShMem   1 Linda.
 PrRfSu:  requested number of processors reduced to:   5 ShMem   1 Linda.
 PrRfSu:  requested number of processors reduced to:   5 ShMem   1 Linda.
 PrRfSu:  requested number of processors reduced to:   5 ShMem   1 Linda.
 PrRfSu:  requested number of processors reduced to:   5 ShMem   1 Linda.
 PrRfSu:  requested number of processors reduced to:   5 ShMem   1 Linda.
 PrRfSu:  requested number of processors reduced to:   5 ShMem   1 Linda.
 PrRfSu:  requested number of processors reduced to:   5 ShMem   1 Linda.
 PrRfSu:  requested number of processors reduced to:   5 ShMem   1 Linda.
     54 vectors produced by pass  3 Test12= 3.52D-14 1.67D-09 XBig12= 6.19D-06 2.54D-04.
 PrRfSu:  requested number of processors reduced to:   5 ShMem   1 Linda.
 PrRfSu:  requested number of processors reduced to:   5 ShMem   1 Linda.
 PrRfSu:  requested number of processors reduced to:   5 ShMem   1 Linda.
 PrRfSu:  requested number of processors reduced to:   5 ShMem   1 Linda.
 PrRfSu:  requested number of processors reduced to:   5 ShMem   1 Linda.
 PrRfSu:  requested number of processors reduced to:   5 ShMem   1 Linda.
 PrRfSu:  requested number of processors reduced to:   5 ShMem   1 Linda.
 PrRfSu:  requested number of processors reduced to:   5 ShMem   1 Linda.
 PrRfSu:  requested number of processors reduced to:   5 ShMem   1 Linda.
     54 vectors produced by pass  4 Test12= 3.52D-14 1.67D-09 XBig12= 1.84D-08 1.18D-05.
 PrRfSu:  requested number of processors reduced to:   5 ShMem   1 Linda.
 PrRfSu:  requested number of processors reduced to:   5 ShMem   1 Linda.
 PrRfSu:  requested number of processors reduced to:   5 ShMem   1 Linda.
 PrRfSu:  requested number of processors reduced to:   5 ShMem   1 Linda.
 PrRfSu:  requested number of processors reduced to:   5 ShMem   1 Linda.
 PrRfSu:  requested number of processors reduced to:   5 ShMem   1 Linda.
 PrRfSu:  requested number of processors reduced to:   5 ShMem   1 Linda.
 PrRfSu:  requested number of processors reduced to:   5 ShMem   1 Linda.
 PrRfSu:  requested number of processors reduced to:   5 ShMem   1 Linda.
     54 vectors produced by pass  5 Test12= 3.52D-14 1.67D-09 XBig12= 2.95D-11 4.67D-07.
 PrRfSu:  requested number of processors reduced to:   5 ShMem   1 Linda.
 PrRfSu:  requested number of processors reduced to:   5 ShMem   1 Linda.
 PrRfSu:  requested number of processors reduced to:   5 ShMem   1 Linda.
 PrRfSu:  requested number of processors reduced to:   5 ShMem   1 Linda.
 PrRfSu:  requested number of processors reduced to:   5 ShMem   1 Linda.
 PrRfSu:  requested number of processors reduced to:   5 ShMem   1 Linda.
 PrRfSu:  requested number of processors reduced to:   5 ShMem   1 Linda.
 PrRfSu:  requested number of processors reduced to:   5 ShMem   1 Linda.
 PrRfSu:  requested number of processors reduced to:   5 ShMem   1 Linda.
     40 vectors produced by pass  6 Test12= 3.52D-14 1.67D-09 XBig12= 1.65D-13 3.22D-08.
 PrRfSu:  requested number of processors reduced to:   5 ShMem   1 Linda.
 PrRfSu:  requested number of processors reduced to:   5 ShMem   1 Linda.
 PrRfSu:  requested number of processors reduced to:   5 ShMem   1 Linda.
 PrRfSu:  requested number of processors reduced to:   5 ShMem   1 Linda.
 PrRfSu:  requested number of processors reduced to:   5 ShMem   1 Linda.
 PrRfSu:  requested number of processors reduced to:   5 ShMem   1 Linda.
      6 vectors produced by pass  7 Test12= 3.52D-14 1.67D-09 XBig12= 3.38D-15 5.14D-09.
 PrRfSu:  requested number of processors reduced to:   5 ShMem   1 Linda.
 InvSVY:  IOpt=1 It=  1 EMax= 1.17D-15
 Solved reduced A of dimension   377 with    60 vectors.
 End of Minotr F.D. properties file   721 does not exist.
 End of Minotr F.D. properties file   722 does not exist.
 End of Minotr F.D. properties file   788 does not exist.

 **********************************************************************

            Population analysis using the SCF density.

 **********************************************************************

 Orbital symmetries:
       Occupied  (A) (A) (A) (A) (A) (A) (A) (A) (A) (A) (A) (A)
                 (A) (A) (A) (A) (A) (A) (A) (A) (A) (A) (A) (A)
                 (A) (A) (A) (A) (A) (A) (A) (A) (A) (A) (A) (A)
                 (A) (A)
       Virtual   (A) (A) (A) (A) (A) (A) (A) (A) (A) (A) (A) (A)
                 (A) (A) (A) (A) (A) (A) (A) (A) (A) (A) (A) (A)
                 (A) (A) (A) (A) (A) (A) (A) (A) (A) (A) (A) (A)
                 (A) (A) (A) (A) (A) (A) (A) (A) (A) (A) (A) (A)
                 (A) (A) (A) (A) (A) (A) (A) (A) (A) (A) (A) (A)
                 (A) (A) (A) (A) (A) (A) (A) (A) (A) (A) (A) (A)
                 (A) (A) (A) (A) (A) (A) (A) (A) (A) (A) (A) (A)
                 (A) (A) (A) (A) (A) (A) (A) (A) (A) (A) (A) (A)
                 (A) (A) (A) (A) (A) (A) (A) (A) (A) (A) (A) (A)
                 (A) (A) (A) (A) (A) (A) (A) (A) (A) (A) (A) (A)
                 (A) (A) (A) (A) (A) (A) (A) (A) (A) (A) (A) (A)
                 (A) (A) (A) (A) (A) (A) (A) (A) (A) (A) (A) (A)
                 (A) (A) (A) (A) (A) (A) (A) (A) (A) (A) (A) (A)
                 (A) (A) (A) (A) (A) (A) (A) (A) (A) (A) (A) (A)
                 (A) (A) (A) (A) (A) (A) (A) (A) (A) (A) (A) (A)
                 (A) (A) (A) (A) (A) (A) (A) (A) (A) (A) (A) (A)
                 (A) (A) (A) (A) (A) (A) (A) (A) (A) (A) (A) (A)
                 (A) (A) (A) (A) (A) (A) (A) (A) (A) (A) (A) (A)
                 (A) (A) (A) (A) (A) (A) (A) (A) (A) (A) (A) (A)
                 (A) (A) (A) (A) (A) (A) (A) (A) (A) (A) (A) (A)
                 (A) (A) (A) (A) (A) (A) (A) (A) (A) (A) (A) (A)
                 (A) (A) (A) (A) (A) (A) (A) (A) (A) (A) (A) (A)
                 (A) (A) (A) (A) (A) (A) (A) (A) (A) (A) (A) (A)
                 (A) (A) (A) (A) (A) (A) (A) (A) (A) (A) (A) (A)
                 (A) (A) (A) (A) (A) (A) (A) (A) (A) (A) (A) (A)
                 (A) (A) (A) (A) (A) (A) (A) (A) (A) (A) (A) (A)
                 (A) (A) (A) (A) (A) (A) (A) (A) (A) (A) (A) (A)
                 (A) (A) (A) (A) (A) (A) (A) (A) (A) (A) (A) (A)
                 (A) (A) (A) (A) (A) (A) (A) (A) (A) (A) (A) (A)
                 (A) (A) (A) (A) (A) (A) (A) (A) (A) (A) (A) (A)
                 (A) (A) (A) (A) (A) (A) (A) (A) (A) (A) (A) (A)
                 (A) (A) (A) (A) (A) (A) (A) (A) (A) (A) (A) (A)
                 (A) (A) (A) (A) (A) (A) (A) (A) (A) (A) (A) (A)
                 (A) (A) (A) (A) (A) (A) (A) (A) (A) (A) (A) (A)
                 (A) (A) (A) (A) (A) (A) (A) (A) (A) (A) (A) (A)
                 (A) (A) (A) (A) (A) (A) (A) (A) (A) (A) (A) (A)
                 (A) (A) (A) (A) (A) (A) (A) (A) (A) (A) (A) (A)
                 (A) (A) (A) (A) (A) (A) (A) (A) (A) (A) (A) (A)
                 (A) (A) (A) (A) (A) (A) (A) (A) (A) (A) (A) (A)
                 (A) (A) (A) (A) (A) (A) (A) (A) (A) (A) (A) (A)
                 (A) (A) (A) (A) (A) (A) (A) (A) (A) (A) (A) (A)
                 (A) (A) (A) (A) (A) (A) (A) (A) (A) (A) (A) (A)
                 (A) (A) (A) (A) (A) (A) (A) (A) (A) (A) (A) (A)
                 (A) (A) (A) (A) (A) (A) (A) (A) (A) (A) (A) (A)
                 (A) (A) (A) (A) (A) (A) (A) (A) (A) (A) (A) (A)
                 (A) (A) (A) (A) (A) (A) (A) (A) (A) (A) (A) (A)
                 (A) (A) (A)
 The electronic state is 1-A.
 Alpha  occ. eigenvalues -- -100.96344 -19.17872 -19.17369 -19.09327 -10.32560
 Alpha  occ. eigenvalues --  -10.24587 -10.24097 -10.18448  -9.44085  -7.18885
 Alpha  occ. eigenvalues --   -7.17951  -7.17792  -1.08288  -1.04021  -1.00057
 Alpha  occ. eigenvalues --   -0.81327  -0.74419  -0.71574  -0.70279  -0.57448
 Alpha  occ. eigenvalues --   -0.54909  -0.53806  -0.49857  -0.48208  -0.47071
 Alpha  occ. eigenvalues --   -0.46114  -0.44776  -0.43630  -0.41851  -0.40689
 Alpha  occ. eigenvalues --   -0.38676  -0.37387  -0.35960  -0.30987  -0.29622
 Alpha  occ. eigenvalues --   -0.28651  -0.26905  -0.26302
 Alpha virt. eigenvalues --   -0.02216  -0.00526   0.00103   0.00415   0.01658
 Alpha virt. eigenvalues --    0.01946   0.02207   0.02797   0.03568   0.04086
 Alpha virt. eigenvalues --    0.04925   0.05169   0.05281   0.06154   0.06482
 Alpha virt. eigenvalues --    0.06577   0.07686   0.07914   0.08337   0.08570
 Alpha virt. eigenvalues --    0.09291   0.09406   0.09832   0.10494   0.10570
 Alpha virt. eigenvalues --    0.10786   0.10984   0.11691   0.11962   0.13003
 Alpha virt. eigenvalues --    0.13437   0.14061   0.14888   0.15054   0.15120
 Alpha virt. eigenvalues --    0.15863   0.16637   0.17129   0.17797   0.18456
 Alpha virt. eigenvalues --    0.18887   0.19658   0.20633   0.21341   0.21726
 Alpha virt. eigenvalues --    0.21822   0.22905   0.23748   0.23959   0.24203
 Alpha virt. eigenvalues --    0.25018   0.25300   0.25620   0.26166   0.26631
 Alpha virt. eigenvalues --    0.26901   0.27463   0.27873   0.28842   0.29165
 Alpha virt. eigenvalues --    0.29573   0.30024   0.30420   0.30861   0.31135
 Alpha virt. eigenvalues --    0.31624   0.32314   0.33092   0.33476   0.33610
 Alpha virt. eigenvalues --    0.34094   0.34822   0.35157   0.35306   0.35920
 Alpha virt. eigenvalues --    0.36202   0.36584   0.36971   0.37320   0.38837
 Alpha virt. eigenvalues --    0.39196   0.39637   0.39846   0.40731   0.40882
 Alpha virt. eigenvalues --    0.41404   0.42084   0.42650   0.43153   0.43992
 Alpha virt. eigenvalues --    0.44091   0.44860   0.45376   0.45668   0.46470
 Alpha virt. eigenvalues --    0.46947   0.47677   0.48552   0.49360   0.49854
 Alpha virt. eigenvalues --    0.50851   0.51874   0.52455   0.53156   0.53738
 Alpha virt. eigenvalues --    0.54691   0.55662   0.55845   0.56519   0.57885
 Alpha virt. eigenvalues --    0.58532   0.59486   0.60876   0.61901   0.62505
 Alpha virt. eigenvalues --    0.62964   0.63395   0.64547   0.65217   0.66552
 Alpha virt. eigenvalues --    0.66924   0.67189   0.67363   0.68888   0.69248
 Alpha virt. eigenvalues --    0.70008   0.70613   0.72773   0.73017   0.73380
 Alpha virt. eigenvalues --    0.74020   0.74495   0.75417   0.75672   0.76630
 Alpha virt. eigenvalues --    0.77620   0.78766   0.78909   0.79320   0.79593
 Alpha virt. eigenvalues --    0.80450   0.80901   0.81396   0.81987   0.82339
 Alpha virt. eigenvalues --    0.82744   0.83293   0.83901   0.85537   0.85653
 Alpha virt. eigenvalues --    0.86013   0.86752   0.87899   0.88102   0.88658
 Alpha virt. eigenvalues --    0.90361   0.90924   0.92013   0.92716   0.93528
 Alpha virt. eigenvalues --    0.93743   0.94867   0.95977   0.96219   0.96462
 Alpha virt. eigenvalues --    0.97641   0.98189   0.98620   0.99388   0.99537
 Alpha virt. eigenvalues --    0.99753   1.01023   1.01593   1.02985   1.03288
 Alpha virt. eigenvalues --    1.04355   1.04624   1.04821   1.05338   1.06086
 Alpha virt. eigenvalues --    1.06619   1.07066   1.08048   1.08779   1.09985
 Alpha virt. eigenvalues --    1.10369   1.12122   1.12779   1.13276   1.13683
 Alpha virt. eigenvalues --    1.14152   1.15421   1.16719   1.17044   1.17960
 Alpha virt. eigenvalues --    1.19066   1.20053   1.21421   1.22705   1.23044
 Alpha virt. eigenvalues --    1.23570   1.24808   1.25521   1.26353   1.27021
 Alpha virt. eigenvalues --    1.28172   1.28854   1.30463   1.31006   1.31844
 Alpha virt. eigenvalues --    1.32257   1.32584   1.33520   1.34173   1.35044
 Alpha virt. eigenvalues --    1.36418   1.37539   1.39443   1.39826   1.40966
 Alpha virt. eigenvalues --    1.41345   1.43058   1.43118   1.43895   1.44740
 Alpha virt. eigenvalues --    1.45430   1.46110   1.46272   1.47102   1.47772
 Alpha virt. eigenvalues --    1.48897   1.49375   1.50205   1.51698   1.52203
 Alpha virt. eigenvalues --    1.52724   1.54652   1.55327   1.55820   1.56606
 Alpha virt. eigenvalues --    1.56871   1.57441   1.58562   1.58627   1.59899
 Alpha virt. eigenvalues --    1.61228   1.61988   1.63504   1.64196   1.64840
 Alpha virt. eigenvalues --    1.65122   1.66337   1.67255   1.69129   1.69243
 Alpha virt. eigenvalues --    1.70081   1.71298   1.72068   1.72492   1.73856
 Alpha virt. eigenvalues --    1.74000   1.75088   1.77219   1.78087   1.79274
 Alpha virt. eigenvalues --    1.80024   1.81506   1.83030   1.83794   1.86424
 Alpha virt. eigenvalues --    1.86958   1.88727   1.89001   1.90267   1.92019
 Alpha virt. eigenvalues --    1.92852   1.93357   1.94757   1.95684   1.97486
 Alpha virt. eigenvalues --    1.98094   1.99173   2.00248   2.01053   2.01932
 Alpha virt. eigenvalues --    2.02664   2.03585   2.04823   2.06085   2.07668
 Alpha virt. eigenvalues --    2.08749   2.10079   2.10694   2.12792   2.15175
 Alpha virt. eigenvalues --    2.17529   2.18876   2.20414   2.24222   2.25445
 Alpha virt. eigenvalues --    2.28729   2.31972   2.33355   2.35141   2.36147
 Alpha virt. eigenvalues --    2.37275   2.40207   2.43100   2.44341   2.44855
 Alpha virt. eigenvalues --    2.46281   2.48754   2.51032   2.51676   2.53945
 Alpha virt. eigenvalues --    2.56335   2.57150   2.58269   2.60091   2.62621
 Alpha virt. eigenvalues --    2.63792   2.67003   2.68556   2.70360   2.70416
 Alpha virt. eigenvalues --    2.73599   2.76386   2.77117   2.79147   2.80387
 Alpha virt. eigenvalues --    2.81386   2.85467   2.85737   2.88761   2.89561
 Alpha virt. eigenvalues --    2.91128   2.91799   2.93565   2.94643   2.99033
 Alpha virt. eigenvalues --    3.00065   3.03246   3.03752   3.06284   3.10307
 Alpha virt. eigenvalues --    3.11042   3.14167   3.15620   3.16552   3.20581
 Alpha virt. eigenvalues --    3.22970   3.24713   3.24999   3.29121   3.29742
 Alpha virt. eigenvalues --    3.30736   3.31114   3.33432   3.33879   3.35481
 Alpha virt. eigenvalues --    3.35564   3.36748   3.37947   3.39483   3.40369
 Alpha virt. eigenvalues --    3.41788   3.43193   3.43921   3.45807   3.46429
 Alpha virt. eigenvalues --    3.49233   3.51437   3.52632   3.53424   3.55246
 Alpha virt. eigenvalues --    3.56389   3.57200   3.58112   3.58550   3.60240
 Alpha virt. eigenvalues --    3.62307   3.62865   3.64652   3.65336   3.67240
 Alpha virt. eigenvalues --    3.68944   3.70603   3.72310   3.73076   3.76416
 Alpha virt. eigenvalues --    3.76935   3.78334   3.80359   3.82090   3.82436
 Alpha virt. eigenvalues --    3.85609   3.86010   3.87298   3.88554   3.89005
 Alpha virt. eigenvalues --    3.90539   3.93111   3.93238   3.94161   3.95660
 Alpha virt. eigenvalues --    3.97353   3.99071   3.99323   4.00842   4.03315
 Alpha virt. eigenvalues --    4.04755   4.07512   4.07562   4.08281   4.11177
 Alpha virt. eigenvalues --    4.11807   4.15184   4.15374   4.17515   4.20244
 Alpha virt. eigenvalues --    4.20878   4.21386   4.22715   4.24662   4.28233
 Alpha virt. eigenvalues --    4.29486   4.30262   4.32488   4.33290   4.36984
 Alpha virt. eigenvalues --    4.39048   4.40431   4.40886   4.43377   4.45684
 Alpha virt. eigenvalues --    4.46036   4.47493   4.47706   4.49979   4.50270
 Alpha virt. eigenvalues --    4.51051   4.52587   4.53820   4.55372   4.57107
 Alpha virt. eigenvalues --    4.57837   4.61189   4.61701   4.64184   4.66546
 Alpha virt. eigenvalues --    4.70564   4.72140   4.73094   4.74947   4.75816
 Alpha virt. eigenvalues --    4.76916   4.78150   4.82037   4.83136   4.84038
 Alpha virt. eigenvalues --    4.86062   4.87668   4.90143   4.90468   4.94039
 Alpha virt. eigenvalues --    4.94695   4.98237   5.00438   5.02167   5.04302
 Alpha virt. eigenvalues --    5.07086   5.07464   5.10404   5.13197   5.14609
 Alpha virt. eigenvalues --    5.18196   5.19116   5.19820   5.23230   5.25083
 Alpha virt. eigenvalues --    5.27622   5.29370   5.32781   5.34115   5.38221
 Alpha virt. eigenvalues --    5.38510   5.41938   5.42902   5.50945   5.53283
 Alpha virt. eigenvalues --    5.59033   5.62195   5.64901   5.65269   5.68133
 Alpha virt. eigenvalues --    5.69425   5.70412   5.75085   5.77328   5.80192
 Alpha virt. eigenvalues --    5.80624   5.86311   5.96560   6.03647   6.12558
 Alpha virt. eigenvalues --    6.24135   6.30868   6.34606   6.35537   6.39981
 Alpha virt. eigenvalues --    6.40272   6.46536   6.53953   6.55854   6.61698
 Alpha virt. eigenvalues --    6.65363   6.66857   6.69259   6.69523   6.75002
 Alpha virt. eigenvalues --    6.76359   6.79268   6.81435   6.82222   6.86844
 Alpha virt. eigenvalues --    6.89667   6.94274   6.98013   7.00486   7.06068
 Alpha virt. eigenvalues --    7.08030   7.16559   7.17861   7.20900   7.22184
 Alpha virt. eigenvalues --    7.27330   7.27977   7.41164   7.43189   7.49064
 Alpha virt. eigenvalues --    7.57226   7.62543   7.71400   7.78451   7.82773
 Alpha virt. eigenvalues --    7.93849   8.11857   8.32900  14.88475  15.24465
 Alpha virt. eigenvalues --   15.63552  16.09596  17.14290  17.63255  17.76537
          Condensed to atoms (all electrons):
               1          2          3          4          5          6
     1  C    7.971940  -0.302160  -0.045349   0.159412  -0.195649  -1.950664
     2  C   -0.302160   5.753270   0.411119   0.140310   0.448700   0.121782
     3  H   -0.045349   0.411119   0.530632  -0.117823   0.090909   0.033046
     4  H    0.159412   0.140310  -0.117823   0.728639  -0.292494  -0.160991
     5  H   -0.195649   0.448700   0.090909  -0.292494   0.813374   0.226751
     6  C   -1.950664   0.121782   0.033046  -0.160991   0.226751   7.909453
     7  H   -0.432224  -0.009088  -0.002047   0.000375  -0.008208   0.636226
     8  H   -0.683069   0.041385   0.016715  -0.035098   0.087813   0.636637
     9  H    0.890711  -0.028628  -0.002306   0.044520  -0.075635  -0.480082
    10  O    0.119854  -0.106523  -0.165170   0.307981  -0.372430  -0.341227
    11  O   -0.086803   0.027310  -0.015349  -0.010557   0.005903  -0.014177
    12  C   -0.044242  -0.015109  -0.004803   0.026221  -0.012428   0.000101
    13  H    0.000204  -0.002542  -0.006774   0.011929  -0.003583  -0.001530
    14  H   -0.006354   0.001982   0.003026  -0.001689  -0.000622   0.000608
    15  H   -0.012422   0.020244   0.008027  -0.039078   0.011969   0.007970
    16  H    0.014829   0.014671  -0.000130  -0.014240   0.011520   0.042295
    17  H   -0.038825   0.002892   0.026564  -0.095910   0.076150   0.062336
    18  Cl   0.635585  -0.041889  -0.003054   0.011623  -0.012961  -0.312940
    19  O   -0.675520   0.057955   0.016702   0.034841  -0.036228   0.102784
               7          8          9         10         11         12
     1  C   -0.432224  -0.683069   0.890711   0.119854  -0.086803  -0.044242
     2  C   -0.009088   0.041385  -0.028628  -0.106523   0.027310  -0.015109
     3  H   -0.002047   0.016715  -0.002306  -0.165170  -0.015349  -0.004803
     4  H    0.000375  -0.035098   0.044520   0.307981  -0.010557   0.026221
     5  H   -0.008208   0.087813  -0.075635  -0.372430   0.005903  -0.012428
     6  C    0.636226   0.636637  -0.480082  -0.341227  -0.014177   0.000101
     7  H    0.876157  -0.055981  -0.333328   0.035761   0.005396   0.001820
     8  H   -0.055981   1.013602  -0.266171  -0.067875   0.007087   0.001215
     9  H   -0.333328  -0.266171   1.173898   0.037292  -0.006179  -0.003070
    10  O    0.035761  -0.067875   0.037292   9.241851  -0.216198   0.030076
    11  O    0.005396   0.007087  -0.006179  -0.216198   8.570020   0.001673
    12  C    0.001820   0.001215  -0.003070   0.030076   0.001673   5.394362
    13  H   -0.000309  -0.000110   0.000455   0.008087  -0.023534   0.411993
    14  H    0.000189  -0.000164  -0.000309   0.002472  -0.024828   0.408895
    15  H    0.000079   0.001170  -0.001362  -0.052338   0.026129   0.301338
    16  H   -0.003742  -0.007195   0.001353  -0.010875   0.067304   0.012530
    17  H    0.012008  -0.025441  -0.017864  -0.099317   0.061024  -0.026359
    18  Cl  -0.073221  -0.077421   0.080412  -0.061914  -0.040625  -0.005815
    19  O    0.079308   0.138992  -0.193256  -0.012495  -0.020588   0.073283
              13         14         15         16         17         18
     1  C    0.000204  -0.006354  -0.012422   0.014829  -0.038825   0.635585
     2  C   -0.002542   0.001982   0.020244   0.014671   0.002892  -0.041889
     3  H   -0.006774   0.003026   0.008027  -0.000130   0.026564  -0.003054
     4  H    0.011929  -0.001689  -0.039078  -0.014240  -0.095910   0.011623
     5  H   -0.003583  -0.000622   0.011969   0.011520   0.076150  -0.012961
     6  C   -0.001530   0.000608   0.007970   0.042295   0.062336  -0.312940
     7  H   -0.000309   0.000189   0.000079  -0.003742   0.012008  -0.073221
     8  H   -0.000110  -0.000164   0.001170  -0.007195  -0.025441  -0.077421
     9  H    0.000455  -0.000309  -0.001362   0.001353  -0.017864   0.080412
    10  O    0.008087   0.002472  -0.052338  -0.010875  -0.099317  -0.061914
    11  O   -0.023534  -0.024828   0.026129   0.067304   0.061024  -0.040625
    12  C    0.411993   0.408895   0.301338   0.012530  -0.026359  -0.005815
    13  H    0.421095  -0.021219  -0.050149   0.005613  -0.034121   0.000291
    14  H   -0.021219   0.394073   0.008535   0.002466   0.009455   0.000959
    15  H   -0.050149   0.008535   0.434261  -0.004443   0.040453  -0.002018
    16  H    0.005613   0.002466  -0.004443   0.663876   0.056843  -0.013712
    17  H   -0.034121   0.009455   0.040453   0.056843   0.972541   0.036416
    18  Cl   0.000291   0.000959  -0.002018  -0.013712   0.036416  17.398917
    19  O    0.015517   0.002786  -0.017023  -0.063684  -0.223234  -0.177493
              19
     1  C   -0.675520
     2  C    0.057955
     3  H    0.016702
     4  H    0.034841
     5  H   -0.036228
     6  C    0.102784
     7  H    0.079308
     8  H    0.138992
     9  H   -0.193256
    10  O   -0.012495
    11  O   -0.020588
    12  C    0.073283
    13  H    0.015517
    14  H    0.002786
    15  H   -0.017023
    16  H   -0.063684
    17  H   -0.223234
    18  Cl  -0.177493
    19  O    9.766922
 Mulliken charges:
               1
     1  C    0.680746
     2  C   -0.535681
     3  H    0.226065
     4  H    0.302031
     5  H    0.237149
     6  C   -0.518379
     7  H    0.270827
     8  H    0.273911
     9  H    0.179548
    10  O   -0.277013
    11  O   -0.313009
    12  C   -0.551683
    13  H    0.268689
    14  H    0.219740
    15  H    0.318659
    16  H    0.224722
    17  H    0.204388
    18  Cl  -0.341140
    19  O   -0.869569
 Sum of Mulliken charges =   0.00000
 Mulliken charges with hydrogens summed into heavy atoms:
               1
     1  C    0.680746
     2  C    0.229564
     6  C    0.205907
    10  O   -0.277013
    11  O    0.116101
    12  C    0.255405
    18  Cl  -0.341140
    19  O   -0.869569
 APT charges:
               1
     1  C    0.484337
     2  C   -1.548533
     3  H    0.680992
     4  H    0.398821
     5  H    0.639848
     6  C   -1.940482
     7  H    0.535713
     8  H    0.515181
     9  H    0.698351
    10  O   -0.314355
    11  O   -0.297673
    12  C   -1.622093
    13  H    0.663413
    14  H    0.813145
    15  H    0.327600
    16  H    0.383723
    17  H    0.330456
    18  Cl   0.115962
    19  O   -0.864406
 Sum of APT charges =   0.00000
 APT charges with hydrogens summed into heavy atoms:
               1
     1  C    0.484337
     2  C    0.171128
     6  C   -0.191236
    10  O   -0.314355
    11  O    0.416506
    12  C    0.182065
    18  Cl   0.115962
    19  O   -0.864406
 Electronic spatial extent (au):  <R**2>=           1338.3748
 Charge=              0.0000 electrons
 Dipole moment (field-independent basis, Debye):
    X=             -2.8765    Y=              3.7782    Z=             -0.3561  Tot=              4.7619
 Quadrupole moment (field-independent basis, Debye-Ang):
   XX=            -47.8825   YY=            -56.6396   ZZ=            -61.5704
   XY=              2.8662   XZ=              1.1538   YZ=             -2.2882
 Traceless Quadrupole moment (field-independent basis, Debye-Ang):
   XX=              7.4817   YY=             -1.2754   ZZ=             -6.2063
   XY=              2.8662   XZ=              1.1538   YZ=             -2.2882
 Octapole moment (field-independent basis, Debye-Ang**2):
  XXX=            -25.7637  YYY=              8.0097  ZZZ=             -7.5263  XYY=             -3.7993
  XXY=              3.8133  XXZ=              6.1049  XZZ=             -5.8236  YZZ=             -0.3830
  YYZ=             -0.2582  XYZ=              3.1591
 Hexadecapole moment (field-independent basis, Debye-Ang**3):
 XXXX=           -912.3070 YYYY=           -527.6130 ZZZZ=           -246.7544 XXXY=             21.2533
 XXXZ=              3.1709 YYYX=              3.1123 YYYZ=             -4.8796 ZZZX=              2.0540
 ZZZY=             -2.7030 XXYY=           -257.8392 XXZZ=           -191.6211 YYZZ=           -122.6065
 XXYZ=             -9.3845 YYXZ=             -4.8723 ZZXY=              2.1915
 N-N= 5.231875724889D+02 E-N=-3.033259379791D+03  KE= 8.357257478241D+02
  Exact polarizability:   0.000   0.000   0.000   0.000   0.000   0.000
 Approx polarizability: 125.672  -3.045 129.136  -4.218   6.285 121.210
 PrsmSu:  requested number of processors reduced to:   4 ShMem   1 Linda.
 PrsmSu:  requested number of processors reduced to:   4 ShMem   1 Linda.
   1 Symmetry operations used in ECPInt.
 ECPInt:  NShTT=   21115 NPrTT=   53618 LenC2=   20830 LenP2D=   44550.
 LDataN:  DoStor=T MaxTD1= 8 Len=  415
 Calling FoFJK, ICntrl=    100147 FMM=F ISym2X=0 I1Cent= 0 IOpClX= 0 NMat=1 NMatS=1 NMatT=0.
 CoulSu:  requested number of processors reduced to:   4 ShMem   1 Linda.
 ***** Axes restored to original set *****
 -------------------------------------------------------------------
 Center     Atomic                   Forces (Hartrees/Bohr)
 Number     Number              X              Y              Z
 -------------------------------------------------------------------
      1        6          -0.031448440   -0.017641882   -0.003670109
      2        6           0.008367906   -0.007882191   -0.004353248
      3        1           0.002543392    0.002925000    0.004678945
      4        1           0.000089389    0.001297357   -0.003645742
      5        1          -0.006811417    0.001288742    0.001470339
      6        6           0.016752451    0.010080637    0.004807831
      7        1          -0.010109814    0.002550724   -0.004393323
      8        1          -0.005062201   -0.003787277    0.005747569
      9        1          -0.002117850   -0.005198120   -0.002781389
     10        8          -0.020066798    0.009695703   -0.018120125
     11        8           0.011650919    0.012453237    0.015983387
     12        6           0.003474561   -0.012739047   -0.004971684
     13        1          -0.001333888    0.001923073    0.007380762
     14        1          -0.000871218    0.007235907   -0.003071969
     15        1          -0.001907524   -0.002131665   -0.001420180
     16        1          -0.005106052    0.016150614   -0.037663512
     17        1           0.015141563   -0.009201693    0.021126500
     18       17           0.009116672   -0.005540353   -0.000423788
     19        8           0.017698349   -0.001478765    0.023319738
 -------------------------------------------------------------------
 Cartesian Forces:  Max     0.037663512 RMS     0.011359058
 FormGI is forming the generalized inverse of G from B-inverse, IUseBI=4.

 GradGradGradGradGradGradGradGradGradGradGradGradGradGradGradGradGradGrad
 Berny optimization.
 Internal  Forces:  Max     0.024363535 RMS     0.006498039
 Search for a saddle point.
 Step number   1 out of a maximum of   99
[...]
 4,-0.05302338,-0.02450084,-0.00305996,0.00216430,0.00520278,-0.0138427
 6,0.06540910,-0.00229377,0.00213991,-0.00301143,0.07056554,-0.03023502
 ,-0.27646433,0.00637324,-0.00136789,-0.01747146,-0.07833760,0.04028196
 ,0.29744486,-0.00006592,0.00039339,-0.00090398,-0.22520780,-0.11925826
 ,0.04774992,-0.01829851,-0.01198062,0.00597618,-0.00624253,-0.00381005
 ,0.00073115,0.23624555,-0.00367803,0.00118904,-0.00292708,-0.11121833,
 -0.12005665,0.03122968,0.00450066,0.00565361,-0.00204802,0.00277131,0.
 00472763,0.00029289,0.12572061,0.14753892,0.00153250,0.00097188,-0.000
 31951,0.04785945,0.03187325,-0.06433783,-0.01750446,-0.01177714,0.0055
 6073,0.02540699,0.01639299,-0.00499699,-0.04997558,-0.03217879,0.06074
 933,-0.13736096,-0.06134087,-0.01461407,-0.00105273,-0.00149923,-0.001
 24773,0.00004573,-0.00009645,0.00013130,-0.00032758,0.00012491,-0.0000
 5603,-0.00029672,0.00007896,-0.00025818,0.51116984,-0.06735718,-0.1191
 4110,-0.01701018,0.00014047,0.00310395,0.00131328,-0.00000789,-0.00052
 035,-0.00036010,0.00026838,-0.00036089,-0.00018975,0.00018669,-0.00009
 685,0.00001037,-0.04474655,0.54236665,-0.01982242,-0.01644107,-0.07200
 144,-0.00150737,-0.00073805,-0.00161202,-0.00021070,-0.00011822,-0.000
 15661,0.00048486,0.00061956,-0.00000285,-0.00107625,0.00046498,0.00034
 179,-0.03329201,-0.01458903,0.58475589,-0.01876616,0.01462082,-0.01626
 122,0.00039026,-0.00141971,0.00025315,0.00005452,0.00012920,-0.0000082
 2,0.00010881,0.00012967,0.00004734,0.00010098,0.00019485,0.00006161,-0
 .15208564,0.08279476,-0.10198899,0.16558700,-0.01254735,0.00877130,-0.
 01157901,0.00015697,-0.00143800,0.00026988,0.00018681,0.00042601,0.000
 08927,-0.00017568,0.00002064,0.00015679,0.00039006,0.00034445,-0.00020
 792,0.08558119,-0.11040535,0.08284288,-0.08979602,0.11880425,-0.004726
 50,0.00364249,-0.00570479,0.00037442,-0.00064929,-0.00000011,0.0000468
 3,0.00018854,0.00003070,-0.00021127,0.00005110,0.00006977,0.00020212,-
 0.00008889,0.00000056,-0.10284811,0.08037888,-0.14221843,0.11341442,-0
 .08766965,0.15185950,-0.01120196,-0.00218251,0.02540662,-0.00084903,-0
 .00008675,0.00033054,0.00014107,0.00012608,-0.00006391,0.00017799,-0.0
 0005749,-0.00008510,-0.00014781,0.00053742,-0.00012001,-0.10515826,-0.
 02909519,0.10674945,0.01158552,0.00402435,-0.01746974,0.11397879,-0.00
 502220,-0.00357884,0.01995017,0.00028018,0.00062350,-0.00060950,-0.000
 13737,-0.00013821,0.00015043,-0.00004997,-0.00007772,0.00010493,0.0000
 8302,-0.00019405,0.00018981,-0.02764988,-0.06166234,0.04775808,-0.0081
 8821,-0.00432252,0.01222479,0.03271481,0.06277798,-0.00338353,-0.00195
 850,0.00324758,-0.00017960,0.00026540,-0.00015789,-0.00007703,-0.00010
 034,0.00003659,-0.00009076,-0.00002366,0.00002295,-0.00007967,-0.00014
 753,0.00017575,0.11182302,0.05240823,-0.24653769,0.00928382,0.00307364
 ,-0.01488866,-0.11928526,-0.05610831,0.26461297,0.00741163,-0.02092670
 ,-0.01134079,-0.00078833,0.00040118,-0.00170061,-0.00018008,0.00000378
 ,0.00007025,-0.00074159,0.00026401,-0.00009504,-0.00055807,0.00010419,
 -0.00016501,-0.07301398,0.06749586,0.04017854,-0.00609821,0.01590107,0
 .01083619,-0.00482799,0.01217865,0.00432737,0.07713346,0.00869914,-0.0
 1772701,-0.00885001,0.00049825,-0.00046582,0.00022550,0.00014528,0.000
 43091,0.00028371,-0.00013149,0.00005275,0.00028226,0.00058680,0.000163
 07,0.00017460,0.06542730,-0.22908839,-0.10275778,0.00403351,-0.0121884
 7,-0.00706016,-0.00225240,0.00847843,0.00370045,-0.07441221,0.24948755
 ,0.00225843,-0.00597291,-0.00530411,-0.00047435,-0.00084284,-0.0000565
 5,0.00022508,0.00038141,0.00018454,-0.00033899,0.00004785,0.00027599,0
 .00001684,0.00038018,-0.00082452,0.03925607,-0.10252140,-0.10504903,-0
 .00501282,0.01630462,0.01017869,0.00632775,-0.02235979,-0.00993169,-0.
 04116853,0.11405880,0.10947990,-0.03665858,-0.04967783,0.03913719,-0.0
 8626211,0.01879022,-0.00655558,-0.00394022,0.03252944,0.00659106,-0.00
 089202,0.01435423,0.00230403,0.01431455,-0.02372388,-0.00631218,-0.019
 44424,0.01735577,-0.02244760,-0.00453849,-0.00535461,-0.00233295,0.001
 40838,0.00122783,0.00001760,0.00111738,0.00001816,-0.00025512,0.177891
 34,-0.02797189,-0.03179891,-0.02686378,0.02072148,-0.18745659,-0.03071
 993,0.00938513,-0.02443095,-0.00092130,0.00955687,-0.02247226,-0.01096
 905,0.00654385,-0.03935415,-0.00504447,-0.00409353,0.00609994,-0.00583
 347,-0.00192632,-0.00063870,-0.00108851,0.00137159,0.00013000,-0.00004
 704,0.00111382,0.00039576,0.00105892,-0.00995253,0.38134659,0.02374559
 ,-0.05274886,-0.00858372,-0.00898145,-0.02285350,-0.08469946,-0.003766
 99,0.02583732,0.00706466,0.00645659,-0.03457451,0.00229069,-0.00252403
 ,0.00426756,0.00393056,-0.01323250,0.00969592,-0.01020612,-0.00181287,
 -0.00268303,0.00036092,-0.00095549,-0.00043681,0.00078949,0.00127096,0
 .00054409,0.00003907,-0.01642683,0.02254758,0.16550928,0.01394012,-0.0
 0507209,-0.02010100,-0.00823550,0.00877385,0.00222126,0.00066594,-0.00
 119470,0.00089162,0.00005799,-0.00106498,-0.00155600,0.00073753,-0.003
 58845,-0.00073421,-0.00207305,-0.00010564,0.00254933,0.00005319,-0.000
 08615,-0.00009720,-0.00063477,-0.00079525,0.00021452,0.00028858,0.0000
 4261,0.00009935,-0.04461298,-0.05127908,0.02080120,0.45332328,0.003104
 81,-0.01058796,0.01130863,-0.00322681,0.00828442,0.00039925,0.00058907
 ,-0.00025455,0.00027498,0.00058934,-0.00082197,-0.00067772,0.00034260,
 -0.00181444,-0.00027665,-0.00065590,0.00143338,-0.00173496,-0.00056091
 ,-0.00033873,-0.00032592,0.00054407,0.00006055,-0.00001468,0.00009742,
 0.00002764,0.00015546,-0.05644195,-0.02437903,0.01182041,-0.02016342,0
 .18982256,0.00405989,0.01188736,-0.04595695,0.00549069,-0.00443124,0.0
 0016407,-0.00037856,-0.00066138,-0.00019886,-0.00051450,0.00096891,0.0
 0036035,-0.00037080,0.00234915,0.00010927,-0.00090010,-0.00320834,0.00
 603181,0.00105449,0.00060985,0.00049641,-0.00157339,-0.00114270,0.0001
 0019,-0.00000284,0.00015493,-0.00011123,0.04767236,0.02466569,0.011271
 90,0.00463050,-0.00280860,0.26282413,-0.00375641,0.00016877,0.00234573
 ,0.00075255,-0.00458210,-0.00036995,-0.00023470,0.00030667,-0.00035584
 ,-0.00003943,0.00018238,0.00066302,-0.00014850,0.00058864,0.00014217,0
 .00037219,-0.00000506,-0.00024642,0.00008352,0.00008479,-0.00001137,0.
 00010668,0.00010309,-0.00002566,-0.00000489,0.00010040,0.00001480,0.00
 921731,0.00647425,-0.00161787,-0.17878263,0.04103194,0.02413842,0.4704
 6069,0.00167449,-0.00089796,0.00028274,-0.00183817,0.00206207,0.000869
 86,0.00008114,-0.00012991,0.00033992,-0.00024207,-0.00044349,-0.000519
 69,0.00020213,-0.00084530,-0.00031888,-0.00025909,0.00023905,0.0000707
 4,-0.00006241,-0.00005239,-0.00004706,0.00000605,-0.00002447,0.0000308
 0,-0.00000832,-0.00006661,0.00003154,-0.00809802,-0.00972885,0.0020626
 4,0.05167290,-0.09102732,-0.00345436,0.04792764,0.56464228,0.00193588,
 0.00090976,-0.00515066,0.00078732,0.00157534,0.00064604,0.00007249,-0.
 00001047,0.00024565,-0.00029247,-0.00017147,-0.00047679,0.00013912,0.0
 0012817,-0.00023856,-0.00021320,-0.00011169,0.00049351,0.00008518,-0.0
 0000046,0.00002629,-0.00020517,-0.00016389,0.00006681,-0.00000880,0.00
 002064,-0.00004346,0.00104910,0.00151212,0.00106817,0.03630832,-0.0067
 3406,-0.09840654,0.03730853,-0.02098559,0.58847613,0.00100328,0.000548
 66,-0.00222439,-0.00011088,0.00050039,-0.00008923,0.00002646,-0.000178
 31,0.00013611,-0.00003372,-0.00004043,-0.00006266,0.00005306,-0.000074
 76,0.00003983,-0.00002737,-0.00008182,0.00021805,0.00003048,-0.0000099
 9,0.00001501,-0.00007535,-0.00003727,0.00003074,0.00000233,0.00000223,
 -0.00001400,-0.00031555,-0.00085976,0.00079763,-0.03324028,0.00948402,
 -0.02664037,-0.10992700,0.01499117,-0.10743775,0.13331709,-0.00031161,
 0.00008364,0.00044373,-0.00001792,-0.00005107,-0.00025068,-0.00003898,
 -0.00007565,0.00010695,0.00002892,0.00004374,0.00001246,0.00004529,0.0
 0001827,0.00006175,0.00007772,-0.00002574,-0.00006223,0.00000059,0.000
 00883,0.00000970,0.00001444,0.00000653,-0.00001201,-0.00000130,0.00000
 363,-0.00001536,0.00027347,0.00014010,0.00004756,0.01255818,-0.0013343
 3,0.01025471,0.01512089,-0.05617543,0.02834555,-0.02462294,0.05422636,
 0.00016053,-0.00009003,0.00011078,-0.00013649,0.00013518,-0.00013600,-
 0.00000192,-0.00006200,0.00005604,0.00001358,0.00002535,-0.00000360,0.
 00003170,-0.00004066,0.00004162,-0.00005056,0.00000974,-0.00003269,-0.
 00000441,0.00000389,-0.00000191,0.00000742,-0.00000078,-0.00000405,0.0
 0000937,0.00000011,-0.00000498,-0.00043691,-0.00032267,-0.00004405,0.0
 0790691,-0.00295815,0.01511283,-0.11752399,0.03259885,-0.24956378,0.12
 271134,-0.03345001,0.26015956,0.00078306,-0.00063442,0.00100441,-0.000
 70883,0.00052060,0.00003079,0.00002797,-0.00005645,0.00007342,0.000011
 91,-0.00007547,-0.00006234,0.00005587,-0.00032602,-0.00001720,-0.00006
 168,0.00010217,-0.00008089,-0.00003720,-0.00001539,-0.00001756,0.00001
 906,-0.00000156,-0.00000437,0.00001330,-0.00001795,0.00001259,-0.00336
 536,-0.00315065,0.00038610,-0.03179182,-0.01844484,0.02519772,-0.09389
 916,-0.07830778,0.05791441,0.00971026,0.01170515,-0.00837350,0.1151955
 1,0.00006776,-0.00001659,-0.00010445,0.00018528,-0.00061262,-0.0001470
 6,-0.00000256,0.00009181,-0.00017212,0.00006133,0.00011725,0.00022259,
 -0.00010896,0.00013693,0.00010228,0.00000327,-0.00003365,0.00000406,0.
 00000515,0.00001118,0.00000579,-0.00001009,-0.00002079,-0.00000859,0.0
 0000685,0.00000367,0.00001455,0.00123142,0.00151819,-0.00042739,0.0108
 8350,0.01444825,-0.01187633,-0.08604318,-0.18696709,0.10830390,-0.0011
 4627,-0.00193242,0.00096733,0.08607544,0.19289696,-0.00044589,0.000180
 80,-0.00000261,0.00011634,-0.00033291,-0.00026003,-0.00000394,-0.00003
 457,-0.00001071,0.00004174,0.00006202,0.00013299,-0.00001107,0.0000827
 7,0.00011729,0.00003904,-0.00002129,-0.00001157,0.00000664,0.00001004,
 0.00001920,0.00000280,0.00000656,-0.00000385,0.00000650,0.00000071,-0.
 00000563,0.00104290,0.00101495,-0.00027627,0.00998232,0.00296615,-0.00
 302347,0.06303549,0.10402215,-0.13395633,0.01160581,0.02008919,-0.0138
 8302,-0.07511801,-0.11332527,0.13917619,-0.00021161,0.00031632,0.00060
 386,-0.00019482,0.00044814,0.00048324,0.00004963,-0.00003359,-0.000042
 59,-0.00017311,-0.00025003,-0.00014906,0.00003223,-0.00010469,-0.00014
 201,0.00004140,-0.00002156,0.00000164,-0.00000985,-0.00002279,-0.00000
 518,-0.00000576,0.00000305,-0.00001822,-0.00003378,-0.00002735,-0.0000
 1271,-0.00090329,-0.00080890,-0.00018883,-0.01263929,0.03462520,0.0215
 3103,-0.05391174,-0.03013998,-0.01826828,0.00017832,-0.01430719,-0.006
 44909,0.00036588,-0.01074906,-0.00822575,0.06167188,-0.00013161,-0.000
 05655,-0.00028456,0.00001433,-0.00071256,-0.00007594,-0.00003939,0.000
 04102,-0.00010658,-0.00010107,0.00008604,0.00017172,-0.00007529,0.0000
 9239,0.00008722,0.00005859,0.00000394,0.00001076,0.00001063,0.00001320
 ,0.00001711,-0.00000943,0.00001563,-0.00001989,-0.00000028,0.00002469,
 0.00000716,0.00136639,0.00107424,-0.00034346,0.01186767,-0.00616838,-0
 .00619525,-0.02425561,-0.23760560,-0.10898478,-0.00083790,0.00587520,0
 .00297002,-0.00384466,-0.01779879,-0.01216651,0.01891237,0.25649399,-0
 .00024102,-0.00049450,0.00117535,0.00026203,-0.00073876,-0.00006376,-0
 .00002398,0.00013257,-0.00034319,0.00011526,0.00016653,0.00036543,-0.0
 0022270,0.00011884,0.00007402,0.00001876,-0.00003142,-0.00015859,-0.00
 001342,0.00001008,-0.00000356,0.00006434,0.00005827,0.00000376,0.00001
 007,0.00002807,0.00002193,0.00029054,0.00105875,-0.00055249,0.00759613
 ,-0.00694583,-0.00183933,-0.01449029,-0.10915846,-0.11864914,-0.003431
 25,-0.02376602,-0.01186539,0.00127460,0.01576105,0.01111047,0.01009380
 ,0.12458678,0.12151064,-0.03204269,-0.01705395,0.05834522,-0.00110688,
 -0.00133854,-0.00149007,-0.00019889,0.00140383,-0.00041295,0.00073691,
 -0.00009935,0.00073774,-0.00011634,-0.00045611,0.00009803,0.00300902,0
 .00274107,-0.00620568,-0.00088661,-0.00032494,-0.00044673,0.00196353,0
 .00126026,-0.00032410,-0.00012055,-0.00028583,0.00004884,-0.02426121,-
 0.00210137,-0.01149236,-0.06364380,-0.00623512,-0.00720402,-0.02815764
 ,0.00534350,-0.00721501,0.00222584,-0.00091343,0.00118879,0.00106015,-
 0.00031112,-0.00099232,0.00297853,-0.00165111,-0.00195340,0.05900463,-
 0.01148429,-0.00288274,0.01698586,-0.00023940,-0.00158863,-0.00010363,
 -0.00004759,0.00043437,-0.00015552,-0.00000603,-0.00036603,0.00015068,
 0.00014573,0.00010247,-0.00013809,0.00033582,0.00140729,-0.00065105,-0
 .00025707,-0.00013464,-0.00026650,0.00011983,0.00050655,-0.00013224,0.
 00000009,-0.00003643,-0.00004650,-0.00525911,0.00102163,-0.00551753,-0
 .00005088,-0.03352791,-0.00840255,0.00603633,-0.00158203,0.01157725,0.
 00324593,-0.00115733,-0.00101971,-0.00075436,0.00037492,-0.00051598,0.
 00091023,-0.00034229,0.00035018,-0.01773262,0.05470827,0.00126669,0.00
 078822,0.04834580,-0.00137250,0.00028352,-0.00087150,-0.00009966,0.000
 85172,-0.00030660,0.00064502,-0.00016266,0.00037430,-0.00005523,-0.000
 70802,0.00001364,0.00294017,0.00206628,-0.00671291,-0.00066905,-0.0003
 8120,-0.00025100,0.00192572,0.00150731,0.00000798,-0.00022297,-0.00029
 173,0.00001368,-0.01664309,-0.00184894,-0.00854206,-0.04660715,-0.0075
 7505,-0.11789028,-0.00159895,0.00280057,0.02051617,0.00660196,-0.00250
 071,-0.00080281,0.00156261,0.00029194,-0.00029089,0.00206647,-0.002245
 36,-0.00092955,-0.00334865,-0.02328157,0.14109659,-0.01929765,0.018580
 46,-0.03979068,0.01787545,-0.00891530,-0.00114938,-0.00071978,0.001385
 87,-0.00108186,-0.00098498,0.00271588,0.00198302,-0.00074320,0.0075966
 7,0.00109427,0.00129132,-0.00261319,0.00319276,0.00106569,0.00040447,0
 .00059538,-0.00097669,-0.00030419,0.00008054,-0.00037193,0.00007381,-0
 .00035718,-0.00624248,0.01894598,0.00473181,-0.02673595,0.01839816,-0.
 02516763,-0.02283322,0.00099313,0.00790775,0.00126273,-0.00103182,0.00
 037284,0.00321182,0.00001792,-0.00165719,0.00272624,-0.00214553,-0.000
 93097,0.03777323,0.00974636,0.01584553,0.03691339,-0.00388488,0.026715
 15,-0.02990050,-0.00499157,-0.02320130,0.00107811,-0.00077669,0.000449
 81,-0.00007330,-0.00102101,0.00209880,0.00103262,0.00105268,0.00221332
 ,-0.00001249,0.00237329,-0.00420131,0.00396052,0.00139341,0.00096013,0
 .00091638,-0.00103835,-0.00032878,0.00006929,-0.00038241,-0.00011723,-
 0.00040644,0.04575402,-0.01642401,0.00649465,0.00373802,-0.05787330,0.
 00958307,-0.00486970,0.01943162,-0.01097214,0.00073666,-0.00023117,0.0
 0083763,0.00698333,-0.00224148,-0.00215424,0.00222323,-0.00157337,-0.0
 0165905,0.02075867,0.00264491,0.02484956,-0.05022170,0.06504469,-0.014
 09945,-0.01446341,0.01908304,-0.00707563,0.00199575,0.00010014,0.00045
 835,0.00073793,0.00059162,-0.00014118,-0.00170440,-0.00074304,0.000241
 50,-0.00244559,-0.00037937,-0.00163834,0.00307424,-0.00337728,-0.00104
 659,-0.00062089,-0.00050438,0.00068609,0.00035605,0.00001871,0.0002358
 2,-0.00009406,0.00016557,-0.01165467,-0.00330559,-0.03213053,0.0007077
 3,0.01144080,-0.03463707,0.00838201,-0.00637427,-0.00194122,-0.0016355
 4,0.00009217,0.00033586,-0.00284686,0.00039585,0.00122294,-0.00063617,
 0.00144528,0.00035461,-0.00779225,0.01655383,-0.03136291,0.02260167,-0
 .01144262,0.08924664,-0.02927059,-0.00129525,0.00206668,-0.00270926,-0
 .00120053,-0.00325758,-0.00023071,0.00140473,0.00008180,-0.00006037,0.
 00025398,0.00036626,0.00013257,0.00042462,-0.00016907,0.00359809,-0.01
 080706,-0.00588644,0.00106892,0.00025854,0.00105836,0.00100836,0.00058
 899,-0.00071011,-0.00051643,-0.00232314,-0.00101345,-0.00831675,0.0260
 0333,-0.00159733,-0.00383102,0.00066373,-0.00079723,0.00101807,0.00005
 115,-0.00038293,-0.00024840,0.00004289,0.00000463,-0.00014720,-0.00005
 984,0.00012383,-0.00009427,-0.00003001,0.00006681,0.00341833,0.0000339
 4,0.00244177,0.00016499,0.00034262,0.00057728,0.04663682,-0.01744946,-
 0.05676570,-0.00356792,0.00458763,0.00151451,0.00371545,0.00062325,-0.
 00173257,-0.00022364,-0.00031876,0.00039301,-0.00037231,-0.00036237,0.
 00015216,-0.00007622,0.00796772,-0.02837135,-0.01558866,0.00023049,0.0
 0015782,-0.00044331,0.00064237,-0.00054759,-0.00048183,-0.00383940,-0.
 00237667,-0.00171698,0.01618880,-0.03219461,0.00209169,0.00482395,0.00
 143614,0.00292969,-0.00018250,0.00016335,0.00073139,0.00026299,-0.0000
 9202,-0.00000158,0.00010741,0.00004968,-0.00009817,-0.00026382,0.00009
 573,0.00008282,-0.00706031,-0.00201678,-0.00603722,-0.00121392,-0.0023
 3111,-0.00070008,-0.03134957,0.11666151,-0.00932682,-0.01302834,-0.029
 88242,-0.00138968,0.00066687,0.00012845,0.00014266,0.00011745,0.000028
 40,-0.00026934,0.00071602,-0.00004079,0.00010864,-0.00009067,-0.000182
 24,0.00322006,-0.01591602,-0.00571546,0.00131091,0.00009900,0.00059977
 ,-0.00074501,-0.00088401,0.00077386,-0.00163561,-0.00177719,0.00083440
 ,-0.00213763,0.00490600,0.00806448,0.00339713,-0.00012044,0.00376636,-
 0.00018403,-0.00002634,0.00051416,0.00028059,-0.00005373,0.00001817,-0
 .00006021,0.00005230,-0.00008818,-0.00016141,0.00014874,-0.00006612,-0
 .00686098,-0.00140312,-0.00612540,0.00081280,-0.00035617,-0.00126305,-
 0.02069762,0.04800318,0.06138372,-0.24183194,-0.06891078,0.12929161,0.
 00136208,0.00210125,0.00276478,0.00063554,-0.00177074,-0.00043692,-0.0
 0035548,-0.00163991,-0.00107376,0.00015305,0.00065234,-0.00083694,-0.0
 2862538,-0.01624403,0.03939014,0.00229326,0.00134468,0.00162389,-0.006
 51174,-0.00625397,-0.00159929,0.00128918,-0.00017712,0.00038740,0.0358
 0432,0.00202772,0.00440665,-0.06284557,-0.00374140,-0.07022567,0.00968
 433,-0.00398745,-0.00948450,-0.00383131,0.00137762,0.00056975,-0.00044
 355,-0.00010685,0.00045077,0.00013339,0.00089192,0.00151470,0.03836444
 ,0.01525708,0.03532132,-0.02337898,-0.01816964,0.01467621,-0.01162113,
 0.02660548,0.03419554,0.28972550,-0.05947422,-0.10405108,0.03676956,-0
 .00113831,0.00426575,0.00097294,0.00025271,-0.00059733,0.00015668,-0.0
 0035592,0.00040647,-0.00051738,-0.00009730,0.00002917,0.00016650,-0.02
 168728,-0.00074688,0.02278294,-0.00133241,0.00000100,0.00020451,-0.005
 36879,-0.00170388,-0.00049318,0.00200369,0.00299851,0.00144173,0.00941
 817,-0.00284837,0.03417567,-0.02096005,0.01261499,-0.02122263,0.001812
 38,-0.00099192,-0.00496957,-0.00188259,0.00066885,0.00039750,0.0001354
 5,-0.00002541,0.00021359,-0.00070959,0.00044146,0.00044007,0.02405646,
 -0.01756560,0.01159335,-0.01241306,-0.01103537,0.00505901,0.01699687,0
 .00580447,-0.02105352,0.07074379,0.11233519,0.17992930,0.06748849,-0.2
 7055081,0.00112048,-0.01047424,-0.00715253,-0.00079580,0.00274335,0.00
 092060,-0.00094399,0.00229713,0.00187397,0.00002215,0.00136106,0.00016
 446,0.01092239,0.00500227,0.00216966,0.00130002,-0.00032777,-0.0000689
 6,-0.00099765,-0.00060061,0.00166719,-0.00060487,0.00135706,0.00013742
 ,-0.01290220,0.03020073,-0.05535452,-0.02821076,-0.00819363,0.00182642
 ,0.00039419,-0.00222514,-0.00362642,-0.00090189,0.00064697,0.00050742,
 -0.00087569,-0.00006044,0.00003350,-0.00048074,0.00097754,-0.00014511,
 -0.00468010,-0.00398381,-0.03628225,0.01091651,0.00815512,-0.00478029,
 0.02772434,-0.02824631,-0.03274810,-0.18093570,-0.06611776,0.40140837\
 \0.00000284,0.00000307,0.00000264,-0.00000609,-0.00000226,-0.00000446,
 -0.00000648,-0.00000767,-0.00000673,-0.00000458,0.00000030,-0.00000646
 ,-0.00000673,-0.00000085,-0.00000858,-0.00000152,0.00000993,-0.0000044
 9,0.00000170,0.00001357,-0.00000200,-0.00000230,0.00000789,-0.00000503
 ,-0.00000312,0.00001057,-0.00000596,-0.00000794,-0.00000788,-0.0000020
 5,0.00000725,-0.00000241,-0.00000433,0.00000267,-0.00000719,0.00000616
 ,0.00000141,-0.00001226,0.00000486,0.00000509,-0.00000653,0.00000832,0
 .00000004,-0.00000488,0.00000145,0.00000494,0.00000485,0.00000731,0.00
 000037,-0.00000570,0.00000423,0.00000609,0.00000297,0.00000638,0.00000
 637,0.00000449,0.00000874\\\@


 IT CANNOT BE MY BEAUTY, FOR I HAVE NONE; AND IT CANNOT BE MY WIT,
 FOR HE HAS NOT ENOUGH TO KNOW THAT I HAVE ANY.
 -- CATHARINE SEDLEY, PUZZLED ABOUT WHY SHE WAS MISTRESS TO JAMES II
 Job cpu time:       1 days 12 hours 19 minutes 36.1 seconds.
 File lengths (MBytes):  RWF=    392 Int=      0 D2E=      0 Chk=     26 Scr=      1
 Normal termination of Gaussian 09 at Sat Mar 28 08:25:55 2015.
