 Entering Gaussian System, Link 0=g09
 Initial command:
 /opt/gridware/applications/gaussian/g09/l1.exe "/lustre/SCRATCH5/gau/Gau-6282.inp" -scrdir="/lustre/SCRATCH5/gau/"
 Entering Link 1 = /opt/gridware/applications/gaussian/g09/l1.exe PID=      6283.
  
 Copyright (c) 1988,1990,1992,1993,1995,1998,2003,2009,2013,
            Gaussian, Inc.  All Rights Reserved.
  
 This is part of the Gaussian(R) 09 program.  It is based on
 the Gaussian(R) 03 system (copyright 2003, Gaussian, Inc.),
 the Gaussian(R) 98 system (copyright 1998, Gaussian, Inc.),
 the Gaussian(R) 94 system (copyright 1995, Gaussian, Inc.),
 the Gaussian 92(TM) system (copyright 1992, Gaussian, Inc.),
 the Gaussian 90(TM) system (copyright 1990, Gaussian, Inc.),
 the Gaussian 88(TM) system (copyright 1988, Gaussian, Inc.),
 the Gaussian 86(TM) system (copyright 1986, Carnegie Mellon
 University), and the Gaussian 82(TM) system (copyright 1983,
 Carnegie Mellon University). Gaussian is a federally registered
 trademark of Gaussian, Inc.
  
 This software contains proprietary and confidential information,
 including trade secrets, belonging to Gaussian, Inc.
  
 This software is provided under written license and may be
 used, copied, transmitted, or stored only in accord with that
 written license.
  
 The following legend is applicable only to US Government
 contracts under FAR:
  
                    RESTRICTED RIGHTS LEGEND
  
 Use, reproduction and disclosure by the US Government is
 subject to restrictions as set forth in subparagraphs (a)
 and (c) of the Commercial Computer Software - Restricted
 Rights clause in FAR 52.227-19.
  
 Gaussian, Inc.
 340 Quinnipiac St., Bldg. 40, Wallingford CT 06492
  
  
 ---------------------------------------------------------------
 Warning -- This program may not be used in any manner that
 competes with the business of Gaussian, Inc. or will provide
 assistance to any competitor of Gaussian, Inc.  The licensee
 of this program is prohibited from giving any competitor of
 Gaussian, Inc. access to this program.  By using this program,
 the user acknowledges that Gaussian, Inc. is engaged in the
 business of creating and licensing software in the field of
 computational chemistry and represents and warrants to the
 licensee that it is not a competitor of Gaussian, Inc. and that
 it will not use this program in any manner prohibited above.
 ---------------------------------------------------------------
  

 Cite this work as:
 Gaussian 09, Revision D.01,
 M. J. Frisch, G. W. Trucks, H. B. Schlegel, G. E. Scuseria, 
 M. A. Robb, J. R. Cheeseman, G. Scalmani, V. Barone, B. Mennucci, 
 G. A. Petersson, H. Nakatsuji, M. Caricato, X. Li, H. P. Hratchian, 
 A. F. Izmaylov, J. Bloino, G. Zheng, J. L. Sonnenberg, M. Hada, 
 M. Ehara, K. Toyota, R. Fukuda, J. Hasegawa, M. Ishida, T. Nakajima, 
 Y. Honda, O. Kitao, H. Nakai, T. Vreven, J. A. Montgomery, Jr., 
 J. E. Peralta, F. Ogliaro, M. Bearpark, J. J. Heyd, E. Brothers, 
 K. N. Kudin, V. N. Staroverov, T. Keith, R. Kobayashi, J. Normand, 
 K. Raghavachari, A. Rendell, J. C. Burant, S. S. Iyengar, J. Tomasi, 
 M. Cossi, N. Rega, J. M. Millam, M. Klene, J. E. Knox, J. B. Cross, 
 V. Bakken, C. Adamo, J. Jaramillo, R. Gomperts, R. E. Stratmann, 
 O. Yazyev, A. J. Austin, R. Cammi, C. Pomelli, J. W. Ochterski, 
 R. L. Martin, K. Morokuma, V. G. Zakrzewski, G. A. Voth, 
 P. Salvador, J. J. Dannenberg, S. Dapprich, A. D. Daniels, 
 O. Farkas, J. B. Foresman, J. V. Ortiz, J. Cioslowski, 
 and D. J. Fox, Gaussian, Inc., Wallingford CT, 2013.
 
 ******************************************
 Gaussian 09:  EM64L-G09RevD.01 24-Apr-2013
                19-Feb-2015 
 ******************************************
 %nprocshared=8
 Will use up to    8 processors via shared memory.
 %nprocl=1
 Will use up to    1 processors via Linda.
 ----------------------------------------------------------------------
 # opt=(calcfc,ts,noeigentest) freq=noraman b3lyp/gen geom=connectivity
  pseudo=read gfinput
 ----------------------------------------------------------------------
 1/5=1,10=4,11=1,14=-1,18=20,26=3,38=1,57=2/1,3;
 2/9=110,12=2,17=6,18=5,40=1/2;
 3/5=7,11=2,16=1,17=8,24=10,25=1,30=1,71=2,74=-5,140=1/1,2,3;
 4//1;
 5/5=2,38=5/2;
 8/6=4,10=90,11=11/1;
 11/6=1,8=1,9=11,15=111,16=1/1,2,10;
 10/6=1,13=1/2;
 6/7=2,8=2,9=2,10=2,28=1/1;
 7/10=1,18=20,25=1/1,2,3,16;
 1/5=1,10=4,11=1,14=-1,18=20,26=3/3(2);
 2/9=110/2;
 99//99;
 2/9=110/2;
 3/5=7,6=1,11=2,16=1,17=8,25=1,30=1,71=1,74=-5,82=7/1,2,3;
 4/5=5,16=3,69=1/1;
 5/5=2,38=5/2;
 7//1,2,3,16;
 1/5=1,11=1,14=-1,18=20,26=3/3(-5);
 2/9=110/2;
 6/7=2,8=2,9=2,10=2,19=2,28=1/1;
 99/9=1/99;
 -------------------------
 ts624cl-6-31+g(d)/lanl2dz
 -------------------------
 Symbolic Z-matrix:
 Charge =  0 Multiplicity = 1
 C                     0.88456   0.11663   0.41891 
 C                    -0.39856   2.08642  -0.60959 
 H                    -1.16612   2.27151  -1.36713 
 H                    -0.77958   2.23626   0.40602 
 H                     0.47888   2.71442  -0.79914 
 C                     2.12077   0.93679   0.59068 
 H                     2.88275   0.36133   1.14581 
 H                     2.57087   1.21375  -0.37438 
 H                     1.92442   1.84967   1.16978 
 O                     0.01831   0.71086  -0.79507 
 O                    -1.76363  -0.8697   -0.10176 
 C                    -3.04071  -0.26804   0.23386 
 H                    -3.56304  -0.12891  -0.71933 
 H                    -3.57601  -0.99358   0.85919 
 H                    -2.90073   0.67793   0.76431 
 H                    -1.12805  -0.88883   0.81811 
 H                    -1.03451  -0.03214  -0.7197 
 Cl                    1.32383  -1.44391  -0.5023 
 O                     0.04404  -0.08688   1.34089 
 
 Add virtual bond connecting atoms H16        and O11        Dist= 2.11D+00.
 Add virtual bond connecting atoms H17        and O11        Dist= 2.40D+00.
 Add virtual bond connecting atoms H17        and O10        Dist= 2.44D+00.
 Add virtual bond connecting atoms C1         and O10        Dist= 3.03D+00.
 Add virtual bond connecting atoms O19        and H16        Dist= 2.86D+00.

 GradGradGradGradGradGradGradGradGradGradGradGradGradGradGradGradGradGrad
 Berny optimization.
 Initialization pass.
                           ----------------------------
                           !    Initial Parameters    !
                           ! (Angstroms and Degrees)  !
 --------------------------                            --------------------------
 ! Name  Definition              Value          Derivative Info.                !
 --------------------------------------------------------------------------------
 ! R1    R(1,6)                  1.4934         calculate D2E/DX2 analytically  !
 ! R2    R(1,10)                 1.6054         calculate D2E/DX2 analytically  !
 ! R3    R(1,18)                 1.8646         calculate D2E/DX2 analytically  !
 ! R4    R(1,19)                 1.2641         calculate D2E/DX2 analytically  !
 ! R5    R(2,3)                  1.0942         calculate D2E/DX2 analytically  !
 ! R6    R(2,4)                  1.095          calculate D2E/DX2 analytically  !
 ! R7    R(2,5)                  1.0955         calculate D2E/DX2 analytically  !
 ! R8    R(2,10)                 1.4493         calculate D2E/DX2 analytically  !
 ! R9    R(6,7)                  1.1045         calculate D2E/DX2 analytically  !
 ! R10   R(6,8)                  1.1003         calculate D2E/DX2 analytically  !
 ! R11   R(6,9)                  1.0988         calculate D2E/DX2 analytically  !
 ! R12   R(10,17)                1.2908         calculate D2E/DX2 analytically  !
 ! R13   R(11,12)                1.4511         calculate D2E/DX2 analytically  !
 ! R14   R(11,16)                1.1182         calculate D2E/DX2 analytically  !
 ! R15   R(11,17)                1.2708         calculate D2E/DX2 analytically  !
 ! R16   R(12,13)                1.0958         calculate D2E/DX2 analytically  !
 ! R17   R(12,14)                1.0973         calculate D2E/DX2 analytically  !
 ! R18   R(12,15)                1.0935         calculate D2E/DX2 analytically  !
 ! R19   R(16,19)                1.5133         calculate D2E/DX2 analytically  !
 ! A1    A(6,1,10)             109.29           calculate D2E/DX2 analytically  !
 ! A2    A(6,1,18)             108.7494         calculate D2E/DX2 analytically  !
 ! A3    A(6,1,19)             123.7047         calculate D2E/DX2 analytically  !
 ! A4    A(10,1,18)             93.6298         calculate D2E/DX2 analytically  !
 ! A5    A(10,1,19)            104.6163         calculate D2E/DX2 analytically  !
 ! A6    A(18,1,19)            112.4725         calculate D2E/DX2 analytically  !
 ! A7    A(3,2,4)              112.0175         calculate D2E/DX2 analytically  !
 ! A8    A(3,2,5)              110.1863         calculate D2E/DX2 analytically  !
 ! A9    A(3,2,10)             105.8855         calculate D2E/DX2 analytically  !
 ! A10   A(4,2,5)              111.1443         calculate D2E/DX2 analytically  !
 ! A11   A(4,2,10)             110.4062         calculate D2E/DX2 analytically  !
 ! A12   A(5,2,10)             106.9508         calculate D2E/DX2 analytically  !
 ! A13   A(1,6,7)              110.0441         calculate D2E/DX2 analytically  !
 ! A14   A(1,6,8)              112.0838         calculate D2E/DX2 analytically  !
 ! A15   A(1,6,9)              111.652          calculate D2E/DX2 analytically  !
 ! A16   A(7,6,8)              106.8439         calculate D2E/DX2 analytically  !
 ! A17   A(7,6,9)              106.9335         calculate D2E/DX2 analytically  !
 ! A18   A(8,6,9)              109.0408         calculate D2E/DX2 analytically  !
 ! A19   A(1,10,2)             114.1896         calculate D2E/DX2 analytically  !
 ! A20   A(1,10,17)            100.5379         calculate D2E/DX2 analytically  !
 ! A21   A(2,10,17)            107.7134         calculate D2E/DX2 analytically  !
 ! A22   A(12,11,16)           108.4848         calculate D2E/DX2 analytically  !
 ! A23   A(12,11,17)           110.1294         calculate D2E/DX2 analytically  !
 ! A24   A(16,11,17)            94.8855         calculate D2E/DX2 analytically  !
 ! A25   A(11,12,13)           105.722          calculate D2E/DX2 analytically  !
 ! A26   A(11,12,14)           106.6785         calculate D2E/DX2 analytically  !
 ! A27   A(11,12,15)           110.9905         calculate D2E/DX2 analytically  !
 ! A28   A(13,12,14)           110.3134         calculate D2E/DX2 analytically  !
 ! A29   A(13,12,15)           111.9091         calculate D2E/DX2 analytically  !
 ! A30   A(14,12,15)           110.9771         calculate D2E/DX2 analytically  !
 ! A31   A(11,16,19)           135.6682         calculate D2E/DX2 analytically  !
 ! A32   A(10,17,11)           151.1314         calculate D2E/DX2 analytically  !
 ! A33   A(1,19,16)            110.3856         calculate D2E/DX2 analytically  !
 ! D1    D(10,1,6,7)          -159.762          calculate D2E/DX2 analytically  !
 ! D2    D(10,1,6,8)           -41.0181         calculate D2E/DX2 analytically  !
 ! D3    D(10,1,6,9)            81.6562         calculate D2E/DX2 analytically  !
 ! D4    D(18,1,6,7)           -58.8302         calculate D2E/DX2 analytically  !
 ! D5    D(18,1,6,8)            59.9137         calculate D2E/DX2 analytically  !
 ! D6    D(18,1,6,9)          -177.412          calculate D2E/DX2 analytically  !
 ! D7    D(19,1,6,7)            76.5385         calculate D2E/DX2 analytically  !
 ! D8    D(19,1,6,8)          -164.7176         calculate D2E/DX2 analytically  !
 ! D9    D(19,1,6,9)           -42.0433         calculate D2E/DX2 analytically  !
 ! D10   D(6,1,10,2)           -59.7896         calculate D2E/DX2 analytically  !
 ! D11   D(6,1,10,17)         -174.8027         calculate D2E/DX2 analytically  !
 ! D12   D(18,1,10,2)         -171.101          calculate D2E/DX2 analytically  !
 ! D13   D(18,1,10,17)          73.8859         calculate D2E/DX2 analytically  !
 ! D14   D(19,1,10,2)           74.5458         calculate D2E/DX2 analytically  !
 ! D15   D(19,1,10,17)         -40.4674         calculate D2E/DX2 analytically  !
 ! D16   D(6,1,19,16)          176.7496         calculate D2E/DX2 analytically  !
 ! D17   D(10,1,19,16)          50.9937         calculate D2E/DX2 analytically  !
 ! D18   D(18,1,19,16)         -49.2991         calculate D2E/DX2 analytically  !
 ! D19   D(3,2,10,1)          -166.3283         calculate D2E/DX2 analytically  !
 ! D20   D(3,2,10,17)          -55.5997         calculate D2E/DX2 analytically  !
 ! D21   D(4,2,10,1)           -44.879          calculate D2E/DX2 analytically  !
 ! D22   D(4,2,10,17)           65.8496         calculate D2E/DX2 analytically  !
 ! D23   D(5,2,10,1)            76.1679         calculate D2E/DX2 analytically  !
 ! D24   D(5,2,10,17)         -173.1035         calculate D2E/DX2 analytically  !
 ! D25   D(1,10,17,11)          13.1394         calculate D2E/DX2 analytically  !
 ! D26   D(2,10,17,11)        -106.6587         calculate D2E/DX2 analytically  !
 ! D27   D(16,11,12,13)        171.4295         calculate D2E/DX2 analytically  !
 ! D28   D(16,11,12,14)        -71.1302         calculate D2E/DX2 analytically  !
 ! D29   D(16,11,12,15)         49.8827         calculate D2E/DX2 analytically  !
 ! D30   D(17,11,12,13)         68.8279         calculate D2E/DX2 analytically  !
 ! D31   D(17,11,12,14)       -173.7318         calculate D2E/DX2 analytically  !
 ! D32   D(17,11,12,15)        -52.7189         calculate D2E/DX2 analytically  !
 ! D33   D(12,11,16,19)       -103.5454         calculate D2E/DX2 analytically  !
 ! D34   D(17,11,16,19)          9.581          calculate D2E/DX2 analytically  !
 ! D35   D(12,11,17,10)        114.9612         calculate D2E/DX2 analytically  !
 ! D36   D(16,11,17,10)          3.2308         calculate D2E/DX2 analytically  !
 ! D37   D(11,16,19,1)         -43.6502         calculate D2E/DX2 analytically  !
 --------------------------------------------------------------------------------
 Trust Radius=3.00D-01 FncErr=1.00D-07 GrdErr=1.00D-06
 Number of steps in this run=     99 maximum allowed number of steps=    114.
 Search for a saddle point of order  1.
 GradGradGradGradGradGradGradGradGradGradGradGradGradGradGradGradGradGrad

                          Input orientation:                          
 ---------------------------------------------------------------------
 Center     Atomic      Atomic             Coordinates (Angstroms)
 Number     Number       Type             X           Y           Z
 ---------------------------------------------------------------------
      1          6           0        0.884558    0.116628    0.418907
      2          6           0       -0.398563    2.086422   -0.609586
      3          1           0       -1.166118    2.271506   -1.367134
      4          1           0       -0.779578    2.236265    0.406015
      5          1           0        0.478877    2.714415   -0.799143
      6          6           0        2.120771    0.936787    0.590683
      7          1           0        2.882752    0.361331    1.145809
      8          1           0        2.570868    1.213746   -0.374381
      9          1           0        1.924419    1.849674    1.169780
     10          8           0        0.018310    0.710864   -0.795072
     11          8           0       -1.763632   -0.869703   -0.101762
     12          6           0       -3.040711   -0.268041    0.233857
     13          1           0       -3.563040   -0.128910   -0.719331
     14          1           0       -3.576005   -0.993577    0.859193
     15          1           0       -2.900725    0.677932    0.764309
     16          1           0       -1.128054   -0.888828    0.818105
     17          1           0       -1.034514   -0.032144   -0.719698
     18         17           0        1.323828   -1.443907   -0.502301
     19          8           0        0.044036   -0.086882    1.340889
 ---------------------------------------------------------------------
                    Distance matrix (angstroms):
                    1          2          3          4          5
     1  C    0.000000
     2  C    2.565986   0.000000
     3  H    3.469685   1.094201   0.000000
     4  H    2.694880   1.095021   1.815134   0.000000
     5  H    2.897709   1.095540   1.795770   1.806860   0.000000
     6  C    1.493449   3.018170   4.051933   3.183515   2.790590
     7  H    2.140338   4.101753   5.133907   4.180351   3.885673
     8  H    2.162548   3.103934   4.008675   3.588879   2.609379
     9  H    2.156054   2.935718   4.020609   2.836263   2.591144
    10  O    1.605381   1.449258   2.041012   2.099067   2.055810
    11  O    2.873474   3.295447   3.438805   3.297459   4.284984
    12  C    3.948411   3.638109   3.539289   3.378448   4.727540
    13  H    4.597500   3.864409   3.453532   3.822057   4.942465
    14  H    4.617687   4.662600   4.628699   4.296191   5.739456
    15  H    3.842230   3.183119   3.176695   2.656321   4.244214
    16  H    2.284931   3.379729   3.842451   3.171350   4.263928
    17  H    2.236379   2.214696   2.396518   2.545172   3.136917
    18  Cl   1.864632   3.929550   4.555443   4.335092   4.253669
    19  O    1.264098   2.953557   3.789440   2.636160   3.551913
                    6          7          8          9         10
     6  C    0.000000
     7  H    1.104504   0.000000
     8  H    1.100292   1.770554   0.000000
     9  H    1.098758   1.770351   1.790736   0.000000
    10  O    2.528181   3.477675   2.635417   2.964925   0.000000
    11  O    4.339524   4.965960   4.816946   4.755371   2.480764
    12  C    5.312234   6.026208   5.835706   5.478429   3.372619
    13  H    5.929381   6.728099   6.288604   6.131537   3.679270
    14  H    6.020935   6.605563   6.646655   6.199613   4.308226
    15  H    5.031160   5.804686   5.614449   4.981907   3.309610
    16  H    3.733558   4.213888   4.418695   4.115903   2.544701
    17  H    3.551302   4.356594   3.830178   3.983296   1.290806
    18  Cl   2.738145   2.899206   2.938468   3.742224   2.536362
    19  O    2.433831   2.880496   3.319437   2.704694   2.280217
                   11         12         13         14         15
    11  O    0.000000
    12  C    1.451058   0.000000
    13  H    2.041577   1.095788   0.000000
    14  H    2.055110   1.097264   1.799876   0.000000
    15  H    2.106712   1.093545   1.814068   1.805256   0.000000
    16  H    1.118249   2.094034   2.978312   2.450536   2.366431
    17  H    1.270812   2.233773   2.530377   3.142678   2.487816
    18  Cl   3.165841   4.579715   5.065353   5.105372   4.894216
    19  O    2.441662   3.282378   4.154187   3.762821   3.096611
                   16         17         18         19
    16  H    0.000000
    17  H    1.762809   0.000000
    18  Cl   2.839597   2.757193   0.000000
    19  O    1.513346   2.326432   2.622353   0.000000
 Stoichiometry    C4H11ClO3
 Framework group  C1[X(C4H11ClO3)]
 Deg. of freedom    51
 Full point group                 C1      NOp   1
 Largest Abelian subgroup         C1      NOp   1
 Largest concise Abelian subgroup C1      NOp   1
                         Standard orientation:                         
 ---------------------------------------------------------------------
 Center     Atomic      Atomic             Coordinates (Angstroms)
 Number     Number       Type             X           Y           Z
 ---------------------------------------------------------------------
      1          6           0        0.884558    0.116628    0.418907
      2          6           0       -0.398563    2.086422   -0.609586
      3          1           0       -1.166118    2.271506   -1.367134
      4          1           0       -0.779578    2.236265    0.406015
      5          1           0        0.478877    2.714415   -0.799143
      6          6           0        2.120771    0.936787    0.590683
      7          1           0        2.882752    0.361331    1.145809
      8          1           0        2.570868    1.213746   -0.374381
      9          1           0        1.924419    1.849674    1.169780
     10          8           0        0.018310    0.710864   -0.795072
     11          8           0       -1.763632   -0.869703   -0.101762
     12          6           0       -3.040711   -0.268041    0.233857
     13          1           0       -3.563040   -0.128910   -0.719331
     14          1           0       -3.576005   -0.993577    0.859193
     15          1           0       -2.900725    0.677932    0.764309
     16          1           0       -1.128054   -0.888828    0.818105
     17          1           0       -1.034514   -0.032144   -0.719698
     18         17           0        1.323828   -1.443907   -0.502301
     19          8           0        0.044036   -0.086882    1.340889
 ---------------------------------------------------------------------
 Rotational constants (GHZ):      2.0335794      1.2248437      0.9612350
 General basis read from cards:  (5D, 7F)
 ======================================================================================================
                                       Pseudopotential Parameters
 ======================================================================================================
  Center     Atomic      Valence      Angular      Power
  Number     Number     Electrons     Momentum     of R      Exponent        Coefficient   SO-Coeffient
 ======================================================================================================
    1          6
                                   No pseudopotential on this center.
    2          6
                                   No pseudopotential on this center.
    3          1
                                   No pseudopotential on this center.
    4          1
                                   No pseudopotential on this center.
    5          1
                                   No pseudopotential on this center.
    6          6
                                   No pseudopotential on this center.
    7          1
                                   No pseudopotential on this center.
    8          1
                                   No pseudopotential on this center.
    9          1
                                   No pseudopotential on this center.
   10          8
                                   No pseudopotential on this center.
   11          8
                                   No pseudopotential on this center.
   12          6
                                   No pseudopotential on this center.
   13          1
                                   No pseudopotential on this center.
   14          1
                                   No pseudopotential on this center.
   15          1
                                   No pseudopotential on this center.
   16          1
                                   No pseudopotential on this center.
   17          1
                                   No pseudopotential on this center.
   18         17            7
                                      D and up 
                                                     1       94.8130000      -10.00000000    0.00000000
                                                     2      165.6440000       66.27291700    0.00000000
                                                     2       30.8317000      -28.96859500    0.00000000
                                                     2       10.5841000      -12.86633700    0.00000000
                                                     2        3.7704000       -1.71021700    0.00000000
                                      S - D
                                                     0      128.8391000        3.00000000    0.00000000
                                                     1      120.3786000       12.85285100    0.00000000
                                                     2       63.5622000      275.67239800    0.00000000
                                                     2       18.0695000      115.67771200    0.00000000
                                                     2        3.8142000       35.06060900    0.00000000
                                      P - D
                                                     0      216.5263000        5.00000000    0.00000000
                                                     1       46.5723000        7.47948600    0.00000000
                                                     2      147.4685000      613.03200000    0.00000000
                                                     2       48.9869000      280.80068500    0.00000000
                                                     2       13.2096000      107.87882400    0.00000000
                                                     2        3.1831000       15.34395600    0.00000000
   19          8
                                   No pseudopotential on this center.
 ======================================================================================================
 AO basis set in the form of general basis input (Overlap normalization):
      1 0
 S   6 1.00       0.000000000000
      0.3047524880D+04  0.1834737132D-02
      0.4573695180D+03  0.1403732281D-01
      0.1039486850D+03  0.6884262226D-01
      0.2921015530D+02  0.2321844432D+00
      0.9286662960D+01  0.4679413484D+00
      0.3163926960D+01  0.3623119853D+00
 SP   3 1.00       0.000000000000
      0.7868272350D+01 -0.1193324198D+00  0.6899906659D-01
      0.1881288540D+01 -0.1608541517D+00  0.3164239610D+00
      0.5442492580D+00  0.1143456438D+01  0.7443082909D+00
 SP   1 1.00       0.000000000000
      0.1687144782D+00  0.1000000000D+01  0.1000000000D+01
 SP   1 1.00       0.000000000000
      0.4380000000D-01  0.1000000000D+01  0.1000000000D+01
 D   1 1.00       0.000000000000
      0.8000000000D+00  0.1000000000D+01
 ****
      2 0
 S   6 1.00       0.000000000000
      0.3047524880D+04  0.1834737132D-02
      0.4573695180D+03  0.1403732281D-01
      0.1039486850D+03  0.6884262226D-01
      0.2921015530D+02  0.2321844432D+00
      0.9286662960D+01  0.4679413484D+00
      0.3163926960D+01  0.3623119853D+00
 SP   3 1.00       0.000000000000
      0.7868272350D+01 -0.1193324198D+00  0.6899906659D-01
      0.1881288540D+01 -0.1608541517D+00  0.3164239610D+00
      0.5442492580D+00  0.1143456438D+01  0.7443082909D+00
 SP   1 1.00       0.000000000000
      0.1687144782D+00  0.1000000000D+01  0.1000000000D+01
 SP   1 1.00       0.000000000000
      0.4380000000D-01  0.1000000000D+01  0.1000000000D+01
 D   1 1.00       0.000000000000
      0.8000000000D+00  0.1000000000D+01
 ****
      3 0
 S   3 1.00       0.000000000000
      0.1873113696D+02  0.3349460434D-01
      0.2825394365D+01  0.2347269535D+00
      0.6401216923D+00  0.8137573261D+00
 S   1 1.00       0.000000000000
      0.1612777588D+00  0.1000000000D+01
 ****
      4 0
 S   3 1.00       0.000000000000
      0.1873113696D+02  0.3349460434D-01
      0.2825394365D+01  0.2347269535D+00
      0.6401216923D+00  0.8137573261D+00
 S   1 1.00       0.000000000000
      0.1612777588D+00  0.1000000000D+01
 ****
      5 0
 S   3 1.00       0.000000000000
      0.1873113696D+02  0.3349460434D-01
      0.2825394365D+01  0.2347269535D+00
      0.6401216923D+00  0.8137573261D+00
 S   1 1.00       0.000000000000
      0.1612777588D+00  0.1000000000D+01
 ****
      6 0
 S   6 1.00       0.000000000000
      0.3047524880D+04  0.1834737132D-02
      0.4573695180D+03  0.1403732281D-01
      0.1039486850D+03  0.6884262226D-01
      0.2921015530D+02  0.2321844432D+00
      0.9286662960D+01  0.4679413484D+00
      0.3163926960D+01  0.3623119853D+00
 SP   3 1.00       0.000000000000
      0.7868272350D+01 -0.1193324198D+00  0.6899906659D-01
      0.1881288540D+01 -0.1608541517D+00  0.3164239610D+00
      0.5442492580D+00  0.1143456438D+01  0.7443082909D+00
 SP   1 1.00       0.000000000000
      0.1687144782D+00  0.1000000000D+01  0.1000000000D+01
 SP   1 1.00       0.000000000000
      0.4380000000D-01  0.1000000000D+01  0.1000000000D+01
 D   1 1.00       0.000000000000
      0.8000000000D+00  0.1000000000D+01
 ****
      7 0
 S   3 1.00       0.000000000000
      0.1873113696D+02  0.3349460434D-01
      0.2825394365D+01  0.2347269535D+00
      0.6401216923D+00  0.8137573261D+00
 S   1 1.00       0.000000000000
      0.1612777588D+00  0.1000000000D+01
 ****
      8 0
 S   3 1.00       0.000000000000
      0.1873113696D+02  0.3349460434D-01
      0.2825394365D+01  0.2347269535D+00
      0.6401216923D+00  0.8137573261D+00
 S   1 1.00       0.000000000000
      0.1612777588D+00  0.1000000000D+01
 ****
      9 0
 S   3 1.00       0.000000000000
      0.1873113696D+02  0.3349460434D-01
      0.2825394365D+01  0.2347269535D+00
      0.6401216923D+00  0.8137573261D+00
 S   1 1.00       0.000000000000
      0.1612777588D+00  0.1000000000D+01
 ****
     10 0
 S   6 1.00       0.000000000000
      0.5484671660D+04  0.1831074430D-02
      0.8252349460D+03  0.1395017220D-01
      0.1880469580D+03  0.6844507810D-01
      0.5296450000D+02  0.2327143360D+00
      0.1689757040D+02  0.4701928980D+00
      0.5799635340D+01  0.3585208530D+00
 SP   3 1.00       0.000000000000
      0.1553961625D+02 -0.1107775495D+00  0.7087426823D-01
      0.3599933586D+01 -0.1480262627D+00  0.3397528391D+00
      0.1013761750D+01  0.1130767015D+01  0.7271585773D+00
 SP   1 1.00       0.000000000000
      0.2700058226D+00  0.1000000000D+01  0.1000000000D+01
 SP   1 1.00       0.000000000000
      0.8450000000D-01  0.1000000000D+01  0.1000000000D+01
 D   1 1.00       0.000000000000
      0.8000000000D+00  0.1000000000D+01
 ****
     11 0
 S   6 1.00       0.000000000000
      0.5484671660D+04  0.1831074430D-02
      0.8252349460D+03  0.1395017220D-01
      0.1880469580D+03  0.6844507810D-01
      0.5296450000D+02  0.2327143360D+00
      0.1689757040D+02  0.4701928980D+00
      0.5799635340D+01  0.3585208530D+00
 SP   3 1.00       0.000000000000
      0.1553961625D+02 -0.1107775495D+00  0.7087426823D-01
      0.3599933586D+01 -0.1480262627D+00  0.3397528391D+00
      0.1013761750D+01  0.1130767015D+01  0.7271585773D+00
 SP   1 1.00       0.000000000000
      0.2700058226D+00  0.1000000000D+01  0.1000000000D+01
 SP   1 1.00       0.000000000000
      0.8450000000D-01  0.1000000000D+01  0.1000000000D+01
 D   1 1.00       0.000000000000
      0.8000000000D+00  0.1000000000D+01
 ****
     12 0
 S   6 1.00       0.000000000000
      0.3047524880D+04  0.1834737132D-02
      0.4573695180D+03  0.1403732281D-01
      0.1039486850D+03  0.6884262226D-01
      0.2921015530D+02  0.2321844432D+00
      0.9286662960D+01  0.4679413484D+00
      0.3163926960D+01  0.3623119853D+00
 SP   3 1.00       0.000000000000
      0.7868272350D+01 -0.1193324198D+00  0.6899906659D-01
      0.1881288540D+01 -0.1608541517D+00  0.3164239610D+00
      0.5442492580D+00  0.1143456438D+01  0.7443082909D+00
 SP   1 1.00       0.000000000000
      0.1687144782D+00  0.1000000000D+01  0.1000000000D+01
 SP   1 1.00       0.000000000000
      0.4380000000D-01  0.1000000000D+01  0.1000000000D+01
 D   1 1.00       0.000000000000
      0.8000000000D+00  0.1000000000D+01
 ****
     13 0
 S   3 1.00       0.000000000000
      0.1873113696D+02  0.3349460434D-01
      0.2825394365D+01  0.2347269535D+00
      0.6401216923D+00  0.8137573261D+00
 S   1 1.00       0.000000000000
      0.1612777588D+00  0.1000000000D+01
 ****
     14 0
 S   3 1.00       0.000000000000
      0.1873113696D+02  0.3349460434D-01
      0.2825394365D+01  0.2347269535D+00
      0.6401216923D+00  0.8137573261D+00
 S   1 1.00       0.000000000000
      0.1612777588D+00  0.1000000000D+01
 ****
     15 0
 S   3 1.00       0.000000000000
      0.1873113696D+02  0.3349460434D-01
      0.2825394365D+01  0.2347269535D+00
      0.6401216923D+00  0.8137573261D+00
 S   1 1.00       0.000000000000
      0.1612777588D+00  0.1000000000D+01
 ****
     16 0
 S   3 1.00       0.000000000000
      0.1873113696D+02  0.3349460434D-01
      0.2825394365D+01  0.2347269535D+00
      0.6401216923D+00  0.8137573261D+00
 S   1 1.00       0.000000000000
      0.1612777588D+00  0.1000000000D+01
 ****
     17 0
 S   3 1.00       0.000000000000
      0.1873113696D+02  0.3349460434D-01
      0.2825394365D+01  0.2347269535D+00
      0.6401216923D+00  0.8137573261D+00
 S   1 1.00       0.000000000000
      0.1612777588D+00  0.1000000000D+01
 ****
     18 0
 S   2 1.00       0.000000000000
      0.2231000000D+01 -0.4900589089D+00
      0.4720000000D+00  0.1254268423D+01
 S   1 1.00       0.000000000000
      0.1631000000D+00  0.1000000000D+01
 P   2 1.00       0.000000000000
      0.6296000000D+01 -0.6356409792D-01
      0.6333000000D+00  0.1014135467D+01
 P   1 1.00       0.000000000000
      0.1819000000D+00  0.1000000000D+01
 ****
     19 0
 S   6 1.00       0.000000000000
      0.5484671660D+04  0.1831074430D-02
      0.8252349460D+03  0.1395017220D-01
      0.1880469580D+03  0.6844507810D-01
      0.5296450000D+02  0.2327143360D+00
      0.1689757040D+02  0.4701928980D+00
      0.5799635340D+01  0.3585208530D+00
 SP   3 1.00       0.000000000000
      0.1553961625D+02 -0.1107775495D+00  0.7087426823D-01
      0.3599933586D+01 -0.1480262627D+00  0.3397528391D+00
      0.1013761750D+01  0.1130767015D+01  0.7271585773D+00
 SP   1 1.00       0.000000000000
      0.2700058226D+00  0.1000000000D+01  0.1000000000D+01
 SP   1 1.00       0.000000000000
      0.8450000000D-01  0.1000000000D+01  0.1000000000D+01
 D   1 1.00       0.000000000000
      0.8000000000D+00  0.1000000000D+01
 ****

 There are   163 symmetry adapted cartesian basis functions of A   symmetry.
 There are   156 symmetry adapted basis functions of A   symmetry.
   156 basis functions,   280 primitive gaussians,   163 cartesian basis functions
    33 alpha electrons       33 beta electrons
       nuclear repulsion energy       417.7327370508 Hartrees.
 NAtoms=   19 NActive=   19 NUniq=   19 SFac= 1.00D+00 NAtFMM=   60 NAOKFM=F Big=F
 Integral buffers will be    131072 words long.
 Raffenetti 2 integral format.
 Two-electron integral symmetry is turned on.
 One-electron integrals computed using PRISM.
   1 Symmetry operations used in ECPInt.
 ECPInt:  NShTT=    1891 NPrTT=    9206 LenC2=    1874 LenP2D=    6749.
 LDataN:  DoStor=T MaxTD1= 4 Len=   56
 NBasis=   156 RedAO= T EigKep=  6.90D-05  NBF=   156
 NBsUse=   156 1.00D-06 EigRej= -1.00D+00 NBFU=   156
 ExpMin= 4.38D-02 ExpMax= 5.48D+03 ExpMxC= 8.25D+02 IAcc=2 IRadAn=         4 AccDes= 0.00D+00
 Harris functional with IExCor=  402 and IRadAn=       4 diagonalized for initial guess.
 HarFok:  IExCor=  402 AccDes= 0.00D+00 IRadAn=         4 IDoV= 1 UseB2=F ITyADJ=14
 ICtDFT=  3500011 ScaDFX=  1.000000  1.000000  1.000000  1.000000
 FoFCou: FMM=F IPFlag=           0 FMFlag=      100000 FMFlg1=           0
         NFxFlg=           0 DoJE=T BraDBF=F KetDBF=T FulRan=T
         wScrn=  0.000000 ICntrl=     500 IOpCl=  0 I1Cent=   200000004 NGrid=           0
         NMat0=    1 NMatS0=      1 NMatT0=    0 NMatD0=    1 NMtDS0=    0 NMtDT0=    0
 Petite list used in FoFCou.
 Requested convergence on RMS density matrix=1.00D-08 within 128 cycles.
 Requested convergence on MAX density matrix=1.00D-06.
 Requested convergence on             energy=1.00D-06.
 No special actions if energy rises.
 SCF Done:  E(RB3LYP) =  -399.610400513     A.U. after   13 cycles
            NFock= 13  Conv=0.80D-08     -V/T= 2.0306
 DoSCS=F DFT=T ScalE2(SS,OS)=  1.000000  1.000000
 Range of M.O.s used for correlation:     1   156
 NBasis=   156 NAE=    33 NBE=    33 NFC=     0 NFV=     0
 NROrb=    156 NOA=    33 NOB=    33 NVA=   123 NVB=   123

 **** Warning!!: The largest alpha MO coefficient is  0.25721090D+02

   1 Symmetry operations used in ECPInt.
 ECPInt:  NShTT=    1891 NPrTT=    9206 LenC2=    1874 LenP2D=    6749.
 LDataN:  DoStor=T MaxTD1= 5 Len=  102
 Number of processors reduced to   6 by ecpmxn.
 Symmetrizing basis deriv contribution to polar:
 IMax=3 JMax=2 DiffMx= 0.00D+00
 G2DrvN: will do    20 centers at a time, making    1 passes.
 Calling FoFCou, ICntrl=  3107 FMM=F I1Cent=   0 AccDes= 0.00D+00.
 End of G2Drv F.D. properties file   721 does not exist.
 End of G2Drv F.D. properties file   722 does not exist.
 End of G2Drv F.D. properties file   788 does not exist.
          IDoAtm=1111111111111111111
          Differentiating once with respect to nuclear coordinates.
          There are    60 degrees of freedom in the 1st order CPHF.  IDoFFX=6 NUNeed=     0.
     54 vectors produced by pass  0 Test12= 6.77D-15 1.67D-09 XBig12= 2.12D-01 9.34D-02.
 AX will form    54 AO Fock derivatives at one time.
     54 vectors produced by pass  1 Test12= 6.77D-15 1.67D-09 XBig12= 2.30D-02 2.50D-02.
     54 vectors produced by pass  2 Test12= 6.77D-15 1.67D-09 XBig12= 3.78D-04 3.06D-03.
     54 vectors produced by pass  3 Test12= 6.77D-15 1.67D-09 XBig12= 1.00D-06 9.84D-05.
     54 vectors produced by pass  4 Test12= 6.77D-15 1.67D-09 XBig12= 1.19D-09 4.18D-06.
     35 vectors produced by pass  5 Test12= 6.77D-15 1.67D-09 XBig12= 9.89D-13 1.03D-07.
      4 vectors produced by pass  6 Test12= 6.77D-15 1.67D-09 XBig12= 3.33D-15 9.18D-09.
 InvSVY:  IOpt=1 It=  1 EMax= 5.55D-16
 Solved reduced A of dimension   309 with    60 vectors.
 End of Minotr F.D. properties file   721 does not exist.
 End of Minotr F.D. properties file   722 does not exist.
 End of Minotr F.D. properties file   788 does not exist.

 **********************************************************************

            Population analysis using the SCF density.

 **********************************************************************

 Orbital symmetries:
       Occupied  (A) (A) (A) (A) (A) (A) (A) (A) (A) (A) (A) (A)
                 (A) (A) (A) (A) (A) (A) (A) (A) (A) (A) (A) (A)
                 (A) (A) (A) (A) (A) (A) (A) (A) (A)
       Virtual   (A) (A) (A) (A) (A) (A) (A) (A) (A) (A) (A) (A)
                 (A) (A) (A) (A) (A) (A) (A) (A) (A) (A) (A) (A)
                 (A) (A) (A) (A) (A) (A) (A) (A) (A) (A) (A) (A)
                 (A) (A) (A) (A) (A) (A) (A) (A) (A) (A) (A) (A)
                 (A) (A) (A) (A) (A) (A) (A) (A) (A) (A) (A) (A)
                 (A) (A) (A) (A) (A) (A) (A) (A) (A) (A) (A) (A)
                 (A) (A) (A) (A) (A) (A) (A) (A) (A) (A) (A) (A)
                 (A) (A) (A) (A) (A) (A) (A) (A) (A) (A) (A) (A)
                 (A) (A) (A) (A) (A) (A) (A) (A) (A) (A) (A) (A)
                 (A) (A) (A) (A) (A) (A) (A) (A) (A) (A) (A) (A)
                 (A) (A) (A)
 The electronic state is 1-A.
 Alpha  occ. eigenvalues --  -19.20090 -19.19596 -19.11994 -10.33915 -10.25545
 Alpha  occ. eigenvalues --  -10.25075 -10.19304  -1.08806  -1.04469  -1.00530
 Alpha  occ. eigenvalues --   -0.81311  -0.74495  -0.71892  -0.70634  -0.57661
 Alpha  occ. eigenvalues --   -0.55314  -0.54132  -0.50001  -0.48395  -0.47329
 Alpha  occ. eigenvalues --   -0.46338  -0.44998  -0.43806  -0.42129  -0.40934
 Alpha  occ. eigenvalues --   -0.38859  -0.37492  -0.36118  -0.31051  -0.29710
 Alpha  occ. eigenvalues --   -0.28770  -0.26945  -0.26393
 Alpha virt. eigenvalues --   -0.00834   0.00914   0.01145   0.02142   0.03241
 Alpha virt. eigenvalues --    0.03623   0.04509   0.05171   0.06594   0.07315
 Alpha virt. eigenvalues --    0.07972   0.08098   0.09323   0.10031   0.11252
 Alpha virt. eigenvalues --    0.11605   0.13231   0.15054   0.15903   0.16268
 Alpha virt. eigenvalues --    0.16735   0.17599   0.18533   0.19311   0.19898
 Alpha virt. eigenvalues --    0.20409   0.20939   0.22095   0.23516   0.24698
 Alpha virt. eigenvalues --    0.25465   0.26589   0.28957   0.29474   0.29974
 Alpha virt. eigenvalues --    0.31057   0.32291   0.32735   0.33791   0.35344
 Alpha virt. eigenvalues --    0.36332   0.39005   0.39321   0.44794   0.49939
 Alpha virt. eigenvalues --    0.58886   0.62349   0.63333   0.64370   0.67746
 Alpha virt. eigenvalues --    0.68522   0.70201   0.71847   0.74763   0.75558
 Alpha virt. eigenvalues --    0.79329   0.81728   0.88205   0.88657   0.90327
 Alpha virt. eigenvalues --    0.90791   0.92531   0.93617   0.96561   0.98589
 Alpha virt. eigenvalues --    0.99675   1.02386   1.04180   1.06678   1.09789
 Alpha virt. eigenvalues --    1.11875   1.18301   1.19001   1.21466   1.22720
 Alpha virt. eigenvalues --    1.24678   1.28120   1.30441   1.33020   1.34234
 Alpha virt. eigenvalues --    1.36198   1.41785   1.43889   1.48123   1.49404
 Alpha virt. eigenvalues --    1.54258   1.55341   1.60918   1.62027   1.65053
 Alpha virt. eigenvalues --    1.70119   1.73528   1.78096   1.80297   1.81988
 Alpha virt. eigenvalues --    1.83959   1.94804   1.97994   2.00123   2.02814
 Alpha virt. eigenvalues --    2.03655   2.09823   2.10690   2.13634   2.15409
 Alpha virt. eigenvalues --    2.18039   2.21568   2.24123   2.27431   2.29621
 Alpha virt. eigenvalues --    2.30007   2.33957   2.34632   2.41837   2.49960
 Alpha virt. eigenvalues --    2.54884   2.63415   2.75276   2.81198   2.83475
 Alpha virt. eigenvalues --    2.88860   3.06481  10.76283
          Condensed to atoms (all electrons):
               1          2          3          4          5          6
     1  C    6.599324  -0.147755  -0.005348  -0.028888  -0.001145  -1.200797
     2  C   -0.147755   5.250699   0.396440   0.416421   0.389283   0.045638
     3  H   -0.005348   0.396440   0.505864  -0.030242  -0.023588   0.002919
     4  H   -0.028888   0.416421  -0.030242   0.505006  -0.032906   0.001378
     5  H   -0.001145   0.389283  -0.023588  -0.032906   0.495565  -0.000257
     6  C   -1.200797   0.045638   0.002919   0.001378  -0.000257   7.179640
     7  H   -0.076277   0.001663   0.000000   0.000012  -0.000010   0.419908
     8  H   -0.107155  -0.003226  -0.000001   0.000151   0.000675   0.441446
     9  H    0.066855   0.003962   0.000056   0.000104  -0.001236   0.275721
    10  O   -0.032582   0.052854  -0.045108  -0.072219  -0.038043  -0.067656
    11  O    0.033434   0.007997  -0.000658   0.000678  -0.001354  -0.020199
    12  C   -0.002471  -0.018855  -0.001005  -0.003494   0.001711  -0.012621
    13  H    0.000185  -0.001747   0.000089   0.000029   0.000001   0.000019
    14  H   -0.000618   0.001986   0.000009   0.000008  -0.000001  -0.000032
    15  H   -0.005271  -0.000753  -0.000261   0.001163   0.000037   0.000693
    16  H   -0.026613   0.000103  -0.000004   0.000208   0.000019   0.027527
    17  H   -0.007381  -0.014524  -0.002583  -0.000086   0.001320   0.006627
    18  Cl   0.588492   0.004084  -0.000127   0.000002   0.000038  -0.176033
    19  O    0.348854   0.011926  -0.000809   0.016335  -0.002347  -0.222283
               7          8          9         10         11         12
     1  C   -0.076277  -0.107155   0.066855  -0.032582   0.033434  -0.002471
     2  C    0.001663  -0.003226   0.003962   0.052854   0.007997  -0.018855
     3  H    0.000000  -0.000001   0.000056  -0.045108  -0.000658  -0.001005
     4  H    0.000012   0.000151   0.000104  -0.072219   0.000678  -0.003494
     5  H   -0.000010   0.000675  -0.001236  -0.038043  -0.001354   0.001711
     6  C    0.419908   0.441446   0.275721  -0.067656  -0.020199  -0.012621
     7  H    0.456798  -0.023543  -0.023272   0.007505   0.000082  -0.000167
     8  H   -0.023543   0.478630  -0.030861   0.000508   0.000430  -0.000138
     9  H   -0.023272  -0.030861   0.495787  -0.006272  -0.000028   0.000133
    10  O    0.007505   0.000508  -0.006272   8.850566  -0.057457   0.019364
    11  O    0.000082   0.000430  -0.000028  -0.057457   8.790178   0.045342
    12  C   -0.000167  -0.000138   0.000133   0.019364   0.045342   5.147700
    13  H    0.000000   0.000000   0.000000  -0.000932  -0.040963   0.395469
    14  H    0.000000   0.000000   0.000000  -0.001038  -0.041024   0.389890
    15  H    0.000000  -0.000001   0.000001   0.001203  -0.083381   0.406625
    16  H   -0.000031  -0.000089  -0.000010  -0.007139   0.076675  -0.003523
    17  H   -0.000069   0.000063  -0.000041   0.122768   0.091122  -0.010169
    18  Cl  -0.004911  -0.000872   0.003561  -0.122767   0.000006  -0.006303
    19  O   -0.003584   0.007943  -0.007569  -0.144616  -0.098612   0.016778
              13         14         15         16         17         18
     1  C    0.000185  -0.000618  -0.005271  -0.026613  -0.007381   0.588492
     2  C   -0.001747   0.001986  -0.000753   0.000103  -0.014524   0.004084
     3  H    0.000089   0.000009  -0.000261  -0.000004  -0.002583  -0.000127
     4  H    0.000029   0.000008   0.001163   0.000208  -0.000086   0.000002
     5  H    0.000001  -0.000001   0.000037   0.000019   0.001320   0.000038
     6  C    0.000019  -0.000032   0.000693   0.027527   0.006627  -0.176033
     7  H    0.000000   0.000000   0.000000  -0.000031  -0.000069  -0.004911
     8  H    0.000000   0.000000  -0.000001  -0.000089   0.000063  -0.000872
     9  H    0.000000   0.000000   0.000001  -0.000010  -0.000041   0.003561
    10  O   -0.000932  -0.001038   0.001203  -0.007139   0.122768  -0.122767
    11  O   -0.040963  -0.041024  -0.083381   0.076675   0.091122   0.000006
    12  C    0.395469   0.389890   0.406625  -0.003523  -0.010169  -0.006303
    13  H    0.498621  -0.024402  -0.032790   0.002111  -0.003055   0.000005
    14  H   -0.024402   0.496087  -0.030367  -0.003546   0.001797   0.000003
    15  H   -0.032790  -0.030367   0.531621   0.001868   0.001207  -0.000019
    16  H    0.002111  -0.003546   0.001868   0.279174  -0.004877  -0.004493
    17  H   -0.003055   0.001797   0.001207  -0.004877   0.266855  -0.003747
    18  Cl   0.000005   0.000003  -0.000019  -0.004493  -0.003747   6.835857
    19  O   -0.000743  -0.000082   0.005510   0.127508  -0.006827  -0.130769
              19
     1  C    0.348854
     2  C    0.011926
     3  H   -0.000809
     4  H    0.016335
     5  H   -0.002347
     6  C   -0.222283
     7  H   -0.003584
     8  H    0.007943
     9  H   -0.007569
    10  O   -0.144616
    11  O   -0.098612
    12  C    0.016778
    13  H   -0.000743
    14  H   -0.000082
    15  H    0.005510
    16  H    0.127508
    17  H   -0.006827
    18  Cl  -0.130769
    19  O    8.550278
 Mulliken charges:
               1
     1  C    0.005156
     2  C   -0.396198
     3  H    0.204358
     4  H    0.226338
     5  H    0.212238
     6  C   -0.701639
     7  H    0.245895
     8  H    0.236039
     9  H    0.223108
    10  O   -0.458940
    11  O   -0.702268
    12  C   -0.364265
    13  H    0.208102
    14  H    0.211329
    15  H    0.202914
    16  H    0.535132
    17  H    0.561601
    18  Cl   0.017992
    19  O   -0.466892
 Sum of Mulliken charges =   0.00000
 Mulliken charges with hydrogens summed into heavy atoms:
               1
     1  C    0.005156
     2  C    0.246736
     6  C    0.003403
    10  O   -0.458940
    11  O    0.394464
    12  C    0.258080
    18  Cl   0.017992
    19  O   -0.466892
 APT charges:
               1
     1  C   -0.202168
     2  C   -1.348255
     3  H    0.522824
     4  H    0.353398
     5  H    0.511467
     6  C   -1.441646
     7  H    0.602559
     8  H    0.489855
     9  H    0.492355
    10  O   -0.143069
    11  O   -0.328090
    12  C   -1.483108
    13  H    0.542680
    14  H    0.627292
    15  H    0.291524
    16  H    0.495170
    17  H    0.510285
    18  Cl   0.002636
    19  O   -0.495709
 Sum of APT charges =   0.00000
 APT charges with hydrogens summed into heavy atoms:
               1
     1  C   -0.202168
     2  C    0.039433
     6  C    0.143123
    10  O   -0.143069
    11  O    0.677365
    12  C   -0.021611
    18  Cl   0.002636
    19  O   -0.495709
 Electronic spatial extent (au):  <R**2>=           1190.8419
 Charge=              0.0000 electrons
 Dipole moment (field-independent basis, Debye):
    X=             -3.0405    Y=              4.1427    Z=             -0.2577  Tot=              5.1452
 Quadrupole moment (field-independent basis, Debye-Ang):
   XX=            -46.4591   YY=            -56.2167   ZZ=            -61.4162
   XY=              2.8310   XZ=              1.1786   YZ=             -2.5483
 Traceless Quadrupole moment (field-independent basis, Debye-Ang):
   XX=              8.2382   YY=             -1.5193   ZZ=             -6.7189
   XY=              2.8310   XZ=              1.1786   YZ=             -2.5483
 Octapole moment (field-independent basis, Debye-Ang**2):
  XXX=            -24.0573  YYY=              6.6739  ZZZ=             -9.1742  XYY=             -2.6035
  XXY=              3.3141  XXZ=              6.2026  XZZ=             -4.9338  YZZ=             -1.5746
  YYZ=             -0.5908  XYZ=              3.6006
 Hexadecapole moment (field-independent basis, Debye-Ang**3):
 XXXX=           -891.4373 YYYY=           -514.9108 ZZZZ=           -247.4589 XXXY=             15.5720
 XXXZ=              0.4478 YYYX=             -2.4497 YYYZ=             -3.8142 ZZZX=             -0.2098
 ZZZY=             -0.2249 XXYY=           -254.7597 XXZZ=           -189.5666 YYZZ=           -120.7785
 XXYZ=             -8.9867 YYXZ=             -5.2924 ZZXY=              0.5255
 N-N= 4.177327370508D+02 E-N=-1.765707729381D+03  KE= 3.877273065754D+02
  Exact polarizability:   0.000   0.000   0.000   0.000   0.000   0.000
 Approx polarizability: 104.871  -3.105 109.736  -4.797   6.743 102.424
   1 Symmetry operations used in ECPInt.
 ECPInt:  NShTT=    1891 NPrTT=    9206 LenC2=    1874 LenP2D=    6749.
 LDataN:  DoStor=T MaxTD1= 6 Len=  172
 Calling FoFJK, ICntrl=    100147 FMM=F ISym2X=0 I1Cent= 0 IOpClX= 0 NMat=1 NMatS=1 NMatT=0.
 ***** Axes restored to original set *****
 -------------------------------------------------------------------
 Center     Atomic                   Forces (Hartrees/Bohr)
 Number     Number              X              Y              Z
 -------------------------------------------------------------------
      1        6          -0.034518756    0.000235560    0.000880885
      2        6           0.008318727   -0.007242300   -0.004016667
      3        1           0.000237418    0.003201845    0.002218634
      4        1          -0.001070241    0.001582198   -0.000519804
      5        1          -0.004020338    0.002898293    0.000847973
      6        6           0.019236363    0.010324502    0.004333691
      7        1          -0.007364696    0.001137237   -0.002340116
      8        1          -0.003646907   -0.002425839    0.002760391
      9        1          -0.002995910   -0.002304175   -0.001082043
     10        8          -0.018863625    0.011207584   -0.018183997
     11        8           0.009416688    0.011110383    0.014625862
     12        6           0.003227541   -0.012724018   -0.004909748
     13        1          -0.002428996    0.001993098    0.004378445
     14        1          -0.002079617    0.004822978   -0.001341422
     15        1          -0.001382428    0.000973436    0.000334308
     16        1          -0.006152582    0.013619950   -0.035448243
     17        1           0.013937584   -0.009598663    0.018583444
     18       17           0.016583962   -0.027086746   -0.011232013
     19        8           0.013565815   -0.001725324    0.030110420
 -------------------------------------------------------------------
 Cartesian Forces:  Max     0.035448243 RMS     0.011705019
 FormGI is forming the generalized inverse of G from B-inverse, IUseBI=4.

 GradGradGradGradGradGradGradGradGradGradGradGradGradGradGradGradGradGrad
 Berny optimization.
 Internal  Forces:  Max     0.032129185 RMS     0.006776022
 Search for a saddle point.
 Step number   1 out of a maximum of   99
 All quantities printed in internal units (Hartrees-Bohrs-Radians)
 Swapping is turned off.
 Second derivative matrix not updated -- analytic derivatives used.
 ITU=  0
     Eigenvalues ---   -0.05327   0.00175   0.00242   0.00269   0.00309
     Eigenvalues ---    0.00392   0.00627   0.01217   0.02430   0.03025
     Eigenvalues ---    0.03415   0.04423   0.04597   0.05435   0.06315
     Eigenvalues ---    0.06443   0.06537   0.06584   0.06620   0.07484
     Eigenvalues ---    0.08290   0.10595   0.11445   0.12420   0.12735
     Eigenvalues ---    0.13750   0.13894   0.13923   0.14606   0.14876
     Eigenvalues ---    0.17324   0.18269   0.18601   0.18770   0.18922
     Eigenvalues ---    0.19127   0.19571   0.21333   0.32411   0.32592
     Eigenvalues ---    0.32847   0.33316   0.33441   0.33761   0.33870
     Eigenvalues ---    0.33954   0.34084   0.34179   0.35860   0.36322
     Eigenvalues ---    0.59026
 Eigenvectors required to have negative eigenvalues:
                          R12       R15       R19       R2        R14
   1                    0.58476  -0.57576  -0.39275  -0.25519   0.23011
                          A31       R4        D16       A32       A3
   1                    0.08246   0.07980   0.06559  -0.06160  -0.06082
 RFO step:  Lambda0=5.604647166D-04 Lambda=-2.65693913D-02.
 Linear search not attempted -- option 19 set.
 Maximum step size (   0.300) exceeded in Quadratic search.
    -- Step size scaled by   0.701
 Iteration  1 RMS(Cart)=  0.03260356 RMS(Int)=  0.00177843
 Iteration  2 RMS(Cart)=  0.00209653 RMS(Int)=  0.00057993
 Iteration  3 RMS(Cart)=  0.00000498 RMS(Int)=  0.00057991
 Iteration  4 RMS(Cart)=  0.00000000 RMS(Int)=  0.00057991
 Variable       Old X    -DE/DX   Delta X   Delta X   Delta X     New X
                                 (Linear)    (Quad)   (Total)
    R1        2.82221   0.00845   0.00000   0.02167   0.02167   2.84388
    R2        3.03373   0.01192   0.00000   0.00639   0.00667   3.04040
    R3        3.52364   0.03213   0.00000   0.12761   0.12761   3.65126
    R4        2.38880   0.00232   0.00000  -0.00722  -0.00684   2.38196
    R5        2.06774  -0.00117   0.00000  -0.00068  -0.00068   2.06706
    R6        2.06929   0.00012   0.00000   0.00224   0.00224   2.07153
    R7        2.07027  -0.00171   0.00000  -0.00229  -0.00229   2.06798
    R8        2.73870  -0.00074   0.00000  -0.01367  -0.01367   2.72503
    R9        2.08721  -0.00685   0.00000  -0.01480  -0.01480   2.07241
   R10        2.07925  -0.00452   0.00000  -0.00995  -0.00995   2.06930
   R11        2.07635  -0.00195   0.00000  -0.00389  -0.00389   2.07246
   R12        2.43927  -0.01295   0.00000   0.01822   0.01745   2.45672
   R13        2.74210  -0.00006   0.00000  -0.00425  -0.00425   2.73785
   R14        2.11318  -0.02069   0.00000  -0.10239  -0.10232   2.01086
   R15        2.40149  -0.01232   0.00000  -0.15407  -0.15489   2.24660
   R16        2.07074  -0.00240   0.00000  -0.00583  -0.00583   2.06491
   R17        2.07353  -0.00294   0.00000  -0.00700  -0.00700   2.06653
   R18        2.06650   0.00083   0.00000   0.00126   0.00126   2.06776
   R19        2.85981   0.00099   0.00000   0.05378   0.05441   2.91421
    A1        1.90747  -0.00278   0.00000  -0.00445  -0.00548   1.90199
    A2        1.89804  -0.00380   0.00000  -0.02433  -0.02453   1.87350
    A3        2.15905  -0.00874   0.00000  -0.02791  -0.02798   2.13107
    A4        1.63415   0.00634   0.00000   0.01692   0.01707   1.65122
    A5        1.82590   0.00734   0.00000   0.04749   0.04866   1.87456
    A6        1.96302   0.00608   0.00000   0.00904   0.00699   1.97001
    A7        1.95507  -0.00346   0.00000  -0.01905  -0.01910   1.93597
    A8        1.92311  -0.00396   0.00000  -0.01395  -0.01422   1.90889
    A9        1.84805   0.00427   0.00000   0.01475   0.01460   1.86265
   A10        1.93983  -0.00318   0.00000  -0.01306  -0.01324   1.92659
   A11        1.92695   0.00063   0.00000   0.00821   0.00810   1.93505
   A12        1.86664   0.00652   0.00000   0.02665   0.02644   1.89308
   A13        1.92063  -0.00395   0.00000  -0.01841  -0.01857   1.90207
   A14        1.95623  -0.00179   0.00000  -0.00571  -0.00576   1.95047
   A15        1.94869  -0.00358   0.00000  -0.02356  -0.02375   1.92495
   A16        1.86478   0.00341   0.00000   0.01934   0.01933   1.88411
   A17        1.86634   0.00343   0.00000   0.01587   0.01557   1.88192
   A18        1.90312   0.00305   0.00000   0.01548   0.01540   1.91852
   A19        1.99298   0.00311   0.00000  -0.00556  -0.00499   1.98800
   A20        1.75472  -0.01098   0.00000  -0.04146  -0.04098   1.71374
   A21        1.87995   0.00637   0.00000   0.02812   0.02688   1.90684
   A22        1.89342   0.00203   0.00000   0.02405   0.02441   1.91783
   A23        1.92212   0.00625   0.00000   0.04794   0.04753   1.96965
   A24        1.65606  -0.00298   0.00000  -0.03534  -0.03622   1.61985
   A25        1.84520   0.00630   0.00000   0.01794   0.01786   1.86306
   A26        1.86189   0.00600   0.00000   0.01406   0.01397   1.87586
   A27        1.93715  -0.00023   0.00000  -0.00234  -0.00234   1.93481
   A28        1.92533  -0.00413   0.00000  -0.00704  -0.00723   1.91810
   A29        1.95318  -0.00372   0.00000  -0.01193  -0.01194   1.94125
   A30        1.93692  -0.00334   0.00000  -0.00832  -0.00832   1.92859
   A31        2.36786   0.01536   0.00000   0.08838   0.08924   2.45709
   A32        2.63774   0.00825   0.00000   0.06129   0.06024   2.69799
   A33        1.92659  -0.02006   0.00000  -0.09075  -0.09075   1.83584
    D1       -2.78837  -0.00202   0.00000  -0.00271  -0.00248  -2.79085
    D2       -0.71590  -0.00150   0.00000   0.00570   0.00583  -0.71007
    D3        1.42517  -0.00147   0.00000   0.00436   0.00445   1.42962
    D4       -1.02678   0.00244   0.00000   0.00443   0.00440  -1.02238
    D5        1.04569   0.00295   0.00000   0.01283   0.01271   1.05841
    D6       -3.09642   0.00299   0.00000   0.01149   0.01133  -3.08509
    D7        1.33585  -0.00245   0.00000  -0.04429  -0.04426   1.29159
    D8       -2.87486  -0.00193   0.00000  -0.03588  -0.03595  -2.91082
    D9       -0.73379  -0.00189   0.00000  -0.03722  -0.03733  -0.77113
   D10       -1.04352   0.00342   0.00000   0.01197   0.01220  -1.03133
   D11       -3.05088   0.00106   0.00000   0.00547   0.00627  -3.04462
   D12       -2.98628   0.00555   0.00000   0.03236   0.03300  -2.95327
   D13        1.28955   0.00319   0.00000   0.02586   0.02707   1.31663
   D14        1.30107  -0.00421   0.00000   0.00862   0.00920   1.31027
   D15       -0.70629  -0.00657   0.00000   0.00212   0.00327  -0.70302
   D16        3.08486  -0.00605   0.00000  -0.04371  -0.04270   3.04216
   D17        0.89001  -0.00244   0.00000  -0.06286  -0.06080   0.82921
   D18       -0.86043  -0.01513   0.00000  -0.10735  -0.10669  -0.96712
   D19       -2.90298   0.00452   0.00000   0.01989   0.02003  -2.88294
   D20       -0.97040  -0.00335   0.00000  -0.01621  -0.01617  -0.98656
   D21       -0.78329   0.00331   0.00000   0.01053   0.01053  -0.77276
   D22        1.14929  -0.00455   0.00000  -0.02556  -0.02567   1.12362
   D23        1.32938   0.00385   0.00000   0.01590   0.01591   1.34529
   D24       -3.02123  -0.00402   0.00000  -0.02020  -0.02029  -3.04151
   D25        0.22933   0.00099   0.00000   0.00006   0.00074   0.23007
   D26       -1.86155   0.00018   0.00000   0.01480   0.01571  -1.84583
   D27        2.99201  -0.00063   0.00000  -0.00989  -0.01000   2.98201
   D28       -1.24146   0.00052   0.00000  -0.00264  -0.00258  -1.24404
   D29        0.87062   0.00008   0.00000  -0.00530  -0.00532   0.86530
   D30        1.20127  -0.00078   0.00000  -0.00056  -0.00061   1.20066
   D31       -3.03219   0.00037   0.00000   0.00670   0.00680  -3.02539
   D32       -0.92012  -0.00007   0.00000   0.00404   0.00406  -0.91606
   D33       -1.80721  -0.00178   0.00000  -0.02152  -0.02201  -1.82922
   D34        0.16722   0.00426   0.00000   0.02182   0.02022   0.18744
   D35        2.00645   0.00216   0.00000   0.00795   0.00756   2.01401
   D36        0.05639  -0.00026   0.00000  -0.01457  -0.01403   0.04235
   D37       -0.76184  -0.00093   0.00000   0.02862   0.02748  -0.73436
         Item               Value     Threshold  Converged?
 Maximum Force            0.032129     0.000450     NO 
 RMS     Force            0.006776     0.000300     NO 
 Maximum Displacement     0.113451     0.001800     NO 
 RMS     Displacement     0.032487     0.001200     NO 
 Predicted change in Energy=-1.334383D-02
 GradGradGradGradGradGradGradGradGradGradGradGradGradGradGradGradGradGrad

                          Input orientation:                          
 ---------------------------------------------------------------------
 Center     Atomic      Atomic             Coordinates (Angstroms)
 Number     Number       Type             X           Y           Z
 ---------------------------------------------------------------------
      1          6           0        0.867596    0.115369    0.425902
      2          6           0       -0.385164    2.087823   -0.617288
      3          1           0       -1.169147    2.290280   -1.352724
      4          1           0       -0.749575    2.262947    0.401637
      5          1           0        0.481448    2.722452   -0.826531
      6          6           0        2.116255    0.939335    0.589328
      7          1           0        2.858743    0.355156    1.146229
      8          1           0        2.554481    1.208226   -0.377488
      9          1           0        1.900582    1.846230    1.167061
     10          8           0        0.003951    0.710597   -0.794103
     11          8           0       -1.743427   -0.828105   -0.105307
     12          6           0       -3.040300   -0.276604    0.230858
     13          1           0       -3.574461   -0.131380   -0.711260
     14          1           0       -3.562480   -1.015809    0.844681
     15          1           0       -2.933325    0.666634    0.775065
     16          1           0       -1.121591   -0.842846    0.758070
     17          1           0       -1.042774   -0.050122   -0.668503
     18         17           0        1.362717   -1.501570   -0.508770
     19          8           0        0.073950   -0.095034    1.382282
 ---------------------------------------------------------------------
                    Distance matrix (angstroms):
                    1          2          3          4          5
     1  C    0.000000
     2  C    2.558951   0.000000
     3  H    3.470169   1.093839   0.000000
     4  H    2.688479   1.096208   1.804043   0.000000
     5  H    2.917976   1.094328   1.785530   1.798600   0.000000
     6  C    1.504918   3.005337   4.048518   3.162303   2.802992
     7  H    2.130970   4.078611   5.119900   4.148981   3.891967
     8  H    2.164568   3.077777   3.998417   3.554752   2.606144
     9  H    2.147617   2.909795   3.996216   2.789778   2.599254
    10  O    1.608910   1.442022   2.045389   2.099377   2.067998
    11  O    2.826618   3.257244   3.407370   3.286234   4.251669
    12  C    3.932345   3.655081   3.549344   3.424311   4.745010
    13  H    4.591938   3.886555   3.472959   3.866694   4.960650
    14  H    4.591352   4.676026   4.635392   4.342691   5.755076
    15  H    3.856528   3.232885   3.205626   2.730646   4.295599
    16  H    2.232796   3.320054   3.778120   3.148236   4.218062
    17  H    2.207855   2.237383   2.441641   2.565434   3.167869
    18  Cl   1.932162   3.993822   4.636888   4.411599   4.326659
    19  O    1.260478   2.995653   3.836050   2.683269   3.603213
                    6          7          8          9         10
     6  C    0.000000
     7  H    1.096673   0.000000
     8  H    1.095024   1.772573   0.000000
     9  H    1.096699   1.772515   1.794510   0.000000
    10  O    2.535357   3.470023   2.631807   2.955171   0.000000
    11  O    4.301571   4.913900   4.763690   4.695721   2.428039
    12  C    5.310092   6.002977   5.820342   5.458500   3.360443
    13  H    5.934831   6.713650   6.282506   6.116791   3.677067
    14  H    6.011308   6.572867   6.622480   6.175779   4.287834
    15  H    5.060348   5.812300   5.633624   4.991169   3.330437
    16  H    3.699769   4.174798   4.360034   4.065949   2.467645
    17  H    3.541275   4.321959   3.822090   3.953327   1.300039
    18  Cl   2.780586   2.902507   2.963196   3.782258   2.611771
    19  O    2.422748   2.830806   3.308823   2.674213   2.321765
                   11         12         13         14         15
    11  O    0.000000
    12  C    1.448807   0.000000
    13  H    2.050680   1.092705   0.000000
    14  H    2.060743   1.093561   1.789780   0.000000
    15  H    2.103605   1.094213   1.804727   1.797581   0.000000
    16  H    1.064104   2.068823   2.946470   2.448541   2.358219
    17  H    1.188849   2.202330   2.533352   3.093735   2.484312
    18  Cl   3.203821   4.629704   5.127783   5.130824   4.980494
    19  O    2.460320   3.325252   4.206560   3.789520   3.161100
                   16         17         18         19
    16  H    0.000000
    17  H    1.633932   0.000000
    18  Cl   2.865413   2.814002   0.000000
    19  O    1.542136   2.335553   2.686139   0.000000
 Stoichiometry    C4H11ClO3
 Framework group  C1[X(C4H11ClO3)]
 Deg. of freedom    51
 Full point group                 C1      NOp   1
 Largest Abelian subgroup         C1      NOp   1
 Largest concise Abelian subgroup C1      NOp   1
                         Standard orientation:                         
 ---------------------------------------------------------------------
 Center     Atomic      Atomic             Coordinates (Angstroms)
 Number     Number       Type             X           Y           Z
 ---------------------------------------------------------------------
      1          6           0        0.852275    0.152918    0.423579
      2          6           0       -0.457650    2.080547   -0.633103
      3          1           0       -1.246808    2.254885   -1.370205
      4          1           0       -0.827741    2.251474    0.384487
      5          1           0        0.389932    2.739169   -0.846117
      6          6           0        2.075892    1.014541    0.582154
      7          1           0        2.834988    0.456259    1.143211
      8          1           0        2.506589    1.289950   -0.386210
      9          1           0        1.833097    1.918418    1.153823
     10          8           0       -0.027824    0.714315   -0.800697
     11          8           0       -1.729333   -0.870898   -0.102601
     12          6           0       -3.042179   -0.355843    0.229353
     13          1           0       -3.579798   -0.232669   -0.713939
     14          1           0       -3.542644   -1.106147    0.847781
     15          1           0       -2.963522    0.593692    0.767403
     16          1           0       -1.107890   -0.861570    0.761134
     17          1           0       -1.051653   -0.076219   -0.670576
     18         17           0        1.395645   -1.454741   -0.500235
     19          8           0        0.064590   -0.074620    1.380962
 ---------------------------------------------------------------------
 Rotational constants (GHZ):      1.9848940      1.2125093      0.9496012
 Basis read from rwf:  (5D, 7F)
 Pseudo-potential data read from rwf file.
 There are   163 symmetry adapted cartesian basis functions of A   symmetry.
 There are   156 symmetry adapted basis functions of A   symmetry.
   156 basis functions,   280 primitive gaussians,   163 cartesian basis functions
    33 alpha electrons       33 beta electrons
       nuclear repulsion energy       416.8808692182 Hartrees.
 NAtoms=   19 NActive=   19 NUniq=   19 SFac= 1.00D+00 NAtFMM=   60 NAOKFM=F Big=F
 Integral buffers will be    131072 words long.
 Raffenetti 2 integral format.
 Two-electron integral symmetry is turned on.
 One-electron integrals computed using PRISM.
   1 Symmetry operations used in ECPInt.
 ECPInt:  NShTT=    1891 NPrTT=    9206 LenC2=    1873 LenP2D=    6742.
 LDataN:  DoStor=T MaxTD1= 4 Len=   56
 NBasis=   156 RedAO= T EigKep=  7.16D-05  NBF=   156
 NBsUse=   156 1.00D-06 EigRej= -1.00D+00 NBFU=   156
 Initial guess from the checkpoint file:  "/lustre/SCRATCH5/gau/Gau-6283.chk"
 B after Tr=     0.000000    0.000000    0.000000
         Rot=    0.999895    0.004253    0.000397   -0.013839 Ang=   1.66 deg.
 ExpMin= 4.38D-02 ExpMax= 5.48D+03 ExpMxC= 8.25D+02 IAcc=2 IRadAn=         4 AccDes= 0.00D+00
 Harris functional with IExCor=  402 and IRadAn=       4 diagonalized for initial guess.
 HarFok:  IExCor=  402 AccDes= 0.00D+00 IRadAn=         4 IDoV= 1 UseB2=F ITyADJ=14
 ICtDFT=  3500011 ScaDFX=  1.000000  1.000000  1.000000  1.000000
 FoFCou: FMM=F IPFlag=           0 FMFlag=      100000 FMFlg1=           0
         NFxFlg=           0 DoJE=T BraDBF=F KetDBF=T FulRan=T
         wScrn=  0.000000 ICntrl=     500 IOpCl=  0 I1Cent=   200000004 NGrid=           0
         NMat0=    1 NMatS0=      1 NMatT0=    0 NMatD0=    1 NMtDS0=    0 NMtDT0=    0
 Petite list used in FoFCou.
 Requested convergence on RMS density matrix=1.00D-08 within 128 cycles.
 Requested convergence on MAX density matrix=1.00D-06.
 Requested convergence on             energy=1.00D-06.
 No special actions if energy rises.
 SCF Done:  E(RB3LYP) =  -399.623499590     A.U. after   12 cycles
            NFock= 12  Conv=0.46D-08     -V/T= 2.0305
   1 Symmetry operations used in ECPInt.
 ECPInt:  NShTT=    1891 NPrTT=    9206 LenC2=    1873 LenP2D=    6742.
 LDataN:  DoStor=T MaxTD1= 5 Len=  102
 Calling FoFJK, ICntrl=      2127 FMM=F ISym2X=0 I1Cent= 0 IOpClX= 0 NMat=1 NMatS=1 NMatT=0.
 ***** Axes restored to original set *****
 -------------------------------------------------------------------
 Center     Atomic                   Forces (Hartrees/Bohr)
 Number     Number              X              Y              Z
 -------------------------------------------------------------------
      1        6          -0.017056172    0.004555525    0.002590942
      2        6           0.004296197   -0.003164146   -0.001484173
      3        1           0.000002532    0.001366324    0.000879373
      4        1          -0.000628508    0.000767491   -0.000255505
      5        1          -0.001582580    0.001288691    0.000437572
      6        6           0.007994039    0.003843669    0.001239627
      7        1          -0.002896330    0.000383821   -0.000322318
      8        1          -0.001248283   -0.001080581    0.000910337
      9        1          -0.001356404   -0.000737056   -0.000598326
     10        8          -0.007434889    0.005018594   -0.008741096
     11        8          -0.000322986    0.003377374    0.004506031
     12        6           0.001287169   -0.005336199   -0.002006741
     13        1          -0.000907547    0.000853886    0.001607703
     14        1          -0.000839153    0.001787649   -0.000399946
     15        1          -0.000590570    0.000335283    0.000104177
     16        1          -0.002376304    0.006493796   -0.012201852
     17        1           0.006749425   -0.003640489    0.006737423
     18       17           0.008336521   -0.013109018   -0.005677386
     19        8           0.008573843   -0.003004615    0.012674158
 -------------------------------------------------------------------
 Cartesian Forces:  Max     0.017056172 RMS     0.005132308

 GradGradGradGradGradGradGradGradGradGradGradGradGradGradGradGradGradGrad
 Berny optimization.
 FormGI is forming the generalized inverse of G from B-inverse, IUseBI=4.
 Internal  Forces:  Max     0.015851949 RMS     0.002869039
 Search for a saddle point.
 Step number   2 out of a maximum of   99
 All quantities printed in internal units (Hartrees-Bohrs-Radians)
 Swapping is turned off.
 Update second derivatives using D2CorX and points    1    2
 ITU=  0  0
     Eigenvalues ---   -0.05238   0.00176   0.00249   0.00270   0.00333
     Eigenvalues ---    0.00414   0.00770   0.01302   0.02474   0.03094
     Eigenvalues ---    0.03358   0.04422   0.04597   0.05469   0.06271
     Eigenvalues ---    0.06442   0.06545   0.06579   0.06617   0.07500
     Eigenvalues ---    0.08543   0.10585   0.11507   0.12394   0.12800
     Eigenvalues ---    0.13744   0.13889   0.13971   0.14558   0.14876
     Eigenvalues ---    0.17358   0.18247   0.18625   0.18795   0.18934
     Eigenvalues ---    0.19118   0.19799   0.21377   0.32406   0.32593
     Eigenvalues ---    0.32840   0.33315   0.33437   0.33760   0.33870
     Eigenvalues ---    0.33955   0.34084   0.34179   0.35859   0.36321
     Eigenvalues ---    0.59019
 Eigenvectors required to have negative eigenvalues:
                          R12       R15       R19       R2        R14
   1                    0.58222  -0.55501  -0.41365  -0.25341   0.24980
                          A31       R4        D16       A32       A3
   1                    0.08205   0.08009   0.06966  -0.06898  -0.06372
 RFO step:  Lambda0=1.762787203D-04 Lambda=-6.54261024D-03.
 Linear search not attempted -- option 19 set.
 Iteration  1 RMS(Cart)=  0.03303854 RMS(Int)=  0.00138123
 Iteration  2 RMS(Cart)=  0.00181398 RMS(Int)=  0.00067502
 Iteration  3 RMS(Cart)=  0.00000301 RMS(Int)=  0.00067502
 Iteration  4 RMS(Cart)=  0.00000000 RMS(Int)=  0.00067502
 Variable       Old X    -DE/DX   Delta X   Delta X   Delta X     New X
                                 (Linear)    (Quad)   (Total)
    R1        2.84388   0.00353   0.00000   0.01475   0.01475   2.85863
    R2        3.04040   0.00568   0.00000  -0.01952  -0.01935   3.02105
    R3        3.65126   0.01585   0.00000   0.13480   0.13480   3.78606
    R4        2.38196   0.00104   0.00000  -0.00755  -0.00760   2.37436
    R5        2.06706  -0.00034   0.00000  -0.00008  -0.00008   2.06698
    R6        2.07153   0.00010   0.00000   0.00171   0.00171   2.07324
    R7        2.06798  -0.00059   0.00000  -0.00173  -0.00173   2.06625
    R8        2.72503  -0.00036   0.00000  -0.00726  -0.00726   2.71776
    R9        2.07241  -0.00233   0.00000  -0.00832  -0.00832   2.06409
   R10        2.06930  -0.00157   0.00000  -0.00609  -0.00609   2.06321
   R11        2.07246  -0.00066   0.00000  -0.00110  -0.00110   2.07136
   R12        2.45672  -0.00388   0.00000   0.02776   0.02737   2.48409
   R13        2.73785  -0.00013   0.00000  -0.00460  -0.00460   2.73325
   R14        2.01086  -0.00517   0.00000  -0.04303  -0.04291   1.96796
   R15        2.24660  -0.00271   0.00000  -0.08645  -0.08683   2.15977
   R16        2.06491  -0.00083   0.00000  -0.00319  -0.00319   2.06172
   R17        2.06653  -0.00103   0.00000  -0.00400  -0.00400   2.06253
   R18        2.06776   0.00028   0.00000   0.00095   0.00095   2.06872
   R19        2.91421   0.00233   0.00000   0.04674   0.04713   2.96134
    A1        1.90199  -0.00171   0.00000   0.00203   0.00111   1.90310
    A2        1.87350  -0.00205   0.00000  -0.03273  -0.03335   1.84015
    A3        2.13107  -0.00348   0.00000  -0.01688  -0.01697   2.11411
    A4        1.65122   0.00280   0.00000   0.01152   0.01224   1.66346
    A5        1.87456   0.00403   0.00000   0.05467   0.05472   1.92928
    A6        1.97001   0.00198   0.00000  -0.00894  -0.01113   1.95888
    A7        1.93597  -0.00158   0.00000  -0.01564  -0.01566   1.92032
    A8        1.90889  -0.00166   0.00000  -0.00869  -0.00880   1.90009
    A9        1.86265   0.00169   0.00000   0.00768   0.00762   1.87028
   A10        1.92659  -0.00138   0.00000  -0.00821  -0.00833   1.91827
   A11        1.93505   0.00041   0.00000   0.00759   0.00752   1.94257
   A12        1.89308   0.00269   0.00000   0.01835   0.01824   1.91132
   A13        1.90207  -0.00173   0.00000  -0.01668  -0.01679   1.88528
   A14        1.95047  -0.00067   0.00000  -0.00219  -0.00221   1.94826
   A15        1.92495  -0.00165   0.00000  -0.01666  -0.01678   1.90817
   A16        1.88411   0.00151   0.00000   0.01776   0.01777   1.90188
   A17        1.88192   0.00139   0.00000   0.00831   0.00808   1.89000
   A18        1.91852   0.00127   0.00000   0.01033   0.01031   1.92882
   A19        1.98800   0.00079   0.00000  -0.00727  -0.00715   1.98085
   A20        1.71374  -0.00427   0.00000  -0.01436  -0.01396   1.69977
   A21        1.90684   0.00259   0.00000   0.02046   0.01924   1.92607
   A22        1.91783   0.00136   0.00000   0.02831   0.02905   1.94688
   A23        1.96965   0.00313   0.00000   0.04408   0.04355   2.01320
   A24        1.61985  -0.00195   0.00000  -0.03471  -0.03566   1.58419
   A25        1.86306   0.00234   0.00000   0.01043   0.01040   1.87345
   A26        1.87586   0.00223   0.00000   0.00726   0.00722   1.88309
   A27        1.93481  -0.00005   0.00000   0.00043   0.00043   1.93523
   A28        1.91810  -0.00151   0.00000  -0.00234  -0.00240   1.91570
   A29        1.94125  -0.00148   0.00000  -0.00943  -0.00944   1.93181
   A30        1.92859  -0.00129   0.00000  -0.00529  -0.00530   1.92329
   A31        2.45709   0.00644   0.00000   0.07123   0.07149   2.52858
   A32        2.69799   0.00332   0.00000   0.03752   0.03637   2.73436
   A33        1.83584  -0.00783   0.00000  -0.04504  -0.04740   1.78845
    D1       -2.79085  -0.00073   0.00000  -0.02786  -0.02806  -2.81892
    D2       -0.71007  -0.00040   0.00000  -0.01800  -0.01828  -0.72835
    D3        1.42962  -0.00041   0.00000  -0.01811  -0.01844   1.41118
    D4       -1.02238   0.00091   0.00000  -0.02763  -0.02763  -1.05000
    D5        1.05841   0.00125   0.00000  -0.01777  -0.01784   1.04056
    D6       -3.08509   0.00123   0.00000  -0.01788  -0.01800  -3.10309
    D7        1.29159  -0.00185   0.00000  -0.09563  -0.09524   1.19635
    D8       -2.91082  -0.00151   0.00000  -0.08578  -0.08545  -2.99627
    D9       -0.77113  -0.00152   0.00000  -0.08589  -0.08561  -0.85674
   D10       -1.03133   0.00150   0.00000   0.02240   0.02230  -1.00903
   D11       -3.04462   0.00060   0.00000   0.00948   0.01047  -3.03414
   D12       -2.95327   0.00297   0.00000   0.05270   0.05321  -2.90006
   D13        1.31663   0.00207   0.00000   0.03979   0.04138   1.35801
   D14        1.31027  -0.00122   0.00000   0.04472   0.04572   1.35599
   D15       -0.70302  -0.00211   0.00000   0.03181   0.03389  -0.66913
   D16        3.04216  -0.00274   0.00000  -0.04292  -0.04152   3.00064
   D17        0.82921  -0.00135   0.00000  -0.08700  -0.08511   0.74409
   D18       -0.96712  -0.00747   0.00000  -0.12425  -0.12253  -1.08965
   D19       -2.88294   0.00188   0.00000  -0.00337  -0.00317  -2.88612
   D20       -0.98656  -0.00137   0.00000  -0.01254  -0.01265  -0.99922
   D21       -0.77276   0.00124   0.00000  -0.01322  -0.01310  -0.78586
   D22        1.12362  -0.00200   0.00000  -0.02238  -0.02258   1.10104
   D23        1.34529   0.00154   0.00000  -0.00673  -0.00657   1.33872
   D24       -3.04151  -0.00171   0.00000  -0.01590  -0.01605  -3.05756
   D25        0.23007   0.00031   0.00000   0.01228   0.01231   0.24238
   D26       -1.84583   0.00055   0.00000   0.01997   0.02030  -1.82553
   D27        2.98201  -0.00045   0.00000  -0.00929  -0.00926   2.97275
   D28       -1.24404   0.00012   0.00000  -0.00296  -0.00288  -1.24692
   D29        0.86530  -0.00008   0.00000  -0.00460  -0.00454   0.86075
   D30        1.20066  -0.00029   0.00000  -0.00305  -0.00312   1.19754
   D31       -3.02539   0.00028   0.00000   0.00328   0.00326  -3.02213
   D32       -0.91606   0.00008   0.00000   0.00165   0.00160  -0.91446
   D33       -1.82922  -0.00128   0.00000  -0.05760  -0.05820  -1.88742
   D34        0.18744   0.00161   0.00000  -0.01796  -0.01973   0.16771
   D35        2.01401   0.00091   0.00000   0.00204   0.00119   2.01520
   D36        0.04235  -0.00040   0.00000  -0.02299  -0.02346   0.01889
   D37       -0.73436   0.00005   0.00000   0.08813   0.08776  -0.64660
         Item               Value     Threshold  Converged?
 Maximum Force            0.015852     0.000450     NO 
 RMS     Force            0.002869     0.000300     NO 
 Maximum Displacement     0.133498     0.001800     NO 
 RMS     Displacement     0.032842     0.001200     NO 
 Predicted change in Energy=-3.583653D-03
[...]
 01116533,0.07815619,0.01023432,-0.00500489,-0.02154811,0.08285659,-0.0
 0032454,0.00210384,-0.00675072,0.01132052,-0.05676764,-0.03379156,-0.0
 0332711,0.00255365,0.00492826,-0.01895172,0.06959391,-0.00233103,0.001
 85306,-0.00240305,0.08038526,-0.03912156,-0.27447329,0.00831910,-0.002
 57735,-0.01780285,-0.08908527,0.04891049,0.29249741,0.00002063,0.00058
 924,-0.00079958,-0.24043349,-0.12072393,0.04598343,-0.01718232,-0.0109
 6813,0.00559360,-0.00715179,-0.00446151,0.00059425,0.25139097,-0.00398
 129,0.00078486,-0.00298698,-0.11254158,-0.11721837,0.02846504,0.004680
 61,0.00551516,-0.00200348,0.00426014,0.00569765,-0.00012761,0.12659665
 ,0.14328780,0.00164936,0.00102813,-0.00023598,0.04614373,0.02864332,-0
 .06481240,-0.01935680,-0.01259087,0.00601357,0.02596913,0.01583742,-0.
 00418016,-0.04803313,-0.02946702,0.06047001,-0.15662253,-0.05788463,-0
 .01571532,-0.00109150,-0.00139180,-0.00122849,-0.00003119,-0.00025099,
 0.00001625,-0.00024127,0.00012948,0.00012145,-0.00031003,-0.00001714,-
 0.00013415,0.51985289,-0.07041212,-0.10993396,-0.00982695,-0.00019944,
 0.00354272,0.00055731,0.00009966,-0.00030657,-0.00022961,0.00039200,-0
 .00033668,-0.00025011,0.00018145,0.00004147,0.00009946,-0.04525627,0.5
 4347294,-0.01677291,-0.00917833,-0.07401484,-0.00151581,-0.00083977,-0
 .00139932,-0.00025802,-0.00005795,-0.00008309,0.00042332,0.00059070,-0
 .00000760,-0.00110379,0.00046995,0.00042317,-0.02606166,-0.02282167,0.
 60107052,-0.01838863,0.01628824,-0.01631665,0.00040999,-0.00156899,0.0
 0028399,0.00008512,0.00013015,-0.00003288,0.00004736,0.00013824,0.0000
 2198,0.00013569,0.00020393,0.00006078,-0.15753420,0.09078993,-0.099270
 08,0.17001379,-0.01225647,0.00886896,-0.01049105,0.00010578,-0.0015902
 1,0.00033824,0.00020730,0.00037626,0.00005166,-0.00018872,0.00010462,0
 .00010361,0.00040531,0.00033141,-0.00025054,0.09449562,-0.12317144,0.0
 8652154,-0.09845685,0.13265687,-0.00385567,0.00276445,-0.00396150,0.00
 034509,-0.00060248,-0.00002618,0.00003955,0.00013603,0.00005349,-0.000
 20570,0.00001225,0.00010120,0.00023456,-0.00015419,-0.00007627,-0.1001
 2985,0.08411084,-0.13773720,0.11017946,-0.09091765,0.14567113,-0.01036
 842,-0.00259657,0.02809489,-0.00078781,-0.00008399,0.00033643,0.000127
 51,0.00012146,-0.00004373,0.00021382,-0.00004051,-0.00009221,-0.000260
 07,0.00059620,-0.00012604,-0.10112966,-0.02557334,0.10317317,0.0114971
 5,0.00373179,-0.01861748,0.10845396,-0.00495108,-0.00403622,0.01897821
 ,0.00045262,0.00062240,-0.00040326,-0.00018105,-0.00011777,0.00010746,
 -0.00009221,-0.00004937,0.00008057,0.00005709,-0.00022508,0.00014157,-
 0.02451750,-0.06063924,0.04644722,-0.00859263,-0.00372824,0.01390817,0
 .02876533,0.06188003,-0.00331455,-0.00235110,0.00320427,-0.00007227,0.
 00033146,-0.00009813,-0.00012728,-0.00010205,0.00006040,-0.00010504,-0
 .00005392,0.00000345,-0.00007114,-0.00023041,0.00012531,0.10866374,0.0
 5110973,-0.26258887,0.00853525,0.00238982,-0.01443178,-0.11566974,-0.0
 5361570,0.28105886,0.00613875,-0.02388856,-0.01211305,-0.00062267,0.00
 054334,-0.00150465,-0.00016502,0.00007270,0.00016592,-0.00050434,0.000
 14468,-0.00000607,-0.00055132,0.00015485,-0.00042546,-0.06542733,0.052
 45606,0.03223940,-0.00444150,0.01672465,0.01175130,-0.00382168,0.01257
 904,0.00442251,0.06795683,0.00675648,-0.01742660,-0.00909299,0.0004946
 2,-0.00061954,0.00041725,0.00012764,0.00038581,0.00022108,-0.00023305,
 0.00009235,0.00021702,0.00072014,0.00016568,0.00020646,0.05159861,-0.2
 3379454,-0.10523659,0.00332272,-0.01341885,-0.00856476,-0.00133613,0.0
 0819958,0.00364572,-0.05846425,0.25513814,0.00158776,-0.00480108,-0.00
 411716,-0.00046937,-0.00110017,-0.00001554,0.00026579,0.00042818,0.000
 10871,-0.00025633,0.00002158,0.00018266,-0.00002174,0.00045198,-0.0009
 2991,0.03184394,-0.10590641,-0.11004715,-0.00335033,0.01609309,0.01037
 701,0.00504546,-0.02408604,-0.01070019,-0.03325299,0.11801011,0.114253
 24,-0.05712721,-0.04866032,0.02896292,-0.08633932,0.01770311,-0.010210
 03,-0.00386548,0.03184506,0.00503687,-0.00089855,0.01553622,0.00119691
 ,0.01422018,-0.02473496,-0.00514618,-0.01877377,0.01948605,-0.02458051
 ,-0.00548174,-0.00568533,-0.00215741,0.00169487,0.00120925,0.00016269,
 0.00084207,-0.00051671,-0.00049215,0.18344819,-0.02450852,-0.04641545,
 -0.01696672,0.01784601,-0.18788816,-0.02587003,0.00760495,-0.02352419,
 -0.00008088,0.00952883,-0.02406503,-0.00858396,0.00658670,-0.03877189,
 -0.00330306,-0.00571668,0.00663297,-0.00627150,-0.00214922,-0.00073457
 ,-0.00087830,0.00127362,0.00003559,-0.00006484,0.00122577,0.00056785,0
 .00102181,-0.01420399,0.38157732,0.01362930,-0.04963818,-0.02400579,-0
 .01242843,-0.01804940,-0.08056537,-0.00444162,0.02829403,0.00588655,0.
 00498799,-0.03166203,0.00423930,-0.00219681,0.00431545,0.00343194,-0.0
 1193200,0.01095711,-0.00893581,-0.00188782,-0.00260203,0.00033954,-0.0
 0105400,-0.00048338,0.00081181,0.00110283,0.00016315,-0.00006189,0.004
 12350,0.00565929,0.17701219,0.01336319,-0.00606512,-0.01501467,-0.0087
 5469,0.00909322,0.00152169,0.00058633,-0.00099730,0.00091014,0.0002674
 2,-0.00125381,-0.00142094,0.00067781,-0.00371294,-0.00056817,-0.002232
 20,0.00075063,0.00196103,-0.00008609,-0.00012683,-0.00016575,-0.000462
 49,-0.00054562,0.00017084,0.00032131,0.00002456,0.00008580,-0.04118104
 ,-0.04948012,0.01659569,0.47840076,0.00404946,-0.01148134,0.01219201,-
 0.00366770,0.00804729,-0.00008295,0.00052364,-0.00024061,0.00036372,0.
 00065187,-0.00082734,-0.00058809,0.00033803,-0.00204117,-0.00017930,-0
 .00099842,0.00162437,-0.00196178,-0.00057563,-0.00039853,-0.00036360,0
 .00060512,0.00003391,0.00001960,0.00018157,0.00004140,0.00014441,-0.05
 192698,-0.02337745,0.00887195,-0.01532047,0.20356197,0.00376891,0.0112
 5516,-0.04292046,0.00518477,-0.00421028,0.00033211,-0.00035874,-0.0005
 7659,-0.00014167,-0.00044142,0.00086404,0.00038590,-0.00033797,0.00226
 253,0.00004856,-0.00064028,-0.00266004,0.00597031,0.00103330,0.0005834
 4,0.00039227,-0.00153912,-0.00091693,0.00004796,0.00004188,0.00013916,
 -0.00013146,0.03991530,0.02089842,0.01350601,0.03845417,-0.01753380,0.
 32591706,-0.00421676,0.00049489,0.00201820,0.00100914,-0.00453636,-0.0
 0010174,-0.00019499,0.00025778,-0.00037466,-0.00013640,0.00029688,0.00
 062543,-0.00014674,0.00066531,0.00011128,0.00054132,-0.00015807,-0.000
 20939,0.00009347,0.00007984,0.00001996,0.00014008,0.00014787,-0.000030
 79,-0.00001410,0.00012297,0.00001422,0.00915018,0.00645866,-0.00141620
 ,-0.17790704,0.03994840,0.01851709,0.47153813,0.00165606,-0.00078168,0
 .00078961,-0.00193432,0.00212471,0.00079445,0.00007376,-0.00013252,0.0
 0025347,-0.00017744,-0.00047048,-0.00054614,0.00020815,-0.00086407,-0.
 00027913,-0.00022539,0.00025715,0.00004861,-0.00006956,-0.00004968,-0.
 00004314,-0.00000999,-0.00005161,0.00001275,0.00000896,-0.00005687,-0.
 00000744,-0.00729077,-0.00918881,0.00127234,0.05058716,-0.09252862,0.0
 0087420,0.05373450,0.58524199,0.00132996,0.00091712,-0.00462446,0.0006
 6552,0.00134420,0.00059462,0.00004912,0.00001770,0.00020062,-0.0002049
 6,-0.00016713,-0.00047618,0.00010715,0.00008782,-0.00019748,-0.0001985
 5,-0.00002028,0.00045301,0.00004980,-0.00000915,0.00002442,-0.00015555
 ,-0.00007165,0.00006465,0.00000182,-0.00001199,-0.00002397,0.00077334,
 0.00147334,0.00093696,0.03579669,-0.00409594,-0.10210763,0.03916463,-0
 .02221090,0.61506350,0.00086189,0.00046651,-0.00210835,-0.00017608,0.0
 0040256,-0.00011618,0.00003308,-0.00016502,0.00012073,-0.00000536,-0.0
 0002107,-0.00003966,0.00005994,-0.00007536,0.00003808,-0.00009829,-0.0
 0003039,0.00023560,0.00002423,0.00000428,0.00001168,-0.00007679,-0.000
 03905,0.00002189,0.00000795,-0.00000292,-0.00000912,-0.00016351,-0.000
 75212,0.00072428,-0.03144886,0.00910212,-0.02921445,-0.10692979,0.0119
 9535,-0.10754491,0.12893406,-0.00030874,0.00011160,0.00030097,-0.00003
 191,-0.00005671,-0.00025859,-0.00004890,-0.00006602,0.00012174,0.00002
 613,0.00005760,0.00000895,0.00004477,0.00001045,0.00005961,0.00006084,
 -0.00003140,-0.00004591,0.00000452,0.00000326,0.00000295,0.00001384,0.
 00001938,-0.00000352,-0.00000720,-0.00000020,-0.00000949,0.00028683,0.
 00009896,0.00011420,0.01168543,-0.00158968,0.01119277,0.01222930,-0.05
 710943,0.02546311,-0.02136031,0.05414244,0.00013448,-0.00003977,0.0001
 1456,-0.00008926,0.00011096,-0.00013402,-0.00001642,-0.00005180,0.0000
 7978,0.00001475,0.00002039,-0.00001256,0.00002496,-0.00003121,0.000038
 21,-0.00000473,-0.00001197,-0.00003553,-0.00000186,-0.00000469,-0.0000
 0196,0.00000732,0.00000762,-0.00000733,-0.00000383,-0.00000219,-0.0000
 0539,-0.00038938,-0.00027367,-0.00002929,0.00795563,-0.00281287,0.0143
 7748,-0.11916849,0.03033207,-0.26776159,0.12323831,-0.03060475,0.27786
 416,0.00080727,-0.00062995,0.00108475,-0.00073684,0.00053346,-0.000011
 84,0.00002409,-0.00005969,0.00007863,0.00002712,-0.00008191,-0.0000647
 5,0.00006144,-0.00031542,-0.00000457,-0.00010107,0.00012712,-0.0001007
 4,-0.00004854,-0.00002260,-0.00002170,0.00002547,-0.00000156,0.0000021
 1,0.00001595,-0.00001001,0.00001037,-0.00298280,-0.00298898,0.00010739
 ,-0.03160069,-0.01951634,0.02521716,-0.09721014,-0.08193084,0.05949949
 ,0.01006303,0.01177356,-0.00813480,0.11775123,-0.00003087,0.00002163,-
 0.00004944,0.00023644,-0.00053624,-0.00012580,0.00000668,0.00007367,-0
 .00014245,0.00004580,0.00012122,0.00020704,-0.00009501,0.00015376,0.00
 008128,0.00000674,-0.00002596,-0.00000011,0.00000603,0.00000952,0.0000
 0714,0.00000357,-0.00000379,-0.00000250,0.00000637,0.00000384,0.000013
 09,0.00114686,0.00143121,-0.00033491,0.01191687,0.01417518,-0.01211627
 ,-0.09050154,-0.19553829,0.11225098,-0.00084490,-0.00107266,0.00030955
 ,0.08968400,0.20047765,-0.00035701,0.00016184,0.00002589,0.00015087,-0
 .00031705,-0.00018257,-0.00000344,-0.00002130,-0.00002166,0.00002034,0
 .00007994,0.00012616,-0.00002741,0.00008174,0.00008945,0.00004365,-0.0
 0002783,-0.00000720,0.00000959,0.00000747,0.00000660,0.00000724,0.0000
 0851,-0.00000347,-0.00000381,0.00000129,0.,0.00085452,0.00085341,-0.00
 018963,0.00804857,0.00314301,-0.00253134,0.06545210,0.10740720,-0.1380
 6476,0.01263893,0.02035217,-0.01332693,-0.07631783,-0.11681543,0.14166
 071,-0.00026903,0.00036265,0.00070417,-0.00026050,0.00041830,0.0003758
 7,0.00002578,-0.00005770,0.00000068,-0.00012436,-0.00028022,-0.0001231
 7,0.00005229,-0.00011194,-0.00012151,0.00001514,-0.00000621,-0.0000121
 2,-0.00000403,-0.00001068,0.00000009,-0.00000675,0.00000718,-0.0000042
 0,-0.00001862,-0.00003228,-0.00001991,-0.00078294,-0.00089680,-0.00019
 472,-0.01325655,0.03441235,0.02081980,-0.05467909,-0.02834868,-0.01688
 618,0.00083043,-0.01422029,-0.00584824,0.00095891,-0.01115699,-0.00863
 530,0.06199238,-0.00010846,-0.00007373,-0.00054037,0.00006302,-0.00064
 450,-0.00006133,-0.00004359,0.00002579,-0.00007296,-0.00011620,0.00007
 602,0.00018933,-0.00006192,0.00010242,0.00006727,0.00002547,-0.0000323
 7,0.00002076,0.00001572,0.00000751,0.00000423,-0.00000284,0.00000390,-
 0.00000678,0.00000169,0.00002656,0.00000633,0.00128717,0.00099756,-0.0
 0023181,0.01079212,-0.00533903,-0.00524548,-0.02241013,-0.24895658,-0.
 11180729,-0.00082543,0.00626179,0.00304570,-0.00296189,-0.01718476,-0.
 01235204,0.01702526,0.26632288,-0.00007963,-0.00054886,0.00111553,0.00
 016328,-0.00063291,-0.00012265,0.00004792,0.00013577,-0.00031517,0.000
 12872,0.00012504,0.00037010,-0.00015498,0.00013958,0.00008235,-0.00000
 075,0.00006556,-0.00013193,-0.00002248,0.00000201,-0.00001035,0.000048
 28,0.00001423,-0.00001038,0.00001384,0.00001686,0.00003086,0.00013373,
 0.00095241,-0.00044525,0.00639137,-0.00571137,-0.00114590,-0.01296817,
 -0.11204400,-0.12148022,-0.00250100,-0.02472519,-0.01118772,0.00081285
 ,0.01619334,0.01160644,0.00899305,0.12666078,0.12247624,-0.02477351,-0
 .01348001,0.05035062,-0.00087814,-0.00114589,-0.00147341,-0.00014787,0
 .00117703,-0.00038866,0.00051344,-0.00000962,0.00057009,-0.00007999,-0
 .00038923,0.00017318,0.00286233,0.00159224,-0.00558504,-0.00071617,-0.
 00032495,-0.00031943,0.00170456,0.00091238,-0.00028866,-0.00022467,-0.
 00019088,0.00001526,-0.01976301,-0.00157109,-0.01008893,-0.09854223,-0
 .00366388,-0.04911063,-0.02654603,0.00515248,-0.01400880,0.00026409,-0
 .00022738,0.00170628,0.00069775,-0.00052881,-0.00085779,0.00273442,-0.
 00120576,-0.00150768,0.09316635,-0.01155886,-0.00223363,0.01517819,-0.
 00002124,-0.00151872,0.00029487,-0.00004179,0.00032418,-0.00015715,-0.
 00003034,-0.00036149,0.00005724,0.00008266,0.00016736,-0.00014166,0.00
 052850,0.00103946,-0.00116165,-0.00026635,-0.00005492,-0.00007540,0.00
 025951,0.00053524,-0.00008282,-0.00000627,-0.00005714,-0.00009871,-0.0
 0359236,0.00079840,-0.00579873,-0.00230399,-0.03391467,-0.00845137,0.0
 0676020,-0.00172039,0.01266205,0.00301322,-0.00116792,-0.00115558,-0.0
 0116875,0.00037361,-0.00058361,0.00112104,-0.00067599,0.00061521,-0.01
 967023,0.04898174,0.00074025,0.00067866,0.04228128,-0.00129288,0.00031
 602,-0.00065349,-0.00004689,0.00064234,-0.00024662,0.00046711,-0.00025
 021,0.00028050,-0.00002187,-0.00071233,0.00003022,0.00222225,0.0012307
 9,-0.00591877,-0.00053948,-0.00033035,-0.00017890,0.00161190,0.0010207
 1,0.00000499,-0.00021772,-0.00015325,0.00001721,-0.01342560,-0.0017794
 9,-0.00683582,-0.08343378,0.00211636,-0.17862440,-0.00044361,0.0012393
 2,0.02047340,0.00634365,-0.00239590,-0.00063620,0.00138355,0.00028146,
 -0.00015747,0.00211064,-0.00195322,-0.00058755,0.04561637,-0.02942049,
 0.19662248,-0.02034199,0.01719350,-0.03922658,0.01858161,-0.00988421,-
 0.00018428,-0.00056416,0.00123499,-0.00115059,-0.00104270,0.00295708,0
 .00179505,-0.00073048,0.00759216,0.00077565,0.00161295,-0.00266787,0.0
 0334017,0.00111895,0.00050024,0.00054501,-0.00098208,-0.00024183,0.000
 07866,-0.00032577,0.00004424,-0.00030242,-0.00155994,0.02432644,0.0046
 8321,-0.03897364,0.00809734,-0.01756774,-0.02379718,-0.00064451,0.0086
 6846,0.00089502,-0.00100656,0.00024602,0.00261280,0.00016074,-0.001462
 39,0.00276128,-0.00204194,-0.00075274,0.03539106,0.01116215,0.01056300
 ,0.04388764,-0.00520473,0.02864120,-0.03006417,-0.00297579,-0.02121137
 ,0.00123433,-0.00071193,0.00027750,-0.00009854,-0.00109128,0.00190513,
 0.00094914,0.00093330,0.00260550,0.00002421,0.00267369,-0.00428147,0.0
 0453356,0.00150202,0.00096369,0.00080775,-0.00113471,-0.00027404,0.000
 02725,-0.00042012,-0.00013029,-0.00029324,0.04497748,-0.01045895,0.009
 36720,-0.00224779,-0.06901638,0.02013471,-0.00526438,0.02084256,-0.011
 59466,0.00062433,-0.00011293,0.00076685,0.00730924,-0.00249591,-0.0020
 6504,0.00266433,-0.00152190,-0.00177797,0.01617019,0.00195773,0.021792
 78,-0.04265289,0.06723396,-0.01566531,-0.01515847,0.01918088,-0.006024
 61,0.00201549,-0.00013299,0.00038480,0.00091730,0.00043841,-0.00027865
 ,-0.00172316,-0.00075837,0.00028045,-0.00199138,-0.00031161,-0.0013888
 0,0.00312927,-0.00346938,-0.00106434,-0.00069363,-0.00035759,0.0006338
 0,0.00026292,0.00002754,0.00020098,-0.00011433,0.00012094,-0.00940485,
 -0.00172541,-0.03264742,-0.00159148,0.01448867,-0.04405309,0.00873396,
 -0.00588041,-0.00136384,-0.00166229,0.00000583,0.00023757,-0.00265641,
 0.00031702,0.00105846,-0.00046806,0.00123716,0.00009911,0.00021970,0.0
 2248694,-0.03011287,0.01665456,-0.02174066,0.09877304,-0.01742257,-0.0
 1455141,-0.00640763,-0.00195330,-0.00133409,-0.00108372,-0.00020776,0.
 00091669,0.00015093,-0.00015937,0.00021056,0.00022030,0.00014136,0.000
 35954,-0.00015565,0.00218208,-0.00732446,-0.00428584,0.00069038,-0.000
 55238,0.00073527,0.00068063,0.00052703,-0.00092870,-0.00020780,-0.0020
 3039,-0.00089509,-0.00621385,0.02232908,-0.00131191,-0.00371608,0.0005
 0246,-0.00085765,0.00116507,0.00006817,-0.00004826,-0.00015534,0.00005
 824,-0.00004064,-0.00012021,-0.00000526,0.00007657,-0.00016701,0.00009
 693,0.00009531,0.00280379,0.00055288,0.00139474,0.00000008,-0.00045051
 ,0.00056217,0.03021987,-0.02559261,-0.00926727,0.01873754,0.00318837,0
 .00231521,0.00136556,0.00045673,-0.00123583,-0.00014089,-0.00010687,-0
 .00013548,-0.00015602,-0.00027697,0.00019681,-0.00009953,0.00712906,-0
 .02431308,-0.01278033,0.00056387,-0.00004111,-0.00038209,0.00053864,-0
 .00094736,-0.00052668,-0.00356853,-0.00181727,-0.00113028,0.01321332,-
 0.02636998,0.00223623,0.00492901,0.00206423,0.00306816,-0.00047323,0.0
 0009576,0.00042325,0.00023894,-0.00011069,0.00000374,0.00011492,-0.000
 01175,-0.00010193,-0.00025991,0.00015588,0.00003861,-0.00705218,-0.002
 61239,-0.00554036,-0.00162348,-0.00340981,-0.00054021,-0.01332932,0.06
 141395,-0.01375110,0.01008652,-0.01343419,-0.00066857,0.00113115,0.000
 87631,0.00007584,-0.00004392,0.00002653,-0.00040329,0.00082018,0.00001
 868,-0.00000487,0.00002584,-0.00010458,0.00341409,-0.01340907,-0.00449
 260,0.00117705,-0.00038653,0.00000510,-0.00078628,-0.00077782,0.000699
 82,-0.00169225,-0.00118730,0.00069122,-0.00198087,0.00290389,0.0073077
 9,0.00304456,0.00011329,0.00372142,-0.00036868,-0.00004434,0.00040307,
 0.00026484,-0.00005875,0.00002285,-0.00003393,-0.00001151,-0.00005440,
 -0.00018016,0.00013918,-0.00005870,-0.00636267,-0.00161210,-0.00502267
 ,0.00092503,-0.00048114,-0.00178838,-0.00797120,0.02011408,0.03594008,
 -0.25243521,-0.08958505,0.15775593,0.00090597,0.00115546,0.00195709,0.
 00052834,-0.00133092,-0.00035854,0.00004548,-0.00198164,-0.00068672,0.
 00008593,0.00077048,-0.00084954,-0.02347369,-0.01424697,0.03838322,0.0
 0258479,0.00137000,0.00161103,-0.00664230,-0.00549527,-0.00144531,0.00
 104196,-0.00039536,0.00020085,0.03577766,0.00508745,0.00099825,-0.0454
 5520,-0.00274294,-0.05288437,0.00814085,-0.00285308,-0.00705876,-0.002
 91969,0.00102785,0.00036992,-0.00024477,-0.00005673,0.00036258,0.00019
 823,0.00047079,0.00115906,0.03153383,0.01518003,0.02696836,-0.01854347
 ,-0.01470045,0.01253439,-0.00755996,0.02191023,0.02530245,0.27643125,-
 0.07879044,-0.11409824,0.06961907,-0.00075811,0.00458871,0.00030084,0.
 00019762,-0.00051173,0.00015840,-0.00039201,0.00070751,-0.00062560,-0.
 00015603,0.00006025,0.00012240,-0.02038919,0.00025563,0.02172324,-0.00
 128615,-0.00013454,0.00022780,-0.00513100,-0.00125731,-0.00049603,0.00
 225526,0.00270008,0.00124228,0.00992007,-0.00134538,0.03754951,-0.0177
 2502,0.01120647,-0.01956183,0.00214713,-0.00111315,-0.00465058,-0.0017
 3073,0.00061217,0.00039161,0.00014564,0.00002806,0.00018766,-0.0006294
 1,0.00044855,0.00048092,0.02445560,-0.00986048,0.01321714,-0.01250560,
 -0.01151422,0.00470707,0.01395624,0.00403018,-0.01732164,0.08641613,0.
 11519743,0.20296553,0.10314676,-0.32084350,0.00166293,-0.01106887,-0.0
 0670769,-0.00077457,0.00280486,0.00081755,-0.00110913,0.00218844,0.001
 90868,-0.00004511,0.00140467,0.00009563,0.01110921,0.00390387,0.000952
 29,0.00113471,-0.00040525,-0.00018901,-0.00087433,-0.00062241,0.001731
 10,-0.00072065,0.00132530,0.00025082,-0.01337280,0.03203528,-0.0597558
 1,-0.01874138,-0.00812334,0.00695687,0.00042485,-0.00196853,-0.0021141
 2,-0.00044206,0.00047982,0.00040392,-0.00084971,-0.00006247,-0.0000342
 7,-0.00051072,0.00090054,-0.00028480,-0.00865981,-0.00255523,-0.030735
 31,0.01237194,0.00847765,-0.00494040,0.02075100,-0.02458884,-0.0247573
 3,-0.20431990,-0.10727225,0.43724539\\0.00000420,-0.00000909,0.0000095
 6,-0.00000047,0.00000052,-0.00000639,-0.00000991,-0.00000813,-0.000004
 81,-0.00001071,-0.00000063,-0.00000548,-0.00001265,0.00000293,-0.00000
 594,-0.00000071,0.00001322,-0.00000469,-0.00000072,0.00002046,0.000000
 67,-0.00000384,0.00001580,-0.00000205,-0.00000803,0.00001547,-0.000002
 32,-0.00002006,-0.00000222,0.00000419,0.00001848,-0.00000470,0.0000318
 4,0.00000453,-0.00001564,0.00000178,0.00000433,-0.00002015,0.00000172,
 0.00000877,-0.00001589,0.00000395,-0.00000073,-0.00001334,-0.00000011,
 -0.00001798,0.00000108,-0.00001520,0.00002153,-0.00001702,-0.00001258,
 0.00000243,0.00003396,0.00002105,0.00002154,0.00000337,-0.00001521\\\@


  THE LARGE PRINT GIVETH,
  AND THE SMALL PRINT TAKETH AWAY.

                     -- TOM WAITS
 Job cpu time:       0 days  0 hours 11 minutes 45.6 seconds.
 File lengths (MBytes):  RWF=     59 Int=      0 D2E=      0 Chk=      3 Scr=      1
 Normal termination of Gaussian 09 at Thu Feb 19 12:35:46 2015.
