 Entering Gaussian System, Link 0=g09
 Initial command:
 /opt/gridware/applications/gaussian/g09/l1.exe "/lustre/SCRATCH5/gau/Gau-24589.inp" -scrdir="/lustre/SCRATCH5/gau/"
 Entering Link 1 = /opt/gridware/applications/gaussian/g09/l1.exe PID=     24590.
  
 Copyright (c) 1988,1990,1992,1993,1995,1998,2003,2009,2013,
            Gaussian, Inc.  All Rights Reserved.
  
 This is part of the Gaussian(R) 09 program.  It is based on
 the Gaussian(R) 03 system (copyright 2003, Gaussian, Inc.),
 the Gaussian(R) 98 system (copyright 1998, Gaussian, Inc.),
 the Gaussian(R) 94 system (copyright 1995, Gaussian, Inc.),
 the Gaussian 92(TM) system (copyright 1992, Gaussian, Inc.),
 the Gaussian 90(TM) system (copyright 1990, Gaussian, Inc.),
 the Gaussian 88(TM) system (copyright 1988, Gaussian, Inc.),
 the Gaussian 86(TM) system (copyright 1986, Carnegie Mellon
 University), and the Gaussian 82(TM) system (copyright 1983,
 Carnegie Mellon University). Gaussian is a federally registered
 trademark of Gaussian, Inc.
  
 This software contains proprietary and confidential information,
 including trade secrets, belonging to Gaussian, Inc.
  
 This software is provided under written license and may be
 used, copied, transmitted, or stored only in accord with that
 written license.
  
 The following legend is applicable only to US Government
 contracts under FAR:
  
                    RESTRICTED RIGHTS LEGEND
  
 Use, reproduction and disclosure by the US Government is
 subject to restrictions as set forth in subparagraphs (a)
 and (c) of the Commercial Computer Software - Restricted
 Rights clause in FAR 52.227-19.
  
 Gaussian, Inc.
 340 Quinnipiac St., Bldg. 40, Wallingford CT 06492
  
  
 ---------------------------------------------------------------
 Warning -- This program may not be used in any manner that
 competes with the business of Gaussian, Inc. or will provide
 assistance to any competitor of Gaussian, Inc.  The licensee
 of this program is prohibited from giving any competitor of
 Gaussian, Inc. access to this program.  By using this program,
 the user acknowledges that Gaussian, Inc. is engaged in the
 business of creating and licensing software in the field of
 computational chemistry and represents and warrants to the
 licensee that it is not a competitor of Gaussian, Inc. and that
 it will not use this program in any manner prohibited above.
 ---------------------------------------------------------------
  

 Cite this work as:
 Gaussian 09, Revision D.01,
 M. J. Frisch, G. W. Trucks, H. B. Schlegel, G. E. Scuseria, 
 M. A. Robb, J. R. Cheeseman, G. Scalmani, V. Barone, B. Mennucci, 
 G. A. Petersson, H. Nakatsuji, M. Caricato, X. Li, H. P. Hratchian, 
 A. F. Izmaylov, J. Bloino, G. Zheng, J. L. Sonnenberg, M. Hada, 
 M. Ehara, K. Toyota, R. Fukuda, J. Hasegawa, M. Ishida, T. Nakajima, 
 Y. Honda, O. Kitao, H. Nakai, T. Vreven, J. A. Montgomery, Jr., 
 J. E. Peralta, F. Ogliaro, M. Bearpark, J. J. Heyd, E. Brothers, 
 K. N. Kudin, V. N. Staroverov, T. Keith, R. Kobayashi, J. Normand, 
 K. Raghavachari, A. Rendell, J. C. Burant, S. S. Iyengar, J. Tomasi, 
 M. Cossi, N. Rega, J. M. Millam, M. Klene, J. E. Knox, J. B. Cross, 
 V. Bakken, C. Adamo, J. Jaramillo, R. Gomperts, R. E. Stratmann, 
 O. Yazyev, A. J. Austin, R. Cammi, C. Pomelli, J. W. Ochterski, 
 R. L. Martin, K. Morokuma, V. G. Zakrzewski, G. A. Voth, 
 P. Salvador, J. J. Dannenberg, S. Dapprich, A. D. Daniels, 
 O. Farkas, J. B. Foresman, J. V. Ortiz, J. Cioslowski, 
 and D. J. Fox, Gaussian, Inc., Wallingford CT, 2013.
 
 ******************************************
 Gaussian 09:  EM64L-G09RevD.01 24-Apr-2013
                19-Feb-2015 
 ******************************************
 %nprocshared=8
 Will use up to    8 processors via shared memory.
 %nprocl=1
 Will use up to    1 processors via Linda.
 ----------------------------------------------------------------------
 # opt=(calcfc,ts,noeigentest) freq=noraman b3lyp/gen geom=connectivity
  pseudo=read gfinput
 ----------------------------------------------------------------------
 1/5=1,10=4,11=1,14=-1,18=20,26=3,38=1,57=2/1,3;
 2/9=110,12=2,17=6,18=5,40=1/2;
 3/5=7,11=2,16=1,17=8,24=10,25=1,30=1,71=2,74=-5,140=1/1,2,3;
 4//1;
 5/5=2,38=5/2;
 8/6=4,10=90,11=11/1;
 11/6=1,8=1,9=11,15=111,16=1/1,2,10;
 10/6=1,13=1/2;
 6/7=2,8=2,9=2,10=2,28=1/1;
 7/10=1,18=20,25=1/1,2,3,16;
 1/5=1,10=4,11=1,14=-1,18=20,26=3/3(2);
 2/9=110/2;
 99//99;
 2/9=110/2;
 3/5=7,6=1,11=2,16=1,17=8,25=1,30=1,71=1,74=-5,82=7/1,2,3;
 4/5=5,16=3,69=1/1;
 5/5=2,38=5/2;
 7//1,2,3,16;
 1/5=1,11=1,14=-1,18=20,26=3/3(-5);
 2/9=110/2;
 6/7=2,8=2,9=2,10=2,19=2,28=1/1;
 99/9=1/99;
 --------------------------
 ts624cl-6-31+g(d)/def2tzvp
 --------------------------
 Symbolic Z-matrix:
 Charge =  0 Multiplicity = 1
 C                     0.88456   0.11663   0.41891 
 C                    -0.39856   2.08642  -0.60959 
 H                    -1.16612   2.27151  -1.36713 
 H                    -0.77958   2.23626   0.40602 
 H                     0.47888   2.71442  -0.79914 
 C                     2.12077   0.93679   0.59068 
 H                     2.88275   0.36133   1.14581 
 H                     2.57087   1.21375  -0.37438 
 H                     1.92442   1.84967   1.16978 
 O                     0.01831   0.71086  -0.79507 
 O                    -1.76363  -0.8697   -0.10176 
 C                    -3.04071  -0.26804   0.23386 
 H                    -3.56304  -0.12891  -0.71933 
 H                    -3.57601  -0.99358   0.85919 
 H                    -2.90073   0.67793   0.76431 
 H                    -1.12805  -0.88883   0.81811 
 H                    -1.03451  -0.03214  -0.7197 
 Cl                    1.32383  -1.44391  -0.5023 
 O                     0.04404  -0.08688   1.34089 
 
 Add virtual bond connecting atoms H16        and O11        Dist= 2.11D+00.
 Add virtual bond connecting atoms H17        and O11        Dist= 2.40D+00.
 Add virtual bond connecting atoms H17        and O10        Dist= 2.44D+00.
 Add virtual bond connecting atoms C1         and O10        Dist= 3.03D+00.
 Add virtual bond connecting atoms O19        and H16        Dist= 2.86D+00.

 GradGradGradGradGradGradGradGradGradGradGradGradGradGradGradGradGradGrad
 Berny optimization.
 Initialization pass.
                           ----------------------------
                           !    Initial Parameters    !
                           ! (Angstroms and Degrees)  !
 --------------------------                            --------------------------
 ! Name  Definition              Value          Derivative Info.                !
 --------------------------------------------------------------------------------
 ! R1    R(1,6)                  1.4934         calculate D2E/DX2 analytically  !
 ! R2    R(1,10)                 1.6054         calculate D2E/DX2 analytically  !
 ! R3    R(1,18)                 1.8646         calculate D2E/DX2 analytically  !
 ! R4    R(1,19)                 1.2641         calculate D2E/DX2 analytically  !
 ! R5    R(2,3)                  1.0942         calculate D2E/DX2 analytically  !
 ! R6    R(2,4)                  1.095          calculate D2E/DX2 analytically  !
 ! R7    R(2,5)                  1.0955         calculate D2E/DX2 analytically  !
 ! R8    R(2,10)                 1.4493         calculate D2E/DX2 analytically  !
 ! R9    R(6,7)                  1.1045         calculate D2E/DX2 analytically  !
 ! R10   R(6,8)                  1.1003         calculate D2E/DX2 analytically  !
 ! R11   R(6,9)                  1.0988         calculate D2E/DX2 analytically  !
 ! R12   R(10,17)                1.2908         calculate D2E/DX2 analytically  !
 ! R13   R(11,12)                1.4511         calculate D2E/DX2 analytically  !
 ! R14   R(11,16)                1.1182         calculate D2E/DX2 analytically  !
 ! R15   R(11,17)                1.2708         calculate D2E/DX2 analytically  !
 ! R16   R(12,13)                1.0958         calculate D2E/DX2 analytically  !
 ! R17   R(12,14)                1.0973         calculate D2E/DX2 analytically  !
 ! R18   R(12,15)                1.0935         calculate D2E/DX2 analytically  !
 ! R19   R(16,19)                1.5133         calculate D2E/DX2 analytically  !
 ! A1    A(6,1,10)             109.29           calculate D2E/DX2 analytically  !
 ! A2    A(6,1,18)             108.7494         calculate D2E/DX2 analytically  !
 ! A3    A(6,1,19)             123.7047         calculate D2E/DX2 analytically  !
 ! A4    A(10,1,18)             93.6298         calculate D2E/DX2 analytically  !
 ! A5    A(10,1,19)            104.6163         calculate D2E/DX2 analytically  !
 ! A6    A(18,1,19)            112.4725         calculate D2E/DX2 analytically  !
 ! A7    A(3,2,4)              112.0175         calculate D2E/DX2 analytically  !
 ! A8    A(3,2,5)              110.1863         calculate D2E/DX2 analytically  !
 ! A9    A(3,2,10)             105.8855         calculate D2E/DX2 analytically  !
 ! A10   A(4,2,5)              111.1443         calculate D2E/DX2 analytically  !
 ! A11   A(4,2,10)             110.4062         calculate D2E/DX2 analytically  !
 ! A12   A(5,2,10)             106.9508         calculate D2E/DX2 analytically  !
 ! A13   A(1,6,7)              110.0441         calculate D2E/DX2 analytically  !
 ! A14   A(1,6,8)              112.0838         calculate D2E/DX2 analytically  !
 ! A15   A(1,6,9)              111.652          calculate D2E/DX2 analytically  !
 ! A16   A(7,6,8)              106.8439         calculate D2E/DX2 analytically  !
 ! A17   A(7,6,9)              106.9335         calculate D2E/DX2 analytically  !
 ! A18   A(8,6,9)              109.0408         calculate D2E/DX2 analytically  !
 ! A19   A(1,10,2)             114.1896         calculate D2E/DX2 analytically  !
 ! A20   A(1,10,17)            100.5379         calculate D2E/DX2 analytically  !
 ! A21   A(2,10,17)            107.7134         calculate D2E/DX2 analytically  !
 ! A22   A(12,11,16)           108.4848         calculate D2E/DX2 analytically  !
 ! A23   A(12,11,17)           110.1294         calculate D2E/DX2 analytically  !
 ! A24   A(16,11,17)            94.8855         calculate D2E/DX2 analytically  !
 ! A25   A(11,12,13)           105.722          calculate D2E/DX2 analytically  !
 ! A26   A(11,12,14)           106.6785         calculate D2E/DX2 analytically  !
 ! A27   A(11,12,15)           110.9905         calculate D2E/DX2 analytically  !
 ! A28   A(13,12,14)           110.3134         calculate D2E/DX2 analytically  !
 ! A29   A(13,12,15)           111.9091         calculate D2E/DX2 analytically  !
 ! A30   A(14,12,15)           110.9771         calculate D2E/DX2 analytically  !
 ! A31   A(11,16,19)           135.6682         calculate D2E/DX2 analytically  !
 ! A32   A(10,17,11)           151.1314         calculate D2E/DX2 analytically  !
 ! A33   A(1,19,16)            110.3856         calculate D2E/DX2 analytically  !
 ! D1    D(10,1,6,7)          -159.762          calculate D2E/DX2 analytically  !
 ! D2    D(10,1,6,8)           -41.0181         calculate D2E/DX2 analytically  !
 ! D3    D(10,1,6,9)            81.6562         calculate D2E/DX2 analytically  !
 ! D4    D(18,1,6,7)           -58.8302         calculate D2E/DX2 analytically  !
 ! D5    D(18,1,6,8)            59.9137         calculate D2E/DX2 analytically  !
 ! D6    D(18,1,6,9)          -177.412          calculate D2E/DX2 analytically  !
 ! D7    D(19,1,6,7)            76.5385         calculate D2E/DX2 analytically  !
 ! D8    D(19,1,6,8)          -164.7176         calculate D2E/DX2 analytically  !
 ! D9    D(19,1,6,9)           -42.0433         calculate D2E/DX2 analytically  !
 ! D10   D(6,1,10,2)           -59.7896         calculate D2E/DX2 analytically  !
 ! D11   D(6,1,10,17)         -174.8027         calculate D2E/DX2 analytically  !
 ! D12   D(18,1,10,2)         -171.101          calculate D2E/DX2 analytically  !
 ! D13   D(18,1,10,17)          73.8859         calculate D2E/DX2 analytically  !
 ! D14   D(19,1,10,2)           74.5458         calculate D2E/DX2 analytically  !
 ! D15   D(19,1,10,17)         -40.4674         calculate D2E/DX2 analytically  !
 ! D16   D(6,1,19,16)          176.7496         calculate D2E/DX2 analytically  !
 ! D17   D(10,1,19,16)          50.9937         calculate D2E/DX2 analytically  !
 ! D18   D(18,1,19,16)         -49.2991         calculate D2E/DX2 analytically  !
 ! D19   D(3,2,10,1)          -166.3283         calculate D2E/DX2 analytically  !
 ! D20   D(3,2,10,17)          -55.5997         calculate D2E/DX2 analytically  !
 ! D21   D(4,2,10,1)           -44.879          calculate D2E/DX2 analytically  !
 ! D22   D(4,2,10,17)           65.8496         calculate D2E/DX2 analytically  !
 ! D23   D(5,2,10,1)            76.1679         calculate D2E/DX2 analytically  !
 ! D24   D(5,2,10,17)         -173.1035         calculate D2E/DX2 analytically  !
 ! D25   D(1,10,17,11)          13.1394         calculate D2E/DX2 analytically  !
 ! D26   D(2,10,17,11)        -106.6587         calculate D2E/DX2 analytically  !
 ! D27   D(16,11,12,13)        171.4295         calculate D2E/DX2 analytically  !
 ! D28   D(16,11,12,14)        -71.1302         calculate D2E/DX2 analytically  !
 ! D29   D(16,11,12,15)         49.8827         calculate D2E/DX2 analytically  !
 ! D30   D(17,11,12,13)         68.8279         calculate D2E/DX2 analytically  !
 ! D31   D(17,11,12,14)       -173.7318         calculate D2E/DX2 analytically  !
 ! D32   D(17,11,12,15)        -52.7189         calculate D2E/DX2 analytically  !
 ! D33   D(12,11,16,19)       -103.5454         calculate D2E/DX2 analytically  !
 ! D34   D(17,11,16,19)          9.581          calculate D2E/DX2 analytically  !
 ! D35   D(12,11,17,10)        114.9612         calculate D2E/DX2 analytically  !
 ! D36   D(16,11,17,10)          3.2308         calculate D2E/DX2 analytically  !
 ! D37   D(11,16,19,1)         -43.6502         calculate D2E/DX2 analytically  !
 --------------------------------------------------------------------------------
 Trust Radius=3.00D-01 FncErr=1.00D-07 GrdErr=1.00D-06
 Number of steps in this run=     99 maximum allowed number of steps=    114.
 Search for a saddle point of order  1.
 GradGradGradGradGradGradGradGradGradGradGradGradGradGradGradGradGradGrad

                          Input orientation:                          
 ---------------------------------------------------------------------
 Center     Atomic      Atomic             Coordinates (Angstroms)
 Number     Number       Type             X           Y           Z
 ---------------------------------------------------------------------
      1          6           0        0.884558    0.116628    0.418907
      2          6           0       -0.398563    2.086422   -0.609586
      3          1           0       -1.166118    2.271506   -1.367134
      4          1           0       -0.779578    2.236265    0.406015
      5          1           0        0.478877    2.714415   -0.799143
      6          6           0        2.120771    0.936787    0.590683
      7          1           0        2.882752    0.361331    1.145809
      8          1           0        2.570868    1.213746   -0.374381
      9          1           0        1.924419    1.849674    1.169780
     10          8           0        0.018310    0.710864   -0.795072
     11          8           0       -1.763632   -0.869703   -0.101762
     12          6           0       -3.040711   -0.268041    0.233857
     13          1           0       -3.563040   -0.128910   -0.719331
     14          1           0       -3.576005   -0.993577    0.859193
     15          1           0       -2.900725    0.677932    0.764309
     16          1           0       -1.128054   -0.888828    0.818105
     17          1           0       -1.034514   -0.032144   -0.719698
     18         17           0        1.323828   -1.443907   -0.502301
     19          8           0        0.044036   -0.086882    1.340889
 ---------------------------------------------------------------------
                    Distance matrix (angstroms):
                    1          2          3          4          5
     1  C    0.000000
     2  C    2.565986   0.000000
     3  H    3.469685   1.094201   0.000000
     4  H    2.694880   1.095021   1.815134   0.000000
     5  H    2.897709   1.095540   1.795770   1.806860   0.000000
     6  C    1.493449   3.018170   4.051933   3.183515   2.790590
     7  H    2.140338   4.101753   5.133907   4.180351   3.885673
     8  H    2.162548   3.103934   4.008675   3.588879   2.609379
     9  H    2.156054   2.935718   4.020609   2.836263   2.591144
    10  O    1.605381   1.449258   2.041012   2.099067   2.055810
    11  O    2.873474   3.295447   3.438805   3.297459   4.284984
    12  C    3.948411   3.638109   3.539289   3.378448   4.727540
    13  H    4.597500   3.864409   3.453532   3.822057   4.942465
    14  H    4.617687   4.662600   4.628699   4.296191   5.739456
    15  H    3.842230   3.183119   3.176695   2.656321   4.244214
    16  H    2.284931   3.379729   3.842451   3.171350   4.263928
    17  H    2.236379   2.214696   2.396518   2.545172   3.136917
    18  Cl   1.864632   3.929550   4.555443   4.335092   4.253669
    19  O    1.264098   2.953557   3.789440   2.636160   3.551913
                    6          7          8          9         10
     6  C    0.000000
     7  H    1.104504   0.000000
     8  H    1.100292   1.770554   0.000000
     9  H    1.098758   1.770351   1.790736   0.000000
    10  O    2.528181   3.477675   2.635417   2.964925   0.000000
    11  O    4.339524   4.965960   4.816946   4.755371   2.480764
    12  C    5.312234   6.026208   5.835706   5.478429   3.372619
    13  H    5.929381   6.728099   6.288604   6.131537   3.679270
    14  H    6.020935   6.605563   6.646655   6.199613   4.308226
    15  H    5.031160   5.804686   5.614449   4.981907   3.309610
    16  H    3.733558   4.213888   4.418695   4.115903   2.544701
    17  H    3.551302   4.356594   3.830178   3.983296   1.290806
    18  Cl   2.738145   2.899206   2.938468   3.742224   2.536362
    19  O    2.433831   2.880496   3.319437   2.704694   2.280217
                   11         12         13         14         15
    11  O    0.000000
    12  C    1.451058   0.000000
    13  H    2.041577   1.095788   0.000000
    14  H    2.055110   1.097264   1.799876   0.000000
    15  H    2.106712   1.093545   1.814068   1.805256   0.000000
    16  H    1.118249   2.094034   2.978312   2.450536   2.366431
    17  H    1.270812   2.233773   2.530377   3.142678   2.487816
    18  Cl   3.165841   4.579715   5.065353   5.105372   4.894216
    19  O    2.441662   3.282378   4.154187   3.762821   3.096611
                   16         17         18         19
    16  H    0.000000
    17  H    1.762809   0.000000
    18  Cl   2.839597   2.757193   0.000000
    19  O    1.513346   2.326432   2.622353   0.000000
 Stoichiometry    C4H11ClO3
 Framework group  C1[X(C4H11ClO3)]
 Deg. of freedom    51
 Full point group                 C1      NOp   1
 Largest Abelian subgroup         C1      NOp   1
 Largest concise Abelian subgroup C1      NOp   1
                         Standard orientation:                         
 ---------------------------------------------------------------------
 Center     Atomic      Atomic             Coordinates (Angstroms)
 Number     Number       Type             X           Y           Z
 ---------------------------------------------------------------------
      1          6           0        0.884558    0.116628    0.418907
      2          6           0       -0.398563    2.086422   -0.609586
      3          1           0       -1.166118    2.271506   -1.367134
      4          1           0       -0.779578    2.236265    0.406015
      5          1           0        0.478877    2.714415   -0.799143
      6          6           0        2.120771    0.936787    0.590683
      7          1           0        2.882752    0.361331    1.145809
      8          1           0        2.570868    1.213746   -0.374381
      9          1           0        1.924419    1.849674    1.169780
     10          8           0        0.018310    0.710864   -0.795072
     11          8           0       -1.763632   -0.869703   -0.101762
     12          6           0       -3.040711   -0.268041    0.233857
     13          1           0       -3.563040   -0.128910   -0.719331
     14          1           0       -3.576005   -0.993577    0.859193
     15          1           0       -2.900725    0.677932    0.764309
     16          1           0       -1.128054   -0.888828    0.818105
     17          1           0       -1.034514   -0.032144   -0.719698
     18         17           0        1.323828   -1.443907   -0.502301
     19          8           0        0.044036   -0.086882    1.340889
 ---------------------------------------------------------------------
 Rotational constants (GHZ):      2.0335794      1.2248437      0.9612350
 General basis read from cards:  (5D, 7F)
 ======================================================================================================
                                       Pseudopotential Parameters
 ======================================================================================================
  Center     Atomic      Valence      Angular      Power
  Number     Number     Electrons     Momentum     of R      Exponent        Coefficient   SO-Coeffient
 ======================================================================================================
    1          6
                                   No pseudopotential on this center.
    2          6
                                   No pseudopotential on this center.
    3          1
                                   No pseudopotential on this center.
    4          1
                                   No pseudopotential on this center.
    5          1
                                   No pseudopotential on this center.
    6          6
                                   No pseudopotential on this center.
    7          1
                                   No pseudopotential on this center.
    8          1
                                   No pseudopotential on this center.
    9          1
                                   No pseudopotential on this center.
   10          8
                                   No pseudopotential on this center.
   11          8
                                   No pseudopotential on this center.
   12          6
                                   No pseudopotential on this center.
   13          1
                                   No pseudopotential on this center.
   14          1
                                   No pseudopotential on this center.
   15          1
                                   No pseudopotential on this center.
   16          1
                                   No pseudopotential on this center.
   17          1
                                   No pseudopotential on this center.
   18         17
                                   No pseudopotential on this center.
   19          8
                                   No pseudopotential on this center.
 ======================================================================================================
 AO basis set in the form of general basis input (Overlap normalization):
      1 0
 S   6 1.00       0.000000000000
      0.3047524880D+04  0.1834737132D-02
      0.4573695180D+03  0.1403732281D-01
      0.1039486850D+03  0.6884262226D-01
      0.2921015530D+02  0.2321844432D+00
      0.9286662960D+01  0.4679413484D+00
      0.3163926960D+01  0.3623119853D+00
 SP   3 1.00       0.000000000000
      0.7868272350D+01 -0.1193324198D+00  0.6899906659D-01
      0.1881288540D+01 -0.1608541517D+00  0.3164239610D+00
      0.5442492580D+00  0.1143456438D+01  0.7443082909D+00
 SP   1 1.00       0.000000000000
      0.1687144782D+00  0.1000000000D+01  0.1000000000D+01
 SP   1 1.00       0.000000000000
      0.4380000000D-01  0.1000000000D+01  0.1000000000D+01
 D   1 1.00       0.000000000000
      0.8000000000D+00  0.1000000000D+01
 ****
      2 0
 S   6 1.00       0.000000000000
      0.3047524880D+04  0.1834737132D-02
      0.4573695180D+03  0.1403732281D-01
      0.1039486850D+03  0.6884262226D-01
      0.2921015530D+02  0.2321844432D+00
      0.9286662960D+01  0.4679413484D+00
      0.3163926960D+01  0.3623119853D+00
 SP   3 1.00       0.000000000000
      0.7868272350D+01 -0.1193324198D+00  0.6899906659D-01
      0.1881288540D+01 -0.1608541517D+00  0.3164239610D+00
      0.5442492580D+00  0.1143456438D+01  0.7443082909D+00
 SP   1 1.00       0.000000000000
      0.1687144782D+00  0.1000000000D+01  0.1000000000D+01
 SP   1 1.00       0.000000000000
      0.4380000000D-01  0.1000000000D+01  0.1000000000D+01
 D   1 1.00       0.000000000000
      0.8000000000D+00  0.1000000000D+01
 ****
      3 0
 S   3 1.00       0.000000000000
      0.1873113696D+02  0.3349460434D-01
      0.2825394365D+01  0.2347269535D+00
      0.6401216923D+00  0.8137573261D+00
 S   1 1.00       0.000000000000
      0.1612777588D+00  0.1000000000D+01
 ****
      4 0
 S   3 1.00       0.000000000000
      0.1873113696D+02  0.3349460434D-01
      0.2825394365D+01  0.2347269535D+00
      0.6401216923D+00  0.8137573261D+00
 S   1 1.00       0.000000000000
      0.1612777588D+00  0.1000000000D+01
 ****
      5 0
 S   3 1.00       0.000000000000
      0.1873113696D+02  0.3349460434D-01
      0.2825394365D+01  0.2347269535D+00
      0.6401216923D+00  0.8137573261D+00
 S   1 1.00       0.000000000000
      0.1612777588D+00  0.1000000000D+01
 ****
      6 0
 S   6 1.00       0.000000000000
      0.3047524880D+04  0.1834737132D-02
      0.4573695180D+03  0.1403732281D-01
      0.1039486850D+03  0.6884262226D-01
      0.2921015530D+02  0.2321844432D+00
      0.9286662960D+01  0.4679413484D+00
      0.3163926960D+01  0.3623119853D+00
 SP   3 1.00       0.000000000000
      0.7868272350D+01 -0.1193324198D+00  0.6899906659D-01
      0.1881288540D+01 -0.1608541517D+00  0.3164239610D+00
      0.5442492580D+00  0.1143456438D+01  0.7443082909D+00
 SP   1 1.00       0.000000000000
      0.1687144782D+00  0.1000000000D+01  0.1000000000D+01
 SP   1 1.00       0.000000000000
      0.4380000000D-01  0.1000000000D+01  0.1000000000D+01
 D   1 1.00       0.000000000000
      0.8000000000D+00  0.1000000000D+01
 ****
      7 0
 S   3 1.00       0.000000000000
      0.1873113696D+02  0.3349460434D-01
      0.2825394365D+01  0.2347269535D+00
      0.6401216923D+00  0.8137573261D+00
 S   1 1.00       0.000000000000
      0.1612777588D+00  0.1000000000D+01
 ****
      8 0
 S   3 1.00       0.000000000000
      0.1873113696D+02  0.3349460434D-01
      0.2825394365D+01  0.2347269535D+00
      0.6401216923D+00  0.8137573261D+00
 S   1 1.00       0.000000000000
      0.1612777588D+00  0.1000000000D+01
 ****
      9 0
 S   3 1.00       0.000000000000
      0.1873113696D+02  0.3349460434D-01
      0.2825394365D+01  0.2347269535D+00
      0.6401216923D+00  0.8137573261D+00
 S   1 1.00       0.000000000000
      0.1612777588D+00  0.1000000000D+01
 ****
     10 0
 S   6 1.00       0.000000000000
      0.5484671660D+04  0.1831074430D-02
      0.8252349460D+03  0.1395017220D-01
      0.1880469580D+03  0.6844507810D-01
      0.5296450000D+02  0.2327143360D+00
      0.1689757040D+02  0.4701928980D+00
      0.5799635340D+01  0.3585208530D+00
 SP   3 1.00       0.000000000000
      0.1553961625D+02 -0.1107775495D+00  0.7087426823D-01
      0.3599933586D+01 -0.1480262627D+00  0.3397528391D+00
      0.1013761750D+01  0.1130767015D+01  0.7271585773D+00
 SP   1 1.00       0.000000000000
      0.2700058226D+00  0.1000000000D+01  0.1000000000D+01
 SP   1 1.00       0.000000000000
      0.8450000000D-01  0.1000000000D+01  0.1000000000D+01
 D   1 1.00       0.000000000000
      0.8000000000D+00  0.1000000000D+01
 ****
     11 0
 S   6 1.00       0.000000000000
      0.5484671660D+04  0.1831074430D-02
      0.8252349460D+03  0.1395017220D-01
      0.1880469580D+03  0.6844507810D-01
      0.5296450000D+02  0.2327143360D+00
      0.1689757040D+02  0.4701928980D+00
      0.5799635340D+01  0.3585208530D+00
 SP   3 1.00       0.000000000000
      0.1553961625D+02 -0.1107775495D+00  0.7087426823D-01
      0.3599933586D+01 -0.1480262627D+00  0.3397528391D+00
      0.1013761750D+01  0.1130767015D+01  0.7271585773D+00
 SP   1 1.00       0.000000000000
      0.2700058226D+00  0.1000000000D+01  0.1000000000D+01
 SP   1 1.00       0.000000000000
      0.8450000000D-01  0.1000000000D+01  0.1000000000D+01
 D   1 1.00       0.000000000000
      0.8000000000D+00  0.1000000000D+01
 ****
     12 0
 S   6 1.00       0.000000000000
      0.3047524880D+04  0.1834737132D-02
      0.4573695180D+03  0.1403732281D-01
      0.1039486850D+03  0.6884262226D-01
      0.2921015530D+02  0.2321844432D+00
      0.9286662960D+01  0.4679413484D+00
      0.3163926960D+01  0.3623119853D+00
 SP   3 1.00       0.000000000000
      0.7868272350D+01 -0.1193324198D+00  0.6899906659D-01
      0.1881288540D+01 -0.1608541517D+00  0.3164239610D+00
      0.5442492580D+00  0.1143456438D+01  0.7443082909D+00
 SP   1 1.00       0.000000000000
      0.1687144782D+00  0.1000000000D+01  0.1000000000D+01
 SP   1 1.00       0.000000000000
      0.4380000000D-01  0.1000000000D+01  0.1000000000D+01
 D   1 1.00       0.000000000000
      0.8000000000D+00  0.1000000000D+01
 ****
     13 0
 S   3 1.00       0.000000000000
      0.1873113696D+02  0.3349460434D-01
      0.2825394365D+01  0.2347269535D+00
      0.6401216923D+00  0.8137573261D+00
 S   1 1.00       0.000000000000
      0.1612777588D+00  0.1000000000D+01
 ****
     14 0
 S   3 1.00       0.000000000000
      0.1873113696D+02  0.3349460434D-01
      0.2825394365D+01  0.2347269535D+00
      0.6401216923D+00  0.8137573261D+00
 S   1 1.00       0.000000000000
      0.1612777588D+00  0.1000000000D+01
 ****
     15 0
 S   3 1.00       0.000000000000
      0.1873113696D+02  0.3349460434D-01
      0.2825394365D+01  0.2347269535D+00
      0.6401216923D+00  0.8137573261D+00
 S   1 1.00       0.000000000000
      0.1612777588D+00  0.1000000000D+01
 ****
     16 0
 S   3 1.00       0.000000000000
      0.1873113696D+02  0.3349460434D-01
      0.2825394365D+01  0.2347269535D+00
      0.6401216923D+00  0.8137573261D+00
 S   1 1.00       0.000000000000
      0.1612777588D+00  0.1000000000D+01
 ****
     17 0
 S   3 1.00       0.000000000000
      0.1873113696D+02  0.3349460434D-01
      0.2825394365D+01  0.2347269535D+00
      0.6401216923D+00  0.8137573261D+00
 S   1 1.00       0.000000000000
      0.1612777588D+00  0.1000000000D+01
 ****
     18 0
 S   7 1.00       0.000000000000
      0.6950799094D+05  0.5145738965D-03
      0.1042615688D+05  0.3978134481D-02
      0.2373233406D+04  0.2045617867D-01
      0.6715642007D+03  0.8014810289D-01
      0.2184199979D+03  0.2345477032D+00
      0.7757224971D+02  0.4454336858D+00
      0.2888881528D+02  0.3546684250D+00
 S   3 1.00       0.000000000000
      0.1271052718D+03  0.1129368805D+00
      0.3933958296D+02  0.4837351421D+00
      0.7674067999D+01 -0.1229229739D+01
 S   2 1.00       0.000000000000
      0.3874562763D+01  0.6729682164D+00
      0.1838583257D+01  0.3495605141D+00
 S   1 1.00       0.000000000000
      0.5022905754D+00  0.1000000000D+01
 S   1 1.00       0.000000000000
      0.1796272342D+00  0.1000000000D+01
 P   5 1.00       0.000000000000
      0.6665042328D+03  0.3350250820D-02
      0.1576424169D+03  0.2676397041D-01
      0.5026252098D+02  0.1236268236D+00
      0.1853607811D+02  0.3584578792D+00
      0.7294053278D+01  0.6167729635D+00
 P   1 1.00       0.000000000000
      0.2943324899D+01  0.1000000000D+01
 P   1 1.00       0.000000000000
      0.1040497082D+01  0.1000000000D+01
 P   1 1.00       0.000000000000
      0.3845641508D+00  0.1000000000D+01
 P   1 1.00       0.000000000000
      0.1306964273D+00  0.1000000000D+01
 D   2 1.00       0.000000000000
      0.4610000000D+01  0.1826583505D+00
      0.1011000000D+01  0.9132917523D+00
 D   1 1.00       0.000000000000
      0.3390000000D+00  0.1000000000D+01
 F   1 1.00       0.000000000000
      0.7060000000D+00  0.1000000000D+01
 ****
     19 0
 S   6 1.00       0.000000000000
      0.5484671660D+04  0.1831074430D-02
      0.8252349460D+03  0.1395017220D-01
      0.1880469580D+03  0.6844507810D-01
      0.5296450000D+02  0.2327143360D+00
      0.1689757040D+02  0.4701928980D+00
      0.5799635340D+01  0.3585208530D+00
 SP   3 1.00       0.000000000000
      0.1553961625D+02 -0.1107775495D+00  0.7087426823D-01
      0.3599933586D+01 -0.1480262627D+00  0.3397528391D+00
      0.1013761750D+01  0.1130767015D+01  0.7271585773D+00
 SP   1 1.00       0.000000000000
      0.2700058226D+00  0.1000000000D+01  0.1000000000D+01
 SP   1 1.00       0.000000000000
      0.8450000000D-01  0.1000000000D+01  0.1000000000D+01
 D   1 1.00       0.000000000000
      0.8000000000D+00  0.1000000000D+01
 ****

 There are   197 symmetry adapted cartesian basis functions of A   symmetry.
 There are   185 symmetry adapted basis functions of A   symmetry.
   185 basis functions,   337 primitive gaussians,   197 cartesian basis functions
    38 alpha electrons       38 beta electrons
       nuclear repulsion energy       523.1875724889 Hartrees.
 NAtoms=   19 NActive=   19 NUniq=   19 SFac= 1.00D+00 NAtFMM=   60 NAOKFM=F Big=F
 Integral buffers will be    131072 words long.
 Raffenetti 2 integral format.
 Two-electron integral symmetry is turned on.
 One-electron integrals computed using PRISM.
 PrsmSu:  requested number of processors reduced to:   4 ShMem   1 Linda.
   1 Symmetry operations used in ECPInt.
 ECPInt:  NShTT=    2485 NPrTT=   12285 LenC2=    2443 LenP2D=    8594.
 LDataN:  DoStor=T MaxTD1= 6 Len=  172
 NBasis=   185 RedAO= T EigKep=  6.41D-05  NBF=   185
 NBsUse=   185 1.00D-06 EigRej= -1.00D+00 NBFU=   185
 ExpMin= 4.38D-02 ExpMax= 6.95D+04 ExpMxC= 2.37D+03 IAcc=2 IRadAn=         4 AccDes= 0.00D+00
 Harris functional with IExCor=  402 and IRadAn=       4 diagonalized for initial guess.
 HarFok:  IExCor=  402 AccDes= 0.00D+00 IRadAn=         4 IDoV= 1 UseB2=F ITyADJ=14
 ICtDFT=  3500011 ScaDFX=  1.000000  1.000000  1.000000  1.000000
 FoFCou: FMM=F IPFlag=           0 FMFlag=      100000 FMFlg1=           0
         NFxFlg=           0 DoJE=T BraDBF=F KetDBF=T FulRan=T
         wScrn=  0.000000 ICntrl=     500 IOpCl=  0 I1Cent=   200000004 NGrid=           0
         NMat0=    1 NMatS0=      1 NMatT0=    0 NMatD0=    1 NMtDS0=    0 NMtDT0=    0
 Petite list used in FoFCou.
 Requested convergence on RMS density matrix=1.00D-08 within 128 cycles.
 Requested convergence on MAX density matrix=1.00D-06.
 Requested convergence on             energy=1.00D-06.
 No special actions if energy rises.
 SCF Done:  E(RB3LYP) =  -844.889287686     A.U. after   13 cycles
            NFock= 13  Conv=0.77D-08     -V/T= 2.0038
 DoSCS=F DFT=T ScalE2(SS,OS)=  1.000000  1.000000
 Range of M.O.s used for correlation:     1   185
 NBasis=   185 NAE=    38 NBE=    38 NFC=     0 NFV=     0
 NROrb=    185 NOA=    38 NOB=    38 NVA=   147 NVB=   147

 **** Warning!!: The largest alpha MO coefficient is  0.32785935D+02

 PrsmSu:  requested number of processors reduced to:   4 ShMem   1 Linda.
 PrsmSu:  requested number of processors reduced to:   7 ShMem   1 Linda.
   1 Symmetry operations used in ECPInt.
 ECPInt:  NShTT=    2485 NPrTT=   12285 LenC2=    2443 LenP2D=    8594.
 LDataN:  DoStor=T MaxTD1= 7 Len=  274
 Number of processors reduced to   5 by ecpmxn.
 Symmetrizing basis deriv contribution to polar:
 IMax=3 JMax=2 DiffMx= 0.00D+00
 G2DrvN: will do     7 centers at a time, making    3 passes.
 Calling FoFCou, ICntrl=  3107 FMM=F I1Cent=   0 AccDes= 0.00D+00.
 Calling FoFCou, ICntrl=  3107 FMM=F I1Cent=   0 AccDes= 0.00D+00.
 Calling FoFCou, ICntrl=  3107 FMM=F I1Cent=   0 AccDes= 0.00D+00.
 End of G2Drv F.D. properties file   721 does not exist.
 End of G2Drv F.D. properties file   722 does not exist.
 End of G2Drv F.D. properties file   788 does not exist.
          IDoAtm=1111111111111111111
          Differentiating once with respect to nuclear coordinates.
 PrRfSu:  requested number of processors reduced to:   6 ShMem   1 Linda.
          There are    60 degrees of freedom in the 1st order CPHF.  IDoFFX=6 NUNeed=     0.
     54 vectors produced by pass  0 Test12= 9.31D-15 1.67D-09 XBig12= 2.01D-01 7.12D-02.
 AX will form    54 AO Fock derivatives at one time.
 PrRfSu:  requested number of processors reduced to:   6 ShMem   1 Linda.
     54 vectors produced by pass  1 Test12= 9.31D-15 1.67D-09 XBig12= 3.51D-02 2.23D-02.
 PrRfSu:  requested number of processors reduced to:   6 ShMem   1 Linda.
     54 vectors produced by pass  2 Test12= 9.31D-15 1.67D-09 XBig12= 4.11D-04 2.67D-03.
 PrRfSu:  requested number of processors reduced to:   6 ShMem   1 Linda.
     54 vectors produced by pass  3 Test12= 9.31D-15 1.67D-09 XBig12= 1.29D-06 1.32D-04.
 PrRfSu:  requested number of processors reduced to:   6 ShMem   1 Linda.
     54 vectors produced by pass  4 Test12= 9.31D-15 1.67D-09 XBig12= 2.86D-09 5.52D-06.
 PrRfSu:  requested number of processors reduced to:   6 ShMem   1 Linda.
     42 vectors produced by pass  5 Test12= 9.31D-15 1.67D-09 XBig12= 3.28D-12 2.06D-07.
 PrRfSu:  requested number of processors reduced to:   6 ShMem   1 Linda.
      5 vectors produced by pass  6 Test12= 9.31D-15 1.67D-09 XBig12= 7.12D-15 1.07D-08.
 InvSVY:  IOpt=1 It=  1 EMax= 3.89D-16
 Solved reduced A of dimension   317 with    60 vectors.
 End of Minotr F.D. properties file   721 does not exist.
 End of Minotr F.D. properties file   722 does not exist.
 End of Minotr F.D. properties file   788 does not exist.

 **********************************************************************

            Population analysis using the SCF density.

 **********************************************************************

 Orbital symmetries:
       Occupied  (A) (A) (A) (A) (A) (A) (A) (A) (A) (A) (A) (A)
                 (A) (A) (A) (A) (A) (A) (A) (A) (A) (A) (A) (A)
                 (A) (A) (A) (A) (A) (A) (A) (A) (A) (A) (A) (A)
                 (A) (A)
       Virtual   (A) (A) (A) (A) (A) (A) (A) (A) (A) (A) (A) (A)
                 (A) (A) (A) (A) (A) (A) (A) (A) (A) (A) (A) (A)
                 (A) (A) (A) (A) (A) (A) (A) (A) (A) (A) (A) (A)
                 (A) (A) (A) (A) (A) (A) (A) (A) (A) (A) (A) (A)
                 (A) (A) (A) (A) (A) (A) (A) (A) (A) (A) (A) (A)
                 (A) (A) (A) (A) (A) (A) (A) (A) (A) (A) (A) (A)
                 (A) (A) (A) (A) (A) (A) (A) (A) (A) (A) (A) (A)
                 (A) (A) (A) (A) (A) (A) (A) (A) (A) (A) (A) (A)
                 (A) (A) (A) (A) (A) (A) (A) (A) (A) (A) (A) (A)
                 (A) (A) (A) (A) (A) (A) (A) (A) (A) (A) (A) (A)
                 (A) (A) (A) (A) (A) (A) (A) (A) (A) (A) (A) (A)
                 (A) (A) (A) (A) (A) (A) (A) (A) (A) (A) (A) (A)
                 (A) (A) (A)
 The electronic state is 1-A.
 Alpha  occ. eigenvalues -- -101.47905 -19.20014 -19.19441 -19.11746 -10.33650
 Alpha  occ. eigenvalues --  -10.25490 -10.24943 -10.19084  -9.41286  -7.17347
 Alpha  occ. eigenvalues --   -7.16607  -7.16590  -1.08587  -1.04351  -1.00284
 Alpha  occ. eigenvalues --   -0.81100  -0.74432  -0.71847  -0.70539  -0.57554
 Alpha  occ. eigenvalues --   -0.55203  -0.54028  -0.49911  -0.48277  -0.47219
 Alpha  occ. eigenvalues --   -0.46253  -0.44839  -0.43610  -0.41982  -0.40802
 Alpha  occ. eigenvalues --   -0.38688  -0.37386  -0.35977  -0.30932  -0.29478
 Alpha  occ. eigenvalues --   -0.28539  -0.26756  -0.26131
 Alpha virt. eigenvalues --   -0.00781   0.00866   0.01193   0.02022   0.03053
 Alpha virt. eigenvalues --    0.03442   0.04559   0.05165   0.06646   0.07245
 Alpha virt. eigenvalues --    0.07901   0.08102   0.09306   0.09744   0.11217
 Alpha virt. eigenvalues --    0.11393   0.13059   0.15037   0.15787   0.16154
 Alpha virt. eigenvalues --    0.16605   0.17454   0.18483   0.19111   0.19877
 Alpha virt. eigenvalues --    0.20314   0.20693   0.21896   0.23356   0.24603
 Alpha virt. eigenvalues --    0.25025   0.26266   0.28237   0.28700   0.29138
 Alpha virt. eigenvalues --    0.31021   0.31808   0.32345   0.33059   0.34051
 Alpha virt. eigenvalues --    0.35145   0.36751   0.38878   0.42995   0.43910
 Alpha virt. eigenvalues --    0.47656   0.48035   0.51030   0.51631   0.52608
 Alpha virt. eigenvalues --    0.58066   0.59592   0.60802   0.62923   0.64573
 Alpha virt. eigenvalues --    0.65899   0.67840   0.70332   0.72316   0.75456
 Alpha virt. eigenvalues --    0.75792   0.80936   0.81284   0.83705   0.87141
 Alpha virt. eigenvalues --    0.89274   0.92286   0.92713   0.96076   0.97644
 Alpha virt. eigenvalues --    1.00062   1.02211   1.04037   1.06829   1.07224
 Alpha virt. eigenvalues --    1.11352   1.12302   1.19166   1.20706   1.22530
 Alpha virt. eigenvalues --    1.23177   1.25718   1.28020   1.30991   1.33234
 Alpha virt. eigenvalues --    1.34794   1.37461   1.43351   1.45287   1.49324
 Alpha virt. eigenvalues --    1.51856   1.55099   1.55937   1.60594   1.64798
 Alpha virt. eigenvalues --    1.67927   1.71082   1.73406   1.77147   1.79710
 Alpha virt. eigenvalues --    1.80570   1.82811   1.85517   1.86646   1.90441
 Alpha virt. eigenvalues --    1.92521   1.95278   1.96523   2.00357   2.01604
 Alpha virt. eigenvalues --    2.02759   2.04582   2.09649   2.09986   2.11999
 Alpha virt. eigenvalues --    2.12503   2.13501   2.14023   2.16634   2.18005
 Alpha virt. eigenvalues --    2.19363   2.21825   2.23264   2.27533   2.28482
 Alpha virt. eigenvalues --    2.28818   2.30660   2.31516   2.33716   2.34483
 Alpha virt. eigenvalues --    2.35312   2.37582   2.49030   2.53710   2.55726
 Alpha virt. eigenvalues --    2.63499   2.70230   2.81519   2.83903   2.89728
 Alpha virt. eigenvalues --    2.98340   3.12377   3.18355  10.78543  10.84052
 Alpha virt. eigenvalues --   11.01314  24.92478
          Condensed to atoms (all electrons):
               1          2          3          4          5          6
     1  C    5.521894  -0.116398  -0.000614  -0.028501  -0.001872  -0.562044
     2  C   -0.116398   5.246696   0.391448   0.414653   0.390251   0.028364
     3  H   -0.000614   0.391448   0.507809  -0.030198  -0.023648   0.001872
     4  H   -0.028501   0.414653  -0.030198   0.504867  -0.032972   0.003484
     5  H   -0.001872   0.390251  -0.023648  -0.032972   0.496802  -0.000462
     6  C   -0.562044   0.028364   0.001872   0.003484  -0.000462   6.453138
     7  H   -0.060653   0.000920   0.000000   0.000013  -0.000008   0.407032
     8  H   -0.084671  -0.004071  -0.000009   0.000139   0.000637   0.423303
     9  H    0.013990   0.003588   0.000051   0.000108  -0.001211   0.323900
    10  O    0.035333   0.036668  -0.044329  -0.073197  -0.038989  -0.029792
    11  O    0.045096   0.006324  -0.000797   0.001026  -0.001383  -0.012816
    12  C   -0.006938  -0.016503  -0.000849  -0.003535   0.001687  -0.005237
    13  H    0.000711  -0.001816   0.000095   0.000029   0.000001   0.000142
    14  H   -0.000712   0.001931   0.000009   0.000008  -0.000001  -0.000053
    15  H   -0.005795  -0.000551  -0.000253   0.001212   0.000036   0.000727
    16  H   -0.036946   0.001723  -0.000004   0.000181   0.000016   0.029459
    17  H   -0.002533  -0.014570  -0.002608   0.000114   0.001328   0.005430
    18  Cl   0.483881   0.005741  -0.000320   0.000085   0.000061  -0.163907
    19  O    0.380635   0.008829  -0.001176   0.016421  -0.002034  -0.154768
               7          8          9         10         11         12
     1  C   -0.060653  -0.084671   0.013990   0.035333   0.045096  -0.006938
     2  C    0.000920  -0.004071   0.003588   0.036668   0.006324  -0.016503
     3  H    0.000000  -0.000009   0.000051  -0.044329  -0.000797  -0.000849
     4  H    0.000013   0.000139   0.000108  -0.073197   0.001026  -0.003535
     5  H   -0.000008   0.000637  -0.001211  -0.038989  -0.001383   0.001687
     6  C    0.407032   0.423303   0.323900  -0.029792  -0.012816  -0.005237
     7  H    0.458463  -0.023422  -0.024083   0.007107   0.000065  -0.000118
     8  H   -0.023422   0.479125  -0.031279   0.000440   0.000364  -0.000069
     9  H   -0.024083  -0.031279   0.498774  -0.006225  -0.000012  -0.000109
    10  O    0.007107   0.000440  -0.006225   8.837507  -0.062789   0.017114
    11  O    0.000065   0.000364  -0.000012  -0.062789   8.792873   0.036739
    12  C   -0.000118  -0.000069  -0.000109   0.017114   0.036739   5.153172
    13  H    0.000000   0.000000   0.000000  -0.001099  -0.040658   0.394866
    14  H    0.000000   0.000000   0.000000  -0.001042  -0.040851   0.389908
    15  H    0.000000  -0.000001   0.000002   0.001322  -0.083285   0.406993
    16  H   -0.000027  -0.000082  -0.000011  -0.003931   0.073640  -0.002474
    17  H   -0.000068   0.000083  -0.000045   0.118309   0.092459  -0.009741
    18  Cl  -0.007703  -0.003721   0.005617  -0.142524  -0.000219  -0.001549
    19  O   -0.002780   0.007280  -0.005074  -0.159347  -0.105206   0.013089
              13         14         15         16         17         18
     1  C    0.000711  -0.000712  -0.005795  -0.036946  -0.002533   0.483881
     2  C   -0.001816   0.001931  -0.000551   0.001723  -0.014570   0.005741
     3  H    0.000095   0.000009  -0.000253  -0.000004  -0.002608  -0.000320
     4  H    0.000029   0.000008   0.001212   0.000181   0.000114   0.000085
     5  H    0.000001  -0.000001   0.000036   0.000016   0.001328   0.000061
     6  C    0.000142  -0.000053   0.000727   0.029459   0.005430  -0.163907
     7  H    0.000000   0.000000   0.000000  -0.000027  -0.000068  -0.007703
     8  H    0.000000   0.000000  -0.000001  -0.000082   0.000083  -0.003721
     9  H    0.000000   0.000000   0.000002  -0.000011  -0.000045   0.005617
    10  O   -0.001099  -0.001042   0.001322  -0.003931   0.118309  -0.142524
    11  O   -0.040658  -0.040851  -0.083285   0.073640   0.092459  -0.000219
    12  C    0.394866   0.389908   0.406993  -0.002474  -0.009741  -0.001549
    13  H    0.499217  -0.024478  -0.032839   0.002064  -0.003141  -0.000003
    14  H   -0.024478   0.496665  -0.030435  -0.003600   0.001765  -0.000005
    15  H   -0.032839  -0.030435   0.530746   0.002042   0.001204  -0.000027
    16  H    0.002064  -0.003600   0.002042   0.282506  -0.004833  -0.006704
    17  H   -0.003141   0.001765   0.001204  -0.004833   0.268869   0.000903
    18  Cl  -0.000003  -0.000005  -0.000027  -0.006704   0.000903  17.187434
    19  O   -0.000840  -0.000057   0.005507   0.134387  -0.005704  -0.113895
              19
     1  C    0.380635
     2  C    0.008829
     3  H   -0.001176
     4  H    0.016421
     5  H   -0.002034
     6  C   -0.154768
     7  H   -0.002780
     8  H    0.007280
     9  H   -0.005074
    10  O   -0.159347
    11  O   -0.105206
    12  C    0.013089
    13  H   -0.000840
    14  H   -0.000057
    15  H    0.005507
    16  H    0.134387
    17  H   -0.005704
    18  Cl  -0.113895
    19  O    8.531231
 Mulliken charges:
               1
     1  C    0.426137
     2  C   -0.383228
     3  H    0.203523
     4  H    0.226065
     5  H    0.211762
     6  C   -0.747770
     7  H    0.245262
     8  H    0.235952
     9  H    0.222020
    10  O   -0.490535
    11  O   -0.700570
    12  C   -0.366445
    13  H    0.207751
    14  H    0.210950
    15  H    0.203397
    16  H    0.532594
    17  H    0.552779
    18  Cl  -0.243145
    19  O   -0.546498
 Sum of Mulliken charges =   0.00000
 Mulliken charges with hydrogens summed into heavy atoms:
               1
     1  C    0.426137
     2  C    0.258122
     6  C   -0.044536
    10  O   -0.490535
    11  O    0.384803
    12  C    0.255653
    18  Cl  -0.243145
    19  O   -0.546498
 APT charges:
               1
     1  C    0.176527
     2  C   -1.336031
     3  H    0.519443
     4  H    0.352866
     5  H    0.510241
     6  C   -1.507891
     7  H    0.599966
     8  H    0.485737
     9  H    0.487518
    10  O   -0.184827
    11  O   -0.325767
    12  C   -1.486069
    13  H    0.542083
    14  H    0.626307
    15  H    0.291733
    16  H    0.493898
    17  H    0.500094
    18  Cl  -0.188145
    19  O   -0.557683
 Sum of APT charges =   0.00000
 APT charges with hydrogens summed into heavy atoms:
               1
     1  C    0.176527
     2  C    0.046519
     6  C    0.065330
    10  O   -0.184827
    11  O    0.668224
    12  C   -0.025946
    18  Cl  -0.188145
    19  O   -0.557683
 Electronic spatial extent (au):  <R**2>=           1338.1863
 Charge=              0.0000 electrons
 Dipole moment (field-independent basis, Debye):
    X=             -2.9997    Y=              3.9188    Z=             -0.3622  Tot=              4.9484
 Quadrupole moment (field-independent basis, Debye-Ang):
   XX=            -47.2922   YY=            -56.4950   ZZ=            -62.0518
   XY=              2.5158   XZ=              1.0333   YZ=             -2.3466
 Traceless Quadrupole moment (field-independent basis, Debye-Ang):
   XX=              7.9874   YY=             -1.2153   ZZ=             -6.7721
   XY=              2.5158   XZ=              1.0333   YZ=             -2.3466
 Octapole moment (field-independent basis, Debye-Ang**2):
  XXX=            -27.1342  YYY=              8.5083  ZZZ=             -7.9649  XYY=             -2.9233
  XXY=              3.9851  XXZ=              6.4166  XZZ=             -5.7639  YZZ=             -0.7705
  YYZ=             -0.6470  XYZ=              3.7978
 Hexadecapole moment (field-independent basis, Debye-Ang**3):
 XXXX=           -902.2192 YYYY=           -523.7630 ZZZZ=           -248.7968 XXXY=             19.2859
 XXXZ=              1.7502 YYYX=              0.2683 YYYZ=             -4.8434 ZZZX=              1.5045
 ZZZY=             -2.2111 XXYY=           -257.5141 XXZZ=           -191.2802 YYZZ=           -122.5425
 XXYZ=             -9.4461 YYXZ=             -5.5726 ZZXY=              1.7101
 N-N= 5.231875724889D+02 E-N=-3.041941622252D+03  KE= 8.416782325300D+02
  Exact polarizability:   0.000   0.000   0.000   0.000   0.000   0.000
 Approx polarizability: 114.958  -2.961 118.527  -4.623   6.100 111.881
 PrsmSu:  requested number of processors reduced to:   4 ShMem   1 Linda.
 PrsmSu:  requested number of processors reduced to:   4 ShMem   1 Linda.
   1 Symmetry operations used in ECPInt.
 ECPInt:  NShTT=    2485 NPrTT=   12285 LenC2=    2443 LenP2D=    8594.
 LDataN:  DoStor=T MaxTD1= 8 Len=  415
 Calling FoFJK, ICntrl=    100147 FMM=F ISym2X=0 I1Cent= 0 IOpClX= 0 NMat=1 NMatS=1 NMatT=0.
 CoulSu:  requested number of processors reduced to:   4 ShMem   1 Linda.
 ***** Axes restored to original set *****
 -------------------------------------------------------------------
 Center     Atomic                   Forces (Hartrees/Bohr)
 Number     Number              X              Y              Z
 -------------------------------------------------------------------
      1        6          -0.028742958   -0.013334904   -0.007734190
      2        6           0.008202863   -0.007213160   -0.004228482
      3        1           0.000186649    0.003290452    0.002215892
      4        1          -0.001043082    0.001556052   -0.000492776
      5        1          -0.004008254    0.002933892    0.000868231
      6        6           0.019181486    0.010500720    0.004437267
      7        1          -0.007308610    0.001138434   -0.002410448
      8        1          -0.003545353   -0.002334013    0.002786162
      9        1          -0.002771562   -0.002048475   -0.001016160
     10        8          -0.019525051    0.011227692   -0.018906588
     11        8           0.009147179    0.010901472    0.014357119
     12        6           0.003232629   -0.012753580   -0.004951126
     13        1          -0.002455844    0.002006072    0.004376349
     14        1          -0.002097716    0.004825168   -0.001328244
     15        1          -0.001347035    0.000962580    0.000327253
     16        1          -0.005562842    0.013878448   -0.035017716
     17        1           0.014342800   -0.009267537    0.018571459
     18       17           0.013094981   -0.014502849   -0.004352104
     19        8           0.011019721   -0.001766464    0.032498102
 -------------------------------------------------------------------
 Cartesian Forces:  Max     0.035017716 RMS     0.011116039
 FormGI is forming the generalized inverse of G from B-inverse, IUseBI=4.

 GradGradGradGradGradGradGradGradGradGradGradGradGradGradGradGradGradGrad
 Berny optimization.
 Internal  Forces:  Max     0.020627400 RMS     0.006194153
 Search for a saddle point.
 Step number   1 out of a maximum of   99
 All quantities printed in internal units (Hartrees-Bohrs-Radians)
 Swapping is turned off.
 Second derivative matrix not updated -- analytic derivatives used.
 ITU=  0
     Eigenvalues ---   -0.05342   0.00172   0.00226   0.00257   0.00299
     Eigenvalues ---    0.00379   0.00607   0.01206   0.02336   0.03005
     Eigenvalues ---    0.03375   0.04431   0.04591   0.05413   0.06114
     Eigenvalues ---    0.06443   0.06530   0.06580   0.06615   0.07453
     Eigenvalues ---    0.08281   0.10374   0.11277   0.12339   0.12566
     Eigenvalues ---    0.13560   0.13706   0.13892   0.14548   0.14668
     Eigenvalues ---    0.17001   0.17855   0.18584   0.18755   0.18886
     Eigenvalues ---    0.19060   0.19431   0.20798   0.32315   0.32551
     Eigenvalues ---    0.32828   0.33283   0.33433   0.33756   0.33862
     Eigenvalues ---    0.33939   0.34083   0.34165   0.35855   0.36320
     Eigenvalues ---    0.59169
 Eigenvectors required to have negative eigenvalues:
                          R12       R15       R19       R2        R14
   1                    0.58510  -0.57576  -0.39340  -0.25386   0.23081
                          A31       R4        D16       A32       A3
   1                    0.08170   0.07923   0.06560  -0.06110  -0.06062
 RFO step:  Lambda0=5.815436850D-04 Lambda=-2.34074539D-02.
 Linear search not attempted -- option 19 set.
 Maximum step size (   0.300) exceeded in Quadratic search.
    -- Step size scaled by   0.760
 Iteration  1 RMS(Cart)=  0.03509252 RMS(Int)=  0.00207779
 Iteration  2 RMS(Cart)=  0.00257341 RMS(Int)=  0.00068795
 Iteration  3 RMS(Cart)=  0.00000636 RMS(Int)=  0.00068793
 Iteration  4 RMS(Cart)=  0.00000001 RMS(Int)=  0.00068793
 Variable       Old X    -DE/DX   Delta X   Delta X   Delta X     New X
                                 (Linear)    (Quad)   (Total)
    R1        2.82221   0.00902   0.00000   0.02716   0.02716   2.84937
    R2        3.03373   0.01285   0.00000   0.03207   0.03214   3.06587
    R3        3.52364   0.01738   0.00000   0.06221   0.06221   3.58586
    R4        2.38880   0.00536   0.00000   0.00216   0.00250   2.39130
    R5        2.06774  -0.00111   0.00000  -0.00031  -0.00031   2.06743
    R6        2.06929   0.00013   0.00000   0.00273   0.00273   2.07202
    R7        2.07027  -0.00168   0.00000  -0.00231  -0.00231   2.06796
    R8        2.73870  -0.00061   0.00000  -0.01702  -0.01702   2.72168
    R9        2.08721  -0.00685   0.00000  -0.01580  -0.01580   2.07141
   R10        2.07925  -0.00448   0.00000  -0.01047  -0.01047   2.06878
   R11        2.07635  -0.00175   0.00000  -0.00446  -0.00446   2.07189
   R12        2.43927  -0.01323   0.00000   0.01196   0.01100   2.45027
   R13        2.74210  -0.00008   0.00000  -0.00651  -0.00651   2.73560
   R14        2.11318  -0.02021   0.00000  -0.09841  -0.09806   2.01512
   R15        2.40149  -0.01202   0.00000  -0.16409  -0.16498   2.23650
   R16        2.07074  -0.00238   0.00000  -0.00604  -0.00604   2.06470
   R17        2.07353  -0.00292   0.00000  -0.00736  -0.00736   2.06616
   R18        2.06650   0.00082   0.00000   0.00167   0.00167   2.06817
   R19        2.85981   0.00055   0.00000   0.02868   0.02958   2.88939
    A1        1.90747  -0.00251   0.00000  -0.01169  -0.01269   1.89478
    A2        1.89804  -0.00383   0.00000  -0.01740  -0.01740   1.88063
    A3        2.15905  -0.00888   0.00000  -0.04026  -0.03983   2.11922
    A4        1.63415   0.00599   0.00000   0.02615   0.02612   1.66027
    A5        1.82590   0.00715   0.00000   0.04541   0.04621   1.87211
    A6        1.96302   0.00646   0.00000   0.01874   0.01636   1.97937
    A7        1.95507  -0.00348   0.00000  -0.02189  -0.02196   1.93311
    A8        1.92311  -0.00400   0.00000  -0.01577  -0.01614   1.90698
    A9        1.84805   0.00442   0.00000   0.01829   0.01808   1.86613
   A10        1.93983  -0.00320   0.00000  -0.01490  -0.01512   1.92472
   A11        1.92695   0.00054   0.00000   0.00856   0.00842   1.93537
   A12        1.86664   0.00655   0.00000   0.02981   0.02953   1.89617
   A13        1.92063  -0.00399   0.00000  -0.02135  -0.02153   1.89911
   A14        1.95623  -0.00170   0.00000  -0.00608  -0.00614   1.95009
   A15        1.94869  -0.00320   0.00000  -0.02303  -0.02323   1.92546
   A16        1.86478   0.00331   0.00000   0.02086   0.02083   1.88561
   A17        1.86634   0.00330   0.00000   0.01690   0.01657   1.88292
   A18        1.90312   0.00282   0.00000   0.01583   0.01575   1.91887
   A19        1.99298   0.00340   0.00000  -0.00417  -0.00336   1.98963
   A20        1.75472  -0.01111   0.00000  -0.04959  -0.04931   1.70540
   A21        1.87995   0.00632   0.00000   0.02876   0.02737   1.90732
   A22        1.89342   0.00187   0.00000   0.02778   0.02811   1.92153
   A23        1.92212   0.00619   0.00000   0.05382   0.05322   1.97534
   A24        1.65606  -0.00278   0.00000  -0.04323  -0.04400   1.61207
   A25        1.84520   0.00635   0.00000   0.02123   0.02111   1.86631
   A26        1.86189   0.00604   0.00000   0.01628   0.01617   1.87806
   A27        1.93715  -0.00030   0.00000  -0.00221  -0.00222   1.93493
   A28        1.92533  -0.00415   0.00000  -0.00827  -0.00853   1.91680
   A29        1.95318  -0.00372   0.00000  -0.01417  -0.01418   1.93900
   A30        1.93692  -0.00334   0.00000  -0.01005  -0.01006   1.92685
   A31        2.36786   0.01560   0.00000   0.10738   0.10884   2.47670
   A32        2.63774   0.00857   0.00000   0.06741   0.06622   2.70397
   A33        1.92659  -0.02063   0.00000  -0.10096  -0.10092   1.82568
    D1       -2.78837  -0.00190   0.00000  -0.01465  -0.01427  -2.80264
    D2       -0.71590  -0.00147   0.00000  -0.00652  -0.00624  -0.72215
    D3        1.42517  -0.00140   0.00000  -0.00730  -0.00707   1.41810
    D4       -1.02678   0.00226   0.00000   0.00291   0.00291  -1.02387
    D5        1.04569   0.00269   0.00000   0.01104   0.01094   1.05663
    D6       -3.09642   0.00276   0.00000   0.01026   0.01011  -3.08632
    D7        1.33585  -0.00220   0.00000  -0.03495  -0.03508   1.30077
    D8       -2.87486  -0.00177   0.00000  -0.02683  -0.02705  -2.90191
    D9       -0.73379  -0.00170   0.00000  -0.02760  -0.02788  -0.76167
   D10       -1.04352   0.00344   0.00000   0.02553   0.02596  -1.01756
   D11       -3.05088   0.00110   0.00000   0.02244   0.02352  -3.02737
   D12       -2.98628   0.00569   0.00000   0.03623   0.03708  -2.94919
   D13        1.28955   0.00335   0.00000   0.03314   0.03464   1.32419
   D14        1.30107  -0.00432   0.00000  -0.00021   0.00029   1.30136
   D15       -0.70629  -0.00667   0.00000  -0.00330  -0.00216  -0.70845
   D16        3.08486  -0.00602   0.00000  -0.06750  -0.06645   3.01841
   D17        0.89001  -0.00249   0.00000  -0.06419  -0.06176   0.82825
   D18       -0.86043  -0.01483   0.00000  -0.12146  -0.12088  -0.98131
   D19       -2.90298   0.00456   0.00000   0.02517   0.02545  -2.87752
   D20       -0.97040  -0.00335   0.00000  -0.01967  -0.01970  -0.99010
   D21       -0.78329   0.00336   0.00000   0.01473   0.01483  -0.76846
   D22        1.14929  -0.00454   0.00000  -0.03010  -0.03032   1.11897
   D23        1.32938   0.00384   0.00000   0.02001   0.02011   1.34949
   D24       -3.02123  -0.00407   0.00000  -0.02482  -0.02505  -3.04628
   D25        0.22933   0.00122   0.00000   0.00407   0.00498   0.23431
   D26       -1.86155   0.00017   0.00000   0.02086   0.02193  -1.83962
   D27        2.99201  -0.00058   0.00000  -0.01320  -0.01323   2.97878
   D28       -1.24146   0.00060   0.00000  -0.00471  -0.00453  -1.24599
   D29        0.87062   0.00014   0.00000  -0.00802  -0.00794   0.86268
   D30        1.20127  -0.00086   0.00000   0.00100   0.00082   1.20209
   D31       -3.03219   0.00032   0.00000   0.00949   0.00952  -3.02267
   D32       -0.92012  -0.00014   0.00000   0.00619   0.00611  -0.91401
   D33       -1.80721  -0.00170   0.00000  -0.02812  -0.02868  -1.83589
   D34        0.16722   0.00431   0.00000   0.01929   0.01726   0.18448
   D35        2.00645   0.00223   0.00000   0.01237   0.01185   2.01830
   D36        0.05639  -0.00008   0.00000  -0.01224  -0.01143   0.04496
   D37       -0.76184  -0.00077   0.00000   0.03000   0.02836  -0.73348
         Item               Value     Threshold  Converged?
 Maximum Force            0.020627     0.000450     NO 
 RMS     Force            0.006194     0.000300     NO 
 Maximum Displacement     0.121074     0.001800     NO 
 RMS     Displacement     0.035060     0.001200     NO 
 Predicted change in Energy=-1.215587D-02
 GradGradGradGradGradGradGradGradGradGradGradGradGradGradGradGradGradGrad

                          Input orientation:                          
 ---------------------------------------------------------------------
 Center     Atomic      Atomic             Coordinates (Angstroms)
 Number     Number       Type             X           Y           Z
 ---------------------------------------------------------------------
      1          6           0        0.872195    0.098252    0.420282
      2          6           0       -0.384388    2.084753   -0.619848
      3          1           0       -1.173774    2.294866   -1.347614
      4          1           0       -0.742049    2.257395    0.402166
      5          1           0        0.480456    2.720959   -0.831556
      6          6           0        2.113995    0.936509    0.589965
      7          1           0        2.857428    0.357576    1.150034
      8          1           0        2.553628    1.209634   -0.374712
      9          1           0        1.887074    1.840762    1.166956
     10          8           0        0.000053    0.709010   -0.803848
     11          8           0       -1.741803   -0.821391   -0.106972
     12          6           0       -3.039247   -0.275458    0.230942
     13          1           0       -3.578782   -0.132578   -0.708336
     14          1           0       -3.558211   -1.013911    0.848044
     15          1           0       -2.935293    0.669484    0.773203
     16          1           0       -1.112763   -0.830900    0.754035
     17          1           0       -1.043397   -0.048826   -0.669162
     18         17           0        1.365556   -1.487507   -0.497690
     19          8           0        0.076803   -0.105052    1.383251
 ---------------------------------------------------------------------
                    Distance matrix (angstroms):
                    1          2          3          4          5
     1  C    0.000000
     2  C    2.570419   0.000000
     3  H    3.483756   1.094038   0.000000
     4  H    2.695924   1.096467   1.802642   0.000000
     5  H    2.932431   1.094319   1.784473   1.797632   0.000000
     6  C    1.507824   3.004002   4.050773   3.152299   2.805964
     7  H    2.130947   4.077376   5.122687   4.138218   3.893877
     8  H    2.166657   3.075364   4.002223   3.544408   2.605927
     9  H    2.150312   2.900300   3.987237   2.769617   2.597571
    10  O    1.622391   1.440250   2.046580   2.098256   2.068694
    11  O    2.820767   3.248275   3.401898   3.276836   4.244020
    12  C    3.933813   3.652768   3.546603   3.423708   4.742966
    13  H    4.597636   3.889542   3.476381   3.871981   4.963393
    14  H    4.587851   4.672213   4.631896   4.339471   5.751620
    15  H    3.866241   3.232753   3.200419   2.733029   4.295479
    16  H    2.216929   3.304409   3.767103   3.130304   4.203350
    17  H    2.208622   2.233580   2.443396   2.560704   3.165471
    18  Cl   1.897554   3.979732   4.634319   4.390448   4.313474
    19  O    1.265421   3.003390   3.844629   2.685926   3.613122
                    6          7          8          9         10
     6  C    0.000000
     7  H    1.096145   0.000000
     8  H    1.094749   1.772892   0.000000
     9  H    1.096396   1.772488   1.794256   0.000000
    10  O    2.542286   3.479332   2.637333   2.953943   0.000000
    11  O    4.294545   4.911512   4.758936   4.677468   2.421121
    12  C    5.306002   6.001353   5.818295   5.442715   3.358171
    13  H    5.936012   6.717037   6.286437   6.106257   3.677697
    14  H    6.003720   6.567541   6.617692   6.156459   4.284675
    15  H    5.059663   5.813338   5.633624   4.978169   3.332402
    16  H    3.682747   4.163137   4.345144   4.038231   2.456966
    17  H    3.539125   4.323317   3.822173   3.940753   1.296627
    18  Cl   2.760255   2.888773   2.949781   3.757713   2.604423
    19  O    2.421632   2.828478   3.309606   2.666470   2.334950
                   11         12         13         14         15
    11  O    0.000000
    12  C    1.447615   0.000000
    13  H    2.051973   1.092592   0.000000
    14  H    2.061178   1.093367   1.788712   0.000000
    15  H    2.102816   1.094426   1.803424   1.796509   0.000000
    16  H    1.066356   2.072072   2.950836   2.454087   2.360749
    17  H    1.183506   2.201129   2.537071   3.091536   2.485087
    18  Cl   3.201883   4.626257   5.130954   5.126283   4.976453
    19  O    2.457892   3.326653   4.211745   3.784943   3.169351
                   16         17         18         19
    16  H    0.000000
    17  H    1.625406   0.000000
    18  Cl   2.853071   2.811096   0.000000
    19  O    1.528998   2.338891   2.666460   0.000000
 Stoichiometry    C4H11ClO3
 Framework group  C1[X(C4H11ClO3)]
 Deg. of freedom    51
 Full point group                 C1      NOp   1
 Largest Abelian subgroup         C1      NOp   1
 Largest concise Abelian subgroup C1      NOp   1
                         Standard orientation:                         
 ---------------------------------------------------------------------
 Center     Atomic      Atomic             Coordinates (Angstroms)
 Number     Number       Type             X           Y           Z
 ---------------------------------------------------------------------
      1          6           0        0.857231    0.131402    0.416763
      2          6           0       -0.460098    2.081967   -0.616194
      3          1           0       -1.256421    2.270189   -1.342391
      4          1           0       -0.821462    2.240880    0.406744
      5          1           0        0.384873    2.744576   -0.827164
      6          6           0        2.073389    1.006282    0.587290
      7          1           0        2.834691    0.448490    1.144804
      8          1           0        2.503310    1.295244   -0.377149
      9          1           0        1.820041    1.901659    1.167118
     10          8           0       -0.034555    0.718973   -0.804560
     11          8           0       -1.728513   -0.865245   -0.109876
     12          6           0       -3.041396   -0.359667    0.231177
     13          1           0       -3.586232   -0.230515   -0.707029
     14          1           0       -3.537026   -1.115167    0.846824
     15          1           0       -2.965295    0.586465    0.775982
     16          1           0       -1.098341   -0.858167    0.750326
     17          1           0       -1.054480   -0.070385   -0.670737
     18         17           0        1.397018   -1.436174   -0.506300
     19          8           0        0.069604   -0.098505    1.380130
 ---------------------------------------------------------------------
 Rotational constants (GHZ):      2.0008279      1.2126108      0.9532551
 Basis read from rwf:  (5D, 7F)
 Pseudo-potential data read from rwf file.
 There are   197 symmetry adapted cartesian basis functions of A   symmetry.
 There are   185 symmetry adapted basis functions of A   symmetry.
   185 basis functions,   337 primitive gaussians,   197 cartesian basis functions
    38 alpha electrons       38 beta electrons
       nuclear repulsion energy       521.0467852387 Hartrees.
 NAtoms=   19 NActive=   19 NUniq=   19 SFac= 1.00D+00 NAtFMM=   60 NAOKFM=F Big=F
 Integral buffers will be    131072 words long.
 Raffenetti 2 integral format.
 Two-electron integral symmetry is turned on.
 One-electron integrals computed using PRISM.
 PrsmSu:  requested number of processors reduced to:   4 ShMem   1 Linda.
   1 Symmetry operations used in ECPInt.
 ECPInt:  NShTT=    2485 NPrTT=   12285 LenC2=    2442 LenP2D=    8582.
 LDataN:  DoStor=T MaxTD1= 6 Len=  172
 NBasis=   185 RedAO= T EigKep=  6.90D-05  NBF=   185
 NBsUse=   185 1.00D-06 EigRej= -1.00D+00 NBFU=   185
 Initial guess from the checkpoint file:  "/lustre/SCRATCH5/gau/Gau-24590.chk"
 B after Tr=     0.000000    0.000000    0.000000
         Rot=    0.999896   -0.000136   -0.000068   -0.014444 Ang=  -1.66 deg.
 ExpMin= 4.38D-02 ExpMax= 6.95D+04 ExpMxC= 2.37D+03 IAcc=2 IRadAn=         4 AccDes= 0.00D+00
 Harris functional with IExCor=  402 and IRadAn=       4 diagonalized for initial guess.
 HarFok:  IExCor=  402 AccDes= 0.00D+00 IRadAn=         4 IDoV= 1 UseB2=F ITyADJ=14
 ICtDFT=  3500011 ScaDFX=  1.000000  1.000000  1.000000  1.000000
 FoFCou: FMM=F IPFlag=           0 FMFlag=      100000 FMFlg1=           0
         NFxFlg=           0 DoJE=T BraDBF=F KetDBF=T FulRan=T
         wScrn=  0.000000 ICntrl=     500 IOpCl=  0 I1Cent=   200000004 NGrid=           0
         NMat0=    1 NMatS0=      1 NMatT0=    0 NMatD0=    1 NMtDS0=    0 NMtDT0=    0
 Petite list used in FoFCou.
 Requested convergence on RMS density matrix=1.00D-08 within 128 cycles.
 Requested convergence on MAX density matrix=1.00D-06.
 Requested convergence on             energy=1.00D-06.
 No special actions if energy rises.
 SCF Done:  E(RB3LYP) =  -844.901081503     A.U. after   12 cycles
            NFock= 12  Conv=0.29D-08     -V/T= 2.0038
 PrsmSu:  requested number of processors reduced to:   4 ShMem   1 Linda.
   1 Symmetry operations used in ECPInt.
 ECPInt:  NShTT=    2485 NPrTT=   12285 LenC2=    2442 LenP2D=    8582.
 LDataN:  DoStor=T MaxTD1= 7 Len=  274
 Calling FoFJK, ICntrl=      2127 FMM=F ISym2X=0 I1Cent= 0 IOpClX= 0 NMat=1 NMatS=1 NMatT=0.
 ***** Axes restored to original set *****
 -------------------------------------------------------------------
 Center     Atomic                   Forces (Hartrees/Bohr)
 Number     Number              X              Y              Z
 -------------------------------------------------------------------
      1        6          -0.011550300   -0.003625281   -0.001099724
      2        6           0.003784425   -0.002777442   -0.001302796
      3        1          -0.000047622    0.001211384    0.000760523
      4        1          -0.000545554    0.000686362   -0.000195584
      5        1          -0.001329605    0.001154731    0.000408755
      6        6           0.006337006    0.004025707    0.001177953
      7        1          -0.002409509    0.000274716   -0.000202324
      8        1          -0.000948190   -0.000927363    0.000735532
      9        1          -0.001082120   -0.000532757   -0.000534909
     10        8          -0.006882442    0.004899420   -0.008476816
     11        8          -0.001481594    0.001901058    0.004084417
     12        6           0.001127946   -0.004643319   -0.001739489
     13        1          -0.000774249    0.000759781    0.001339554
     14        1          -0.000736870    0.001511987   -0.000309629
     15        1          -0.000514290    0.000269291    0.000089172
     16        1          -0.001509098    0.006344234   -0.009769545
     17        1           0.006599709   -0.002214750    0.005346034
     18       17           0.005627980   -0.005448531   -0.001712688
     19        8           0.006334377   -0.002869227    0.011401562
 -------------------------------------------------------------------
 Cartesian Forces:  Max     0.011550300 RMS     0.003975387

 GradGradGradGradGradGradGradGradGradGradGradGradGradGradGradGradGradGrad
 Berny optimization.
 FormGI is forming the generalized inverse of G from B-inverse, IUseBI=4.
 Internal  Forces:  Max     0.006844591 RMS     0.002158097
 Search for a saddle point.
 Step number   2 out of a maximum of   99
 All quantities printed in internal units (Hartrees-Bohrs-Radians)
 Swapping is turned off.
 Update second derivatives using D2CorX and points    1    2
 ITU=  0  0
     Eigenvalues ---   -0.05190   0.00173   0.00241   0.00247   0.00320
     Eigenvalues ---    0.00384   0.00713   0.01265   0.02375   0.03053
     Eigenvalues ---    0.03359   0.04430   0.04590   0.05447   0.06106
     Eigenvalues ---    0.06442   0.06533   0.06578   0.06614   0.07475
     Eigenvalues ---    0.08512   0.10321   0.11331   0.12338   0.12595
     Eigenvalues ---    0.13553   0.13852   0.13898   0.14472   0.14657
     Eigenvalues ---    0.17057   0.17833   0.18592   0.18787   0.18907
     Eigenvalues ---    0.19054   0.19631   0.21141   0.32311   0.32552
     Eigenvalues ---    0.32821   0.33282   0.33429   0.33755   0.33862
     Eigenvalues ---    0.33940   0.34083   0.34165   0.35855   0.36319
     Eigenvalues ---    0.59163
 Eigenvectors required to have negative eigenvalues:
                          R12       R15       R19       R14       R2
   1                    0.58425  -0.54847  -0.41790   0.25363  -0.25242
                          A31       R4        D16       A32       A3
   1                    0.08016   0.07958   0.07255  -0.07082  -0.06250
 RFO step:  Lambda0=2.165307306D-04 Lambda=-4.28887990D-03.
 Linear search not attempted -- option 19 set.
 Iteration  1 RMS(Cart)=  0.04136589 RMS(Int)=  0.00342048
 Iteration  2 RMS(Cart)=  0.00423593 RMS(Int)=  0.00094448
 Iteration  3 RMS(Cart)=  0.00003857 RMS(Int)=  0.00094419
 Iteration  4 RMS(Cart)=  0.00000006 RMS(Int)=  0.00094419
 Variable       Old X    -DE/DX   Delta X   Delta X   Delta X     New X
                                 (Linear)    (Quad)   (Total)
    R1        2.84937   0.00328   0.00000   0.01422   0.01422   2.86359
    R2        3.06587   0.00589   0.00000   0.03166   0.03091   3.09678
    R3        3.58586   0.00684   0.00000   0.01671   0.01671   3.60257
    R4        2.39130   0.00189   0.00000   0.00538   0.00497   2.39627
    R5        2.06743  -0.00024   0.00000   0.00040   0.00040   2.06783
    R6        2.07202   0.00011   0.00000   0.00172   0.00172   2.07374
    R7        2.06796  -0.00046   0.00000  -0.00166  -0.00166   2.06630
    R8        2.72168  -0.00027   0.00000  -0.00795  -0.00795   2.71373
    R9        2.07141  -0.00189   0.00000  -0.00599  -0.00599   2.06542
   R10        2.06878  -0.00126   0.00000  -0.00490  -0.00490   2.06388
   R11        2.07189  -0.00049   0.00000  -0.00213  -0.00213   2.06976
   R12        2.45027  -0.00323   0.00000  -0.01821  -0.01834   2.43193
   R13        2.73560  -0.00014   0.00000  -0.01330  -0.01330   2.72230
   R14        2.01512  -0.00377   0.00000   0.01822   0.01900   2.03412
   R15        2.23650  -0.00088   0.00000  -0.02954  -0.02933   2.20717
   R16        2.06470  -0.00067   0.00000  -0.00125  -0.00125   2.06345
   R17        2.06616  -0.00084   0.00000  -0.00201  -0.00201   2.06415
   R18        2.06817   0.00023   0.00000   0.00276   0.00276   2.07093
   R19        2.88939   0.00158   0.00000  -0.11322  -0.11267   2.77672
    A1        1.89478  -0.00173   0.00000  -0.01347  -0.01319   1.88160
    A2        1.88063  -0.00161   0.00000  -0.00481  -0.00513   1.87550
    A3        2.11922  -0.00309   0.00000  -0.03096  -0.02934   2.08988
    A4        1.66027   0.00246   0.00000   0.02262   0.02325   1.68352
    A5        1.87211   0.00339   0.00000   0.03181   0.02977   1.90187
    A6        1.97937   0.00189   0.00000   0.00770   0.00629   1.98566
    A7        1.93311  -0.00140   0.00000  -0.01608  -0.01609   1.91702
    A8        1.90698  -0.00145   0.00000  -0.00753  -0.00763   1.89934
    A9        1.86613   0.00150   0.00000   0.00877   0.00872   1.87485
   A10        1.92472  -0.00122   0.00000  -0.00690  -0.00699   1.91772
   A11        1.93537   0.00035   0.00000   0.00650   0.00645   1.94182
   A12        1.89617   0.00234   0.00000   0.01611   0.01602   1.91219
   A13        1.89911  -0.00150   0.00000  -0.01658  -0.01667   1.88244
   A14        1.95009  -0.00051   0.00000  -0.00191  -0.00192   1.94818
   A15        1.92546  -0.00128   0.00000  -0.01196  -0.01205   1.91342
   A16        1.88561   0.00125   0.00000   0.01499   0.01498   1.90059
   A17        1.88292   0.00114   0.00000   0.00642   0.00624   1.88916
   A18        1.91887   0.00099   0.00000   0.00963   0.00962   1.92849
   A19        1.98963   0.00069   0.00000  -0.00467  -0.00528   1.98435
   A20        1.70540  -0.00385   0.00000  -0.01592  -0.01628   1.68912
   A21        1.90732   0.00220   0.00000   0.00729   0.00660   1.91393
   A22        1.92153   0.00119   0.00000   0.03777   0.03947   1.96100
   A23        1.97534   0.00272   0.00000   0.04887   0.04789   2.02323
   A24        1.61207  -0.00171   0.00000  -0.05757  -0.05786   1.55421
   A25        1.86631   0.00198   0.00000   0.01512   0.01505   1.88136
   A26        1.87806   0.00191   0.00000   0.01023   0.01016   1.88821
   A27        1.93493  -0.00005   0.00000   0.00556   0.00552   1.94046
   A28        1.91680  -0.00128   0.00000  -0.00511  -0.00523   1.91157
   A29        1.93900  -0.00127   0.00000  -0.01444  -0.01447   1.92453
   A30        1.92685  -0.00112   0.00000  -0.00989  -0.00992   1.91693
   A31        2.47670   0.00580   0.00000   0.11963   0.12049   2.59719
   A32        2.70397   0.00275   0.00000   0.01970   0.01883   2.72279
   A33        1.82568  -0.00662   0.00000  -0.02372  -0.02795   1.79773
    D1       -2.80264  -0.00077   0.00000  -0.06484  -0.06533  -2.86798
    D2       -0.72215  -0.00051   0.00000  -0.05817  -0.05872  -0.78086
    D3        1.41810  -0.00050   0.00000  -0.05565  -0.05625   1.36185
    D4       -1.02387   0.00065   0.00000  -0.04667  -0.04650  -1.07037
    D5        1.05663   0.00091   0.00000  -0.04000  -0.03989   1.01674
    D6       -3.08632   0.00093   0.00000  -0.03749  -0.03742  -3.12373
    D7        1.30077  -0.00137   0.00000  -0.07157  -0.07109   1.22968
    D8       -2.90191  -0.00111   0.00000  -0.06490  -0.06448  -2.96639
    D9       -0.76167  -0.00110   0.00000  -0.06239  -0.06201  -0.82368
   D10       -1.01756   0.00157   0.00000   0.05488   0.05502  -0.96254
   D11       -3.02737   0.00093   0.00000   0.05699   0.05820  -2.96917
   D12       -2.94919   0.00272   0.00000   0.05417   0.05457  -2.89463
   D13        1.32419   0.00208   0.00000   0.05629   0.05774   1.38193
   D14        1.30136  -0.00115   0.00000   0.02891   0.02956   1.33091
   D15       -0.70845  -0.00179   0.00000   0.03102   0.03273  -0.67571
   D16        3.01841  -0.00277   0.00000  -0.10396  -0.10282   2.91559
   D17        0.82825  -0.00107   0.00000  -0.09033  -0.08854   0.73971
   D18       -0.98131  -0.00652   0.00000  -0.13665  -0.13498  -1.11629
   D19       -2.87752   0.00175   0.00000   0.00358   0.00419  -2.87333
   D20       -0.99010  -0.00127   0.00000  -0.01382  -0.01436  -1.00446
   D21       -0.76846   0.00119   0.00000  -0.00674  -0.00619  -0.77465
   D22        1.11897  -0.00183   0.00000  -0.02413  -0.02474   1.09422
   D23        1.34949   0.00142   0.00000  -0.00072  -0.00015   1.34934
[...]
 .00017071,0.00207996,-0.00601791,0.00919887,-0.05558176,-0.02984243,-0
 .00333261,0.00248555,0.00540238,-0.01638761,0.06795748,-0.00237963,0.0
 0210610,-0.00281659,0.07582788,-0.03498628,-0.27720998,0.00755275,-0.0
 0206122,-0.01776216,-0.08416248,0.04529943,0.29657854,-0.00016784,0.00
 049865,-0.00085553,-0.23718514,-0.12005832,0.04721088,-0.01770848,-0.0
 1139031,0.00584771,-0.00671338,-0.00414806,0.00060595,0.24838686,-0.00
 377951,0.00091880,-0.00285821,-0.11234611,-0.11788978,0.02964332,0.004
 96720,0.00576264,-0.00210131,0.00371756,0.00530914,0.00000117,0.126466
 41,0.14433810,0.00162878,0.00089081,-0.00031151,0.04737891,0.02999809,
 -0.06556426,-0.01874684,-0.01226137,0.00594430,0.02612779,0.01609846,-
 0.00454124,-0.04921194,-0.03044567,0.06145403,-0.14253281,-0.05905268,
 -0.01610248,-0.00118960,-0.00135185,-0.00137189,-0.00001228,-0.0002137
 9,0.00002753,-0.00036136,0.00012819,0.00005542,-0.00038212,-0.00000255
 ,-0.00020731,0.52156610,-0.06819155,-0.11809542,-0.01529104,-0.0001132
 6,0.00319651,0.00091170,0.00013285,-0.00036665,-0.00032496,0.00040721,
 -0.00033163,-0.00030787,0.00035186,-0.00000581,0.00012558,-0.04772837,
 0.54515659,-0.01944619,-0.01451269,-0.07463498,-0.00160902,-0.00075798
 ,-0.00128069,-0.00020536,-0.00013618,-0.00021626,0.00051117,0.00057957
 ,-0.00008746,-0.00117396,0.00054356,0.00035155,-0.03106091,-0.01954515
 ,0.59573212,-0.01808730,0.01488728,-0.01568963,0.00039541,-0.00146691,
 0.00027473,0.00006988,0.00011705,-0.00003980,0.00007837,0.00011522,0.0
 0002515,0.00010944,0.00018723,0.00005981,-0.16035562,0.08689316,-0.102
 49419,0.17273456,-0.01329481,0.00900168,-0.01132293,0.00014943,-0.0016
 2187,0.00032232,0.00021452,0.00041562,0.00008133,-0.00021255,0.0001032
 1,0.00013861,0.00041704,0.00035094,-0.00026548,0.08980622,-0.11492183,
 0.08224922,-0.09417577,0.12373748,-0.00430754,0.00361172,-0.00476174,0
 .00040677,-0.00061263,-0.00007220,0.00003057,0.00014174,0.00006982,-0.
 00021303,0.00000913,0.00012542,0.00022013,-0.00016254,-0.00005863,-0.1
 0302211,0.08010576,-0.14035509,0.11353200,-0.08694540,0.14889934,-0.01
 056762,-0.00292564,0.02601374,-0.00087786,-0.00020653,0.00034145,0.000
 15723,0.00015792,-0.00005043,0.00020856,-0.00003043,-0.00009465,-0.000
 24469,0.00062823,-0.00017578,-0.10422128,-0.03121901,0.10458376,0.0119
 8242,0.00486388,-0.01851443,0.11194499,-0.00530356,-0.00391558,0.01980
 811,0.00045129,0.00058671,-0.00041562,-0.00018514,-0.00012526,0.000112
 33,-0.00006656,-0.00002747,0.00009228,0.00007884,-0.00020048,0.0001866
 5,-0.03011506,-0.06630363,0.05403170,-0.00827743,-0.00427619,0.0128780
 8,0.03495639,0.06740133,-0.00382086,-0.00295176,0.00406319,-0.00010106
 ,0.00039011,-0.00016417,-0.00013283,-0.00011432,0.00007325,-0.00010906
 ,-0.00004472,0.00001184,-0.00015072,-0.00021326,0.00014614,0.10943310,
 0.05858628,-0.25145559,0.00907914,0.00327503,-0.01468218,-0.11667360,-
 0.06231142,0.26951287,0.00748356,-0.02202466,-0.01220462,-0.00063710,0
 .00044740,-0.00163453,-0.00020132,-0.00000309,0.00012414,-0.00070185,0
 .00021235,-0.00007236,-0.00060061,0.00015375,-0.00036267,-0.07482460,0
 .06589436,0.04146771,-0.00588826,0.01651009,0.01183975,-0.00472354,0.0
 1237846,0.00467584,0.07865418,0.00890309,-0.01745982,-0.01002085,0.000
 59745,-0.00050255,0.00030817,0.00010822,0.00037879,0.00027527,-0.00013
 096,0.00005547,0.00035745,0.00059517,0.00015892,0.00021635,0.06366025,
 -0.22656583,-0.10506412,0.00415449,-0.01238756,-0.00801880,-0.00242892
 ,0.00928703,0.00435159,-0.07257184,0.24642431,0.00248609,-0.00557832,-
 0.00459243,-0.00049558,-0.00108472,-0.00019824,0.00025382,0.00044696,0
 .00015029,-0.00032837,0.00003712,0.00027431,-0.00003793,0.00042475,-0.
 00096484,0.04023669,-0.10577704,-0.11232659,-0.00487728,0.01621036,0.0
 1074607,0.00663633,-0.02290082,-0.01087638,-0.04262574,0.11740163,0.11
 692683,-0.04294923,-0.04989864,0.03681173,-0.08742415,0.01827160,-0.00
 855892,-0.00361647,0.03225407,0.00577255,-0.00067591,0.01473894,0.0016
 6123,0.01421688,-0.02481979,-0.00589542,-0.01868449,0.01779418,-0.0228
 5868,-0.00469848,-0.00535977,-0.00226139,0.00161698,0.00120519,0.00028
 207,0.00100893,-0.00027121,-0.00025323,0.17480342,-0.02782929,-0.03776
 015,-0.02452266,0.01939284,-0.19159230,-0.02822845,0.00846633,-0.02455
 929,-0.00037985,0.00946423,-0.02329002,-0.01007852,0.00606176,-0.03890
 219,-0.00414503,-0.00451965,0.00626048,-0.00586305,-0.00210743,-0.0008
 4647,-0.00111398,0.00139842,0.00017529,0.00000099,0.00102971,0.0004779
 3,0.00103024,-0.01257476,0.38219952,0.02135930,-0.05135075,-0.01427685
 ,-0.01055367,-0.02087714,-0.08333549,-0.00397266,0.02711663,0.00657657
 ,0.00557172,-0.03338364,0.00350333,-0.00237072,0.00418076,0.00372511,-
 0.01231619,0.00999202,-0.00928150,-0.00173024,-0.00259427,0.00025662,-
 0.00098315,-0.00045486,0.00081119,0.00117366,0.00041073,0.00002107,-0.
 00858919,0.01623105,0.16646058,0.01406341,-0.00496220,-0.01869777,-0.0
 0851947,0.00926112,0.00199718,0.00066333,-0.00115422,0.00095553,0.0002
 0936,-0.00121303,-0.00157234,0.00064671,-0.00372337,-0.00065698,-0.002
 21945,0.00012212,0.00253153,0.00001794,-0.00006388,-0.00013014,-0.0006
 0463,-0.00075567,0.00019446,0.00032189,0.00002929,0.00008591,-0.041523
 24,-0.04937306,0.01937894,0.46610960,0.00373862,-0.01082696,0.01243532
 ,-0.00325257,0.00815074,0.00004466,0.00054704,-0.00021597,0.00034809,0
 .00067064,-0.00076843,-0.00060958,0.00029535,-0.00194069,-0.00020737,-
 0.00081135,0.00162799,-0.00191124,-0.00055916,-0.00039096,-0.00038427,
 0.00060951,0.00006491,0.00002119,0.00017016,0.00002656,0.00016813,-0.0
 5298123,-0.02194051,0.01048639,-0.02067656,0.19883608,0.00397802,0.012
 07476,-0.04519002,0.00550269,-0.00447508,0.00019088,-0.00038267,-0.000
 68714,-0.00018096,-0.00047820,0.00087337,0.00044393,-0.00033815,0.0024
 2317,0.00010996,-0.00076123,-0.00311903,0.00619624,0.00104532,0.000634
 44,0.00044803,-0.00160059,-0.00113059,0.00003580,0.00002600,0.00016775
 ,-0.00016740,0.04376250,0.02185558,0.01254580,0.01420086,-0.00964869,0
 .28495439,-0.00402582,0.00059570,0.00234561,0.00092878,-0.00455808,-0.
 00022411,-0.00022716,0.00028102,-0.00037573,-0.00014098,0.00023899,0.0
 0065679,-0.00013447,0.00063887,0.00011200,0.00054841,-0.00011480,-0.00
 028437,0.00008756,0.00007397,0.00002031,0.00015311,0.00017964,-0.00002
 296,-0.00003558,0.00011793,0.00000937,0.00926283,0.00639257,-0.0016013
 3,-0.17982312,0.04193433,0.02332423,0.47763871,0.00170461,-0.00084655,
 0.00053927,-0.00197751,0.00226091,0.00093566,0.00009968,-0.00015162,0.
 00027879,-0.00021266,-0.00047398,-0.00060146,0.00021163,-0.00090406,-0
 .00031374,-0.00022476,0.00021656,0.00008939,-0.00006263,-0.00004860,-0
 .00004422,-0.00001599,-0.00006857,0.00001335,0.00000523,-0.00006254,-0
 .00000617,-0.00795652,-0.00956407,0.00165287,0.05200143,-0.09384062,-0
 .00199865,0.05146753,0.58071877,0.00160702,0.00100310,-0.00513957,0.00
 070422,0.00153389,0.00064817,0.00007011,0.00000285,0.00021683,-0.00022
 690,-0.00016260,-0.00053099,0.00011661,0.00009548,-0.00021476,-0.00021
 772,-0.00008487,0.00051501,0.00005600,-0.00001178,0.00003220,-0.000179
 84,-0.00011030,0.00007439,0.00000567,-0.00001334,-0.00002727,0.0008267
 4,0.00140926,0.00106959,0.03714560,-0.00593402,-0.10217850,0.04009080,
 -0.02315923,0.60765232,0.00096572,0.00049878,-0.00235185,-0.00019059,0
 .00045979,-0.00011061,0.00004576,-0.00018371,0.00012812,-0.00000613,-0
 .00001779,-0.00004651,0.00006375,-0.00008174,0.00004062,-0.00010413,-0
 .00006480,0.00026593,0.00002757,0.00000454,0.00001349,-0.00008732,-0.0
 0005569,0.00002577,0.00001026,-0.00000181,-0.00001202,-0.00015037,-0.0
 0081939,0.00081049,-0.03263549,0.00939169,-0.02743999,-0.11249495,0.01
 330270,-0.11100838,0.13513839,-0.00033652,0.00009403,0.00043197,-0.000
 03628,-0.00007302,-0.00026748,-0.00004314,-0.00006384,0.00012183,0.000
 03339,0.00006184,0.00001604,0.00004618,0.00001323,0.00006036,0.0000646
 2,-0.00001498,-0.00006612,0.00000222,0.00000218,0.00000219,0.00001917,
 0.00002740,-0.00000378,-0.00000578,0.00000175,-0.00000946,0.00027485,0
 .00012136,0.00007277,0.01255398,-0.00156439,0.01086386,0.01340405,-0.0
 5733026,0.02627717,-0.02290662,0.05458867,0.00015785,-0.00005256,0.000
 16864,-0.00010200,0.00011764,-0.00014149,-0.00001560,-0.00005539,0.000
 07747,0.00002000,0.00002530,-0.00000899,0.00002501,-0.00003463,0.00004
 049,-0.00001231,-0.00000427,-0.00004366,-0.00000322,-0.00000532,-0.000
 00250,0.00000814,0.00001089,-0.00000916,-0.00000082,-0.00000086,-0.000
 00519,-0.00046018,-0.00030349,-0.00004258,0.00858145,-0.00295399,0.015
 11702,-0.12144835,0.03075993,-0.25868830,0.12601903,-0.03112284,0.2685
 7909,0.00080508,-0.00067641,0.00108528,-0.00075653,0.00054238,0.000009
 29,0.00003298,-0.00006095,0.00008018,0.00002926,-0.00007792,-0.0000642
 1,0.00005731,-0.00033120,-0.00000634,-0.00009483,0.00012138,-0.0000916
 1,-0.00004800,-0.00002260,-0.00002421,0.00002512,-0.00000386,0.0000025
 7,0.00001719,-0.00001164,0.00001284,-0.00324850,-0.00306563,0.00021544
 ,-0.03129177,-0.01886311,0.02573063,-0.09520763,-0.07959639,0.05928940
 ,0.01017501,0.01214448,-0.00878801,0.11548465,-0.00001085,0.00000946,-
 0.00006602,0.00023233,-0.00056819,-0.00015632,0.00000139,0.00008168,-0
 .00015155,0.00004902,0.00011783,0.00022806,-0.00010266,0.00015349,0.00
 009227,0.00000211,-0.00002405,-0.00000072,0.00000425,0.00001116,0.0000
 0725,0.00000312,-0.00000490,-0.00000244,0.00000786,0.00000381,0.000015
 35,0.00121799,0.00145998,-0.00037905,0.01149911,0.01439979,-0.01238088
 ,-0.08743718,-0.19201885,0.11264815,-0.00097885,-0.00126313,0.00053022
 ,0.08690498,0.19710060,-0.00041110,0.00021267,0.00001673,0.00017490,-0
 .00034900,-0.00020528,-0.00000601,-0.00002068,-0.00002427,0.00001805,0
 .00007880,0.00013929,-0.00002654,0.00009389,0.00009679,0.00005177,-0.0
 0003011,-0.00001306,0.00001166,0.00000840,0.00000849,0.00000900,0.0000
 1247,-0.00000372,-0.00000536,0.00000153,-0.00000150,0.00104143,0.00099
 228,-0.00023278,0.00932617,0.00334601,-0.00319350,0.06472739,0.1079670
 5,-0.14060416,0.01212702,0.02008884,-0.01368572,-0.07650557,-0.1174268
 6,0.14515107,-0.00025698,0.00028588,0.00064715,-0.00024064,0.00042343,
 0.00040409,0.00003202,-0.00005347,-0.00001832,-0.00013115,-0.00027253,
 -0.00013092,0.00004785,-0.00010389,-0.00012885,0.00001031,-0.00001283,
 0.00000111,-0.00000010,-0.00001104,0.00000073,-0.00000900,0.00000384,-
 0.00000733,-0.00001797,-0.00003372,-0.00001983,-0.00077466,-0.00085092
 ,-0.00019621,-0.01236133,0.03445628,0.02094424,-0.05561410,-0.03158446
 ,-0.01875280,0.00041956,-0.01482073,-0.00625995,0.00059823,-0.01097002
 ,-0.00840770,0.06277850,-0.00012900,-0.00005860,-0.00042072,0.00006908
 ,-0.00073994,-0.00010764,-0.00005246,0.00003072,-0.00008941,-0.0001099
 8,0.00008639,0.00022465,-0.00007098,0.00011326,0.00008573,0.00002665,-
 0.00002504,0.00000356,0.00001378,0.00000737,0.00000278,0.00000098,0.00
 000931,-0.00000728,0.00000162,0.00003091,0.00000592,0.00138671,0.00109
 551,-0.00030549,0.01154321,-0.00585663,-0.00585702,-0.02615549,-0.2462
 3087,-0.10989732,-0.00072117,0.00622248,0.00303291,-0.00352701,-0.0173
 9430,-0.01219323,0.02079280,0.26434083,-0.00010916,-0.00057113,0.00114
 563,0.00016935,-0.00070058,-0.00017281,0.00003239,0.00015302,-0.000320
 73,0.00013422,0.00012330,0.00039748,-0.00016432,0.00014613,0.00009932,
 0.00000354,0.00006798,-0.00013422,-0.00002246,0.00000429,-0.00001170,0
 .00004944,0.00001959,-0.00001093,0.00001196,0.00001671,0.00003415,0.00
 019745,0.00103727,-0.00044803,0.00714842,-0.00676472,-0.00173631,-0.01
 523964,-0.11003750,-0.11991889,-0.00312617,-0.02441023,-0.01123752,0.0
 0126429,0.01648882,0.01170821,0.01093586,0.12521933,0.12152693,-0.0289
 6401,-0.01596674,0.05665801,-0.00110905,-0.00132086,-0.00173344,-0.000
 20299,0.00142845,-0.00039748,0.00062421,-0.00001709,0.00069019,-0.0000
 9469,-0.00046984,0.00016873,0.00318478,0.00269355,-0.00625317,-0.00084
 205,-0.00040276,-0.00037535,0.00193445,0.00130379,-0.00034476,-0.00020
 903,-0.00024040,0.00004508,-0.02326319,-0.00154403,-0.01146816,-0.0784
 5734,-0.00621177,-0.02158000,-0.02740905,0.00583512,-0.00927402,0.0016
 7672,-0.00074201,0.00144433,0.00082666,-0.00036644,-0.00099184,0.00282
 497,-0.00164039,-0.00180775,0.06872062,-0.01161095,-0.00367086,0.01469
 205,-0.00012366,-0.00162974,0.00024454,-0.00006014,0.00039231,-0.00014
 960,-0.00003155,-0.00038400,0.00006348,0.00009708,0.00017237,-0.000176
 11,0.00014972,0.00111228,-0.00079247,-0.00024498,-0.00006839,-0.000107
 91,0.00011567,0.00056172,-0.00007690,0.00003874,-0.00001357,-0.0000980
 6,-0.00391999,0.00119718,-0.00605779,-0.00185279,-0.03555836,-0.008554
 71,0.00649865,-0.00159885,0.01228324,0.00301000,-0.00121293,-0.0011819
 1,-0.00107579,0.00037287,-0.00055885,0.00112463,-0.00063597,0.00052631
 ,-0.01857049,0.05508971,0.00198729,0.00072062,0.04586875,-0.00139204,0
 .00024194,-0.00077439,-0.00008107,0.00078807,-0.00024319,0.00053623,-0
 .00023114,0.00033024,-0.00003636,-0.00075691,0.00001905,0.00258471,0.0
 0186947,-0.00655630,-0.00057869,-0.00041214,-0.00019304,0.00177986,0.0
 0133380,0.00002263,-0.00020724,-0.00018511,0.00003270,-0.01533294,-0.0
 0155711,-0.00765744,-0.05810954,-0.00191542,-0.13739742,-0.00093771,0.
 00208467,0.02144388,0.00676303,-0.00261241,-0.00087081,0.00149141,0.00
 033592,-0.00030654,0.00215445,-0.00218220,-0.00080384,0.01216951,-0.02
 684851,0.15820029,-0.01997116,0.01856480,-0.03951323,0.01845769,-0.010
 09492,-0.00087882,-0.00065348,0.00135529,-0.00120058,-0.00109405,0.002
 92018,0.00198779,-0.00059109,0.00780626,0.00092574,0.00138950,-0.00268
 763,0.00325192,0.00110247,0.00051649,0.00062745,-0.00097545,-0.0002942
 9,0.00005902,-0.00029559,0.00007025,-0.00033630,-0.00201157,0.02236867
 ,0.00448255,-0.03473643,0.01275339,-0.02218992,-0.02350302,0.00047046,
 0.00871839,0.00093302,-0.00103218,0.00036700,0.00300314,0.00008400,-0.
 00167600,0.00267811,-0.00221596,-0.00090987,0.03852759,0.01114763,0.01
 283190,0.03922120,-0.00399705,0.02767347,-0.02971833,-0.00466474,-0.02
 235681,0.00130403,-0.00077682,0.00023761,-0.00014039,-0.00106080,0.001
 86608,0.00101923,0.00108714,0.00235497,-0.00000831,0.00249412,-0.00420
 061,0.00423062,0.00141319,0.00094069,0.00088102,-0.00107905,-0.0003262
 8,-0.00000449,-0.00039189,-0.00011305,-0.00032987,0.04625653,-0.013871
 04,0.00761690,0.00016030,-0.06478560,0.01496681,-0.00497309,0.02082804
 ,-0.01141719,0.00070661,-0.00014859,0.00081888,0.00730947,-0.00243431,
 -0.00230798,0.00251346,-0.00163155,-0.00184132,0.01935883,0.00246608,0
 .02321420,-0.04761452,0.06757277,-0.01504835,-0.01519825,0.01962070,-0
 .00697157,0.00216626,0.00023171,0.00048431,0.00089187,0.00054123,-0.00
 026244,-0.00182110,-0.00081183,0.00029956,-0.00234874,-0.00037531,-0.0
 0149443,0.00326664,-0.00356980,-0.00106786,-0.00072483,-0.00044748,0.0
 0065919,0.00031451,0.00003644,0.00019277,-0.00013254,0.00017625,-0.010
 32260,-0.00208030,-0.03280082,-0.00200450,0.01127852,-0.03922074,0.008
 81206,-0.00602006,-0.00179795,-0.00166321,0.00002670,0.00023965,-0.002
 75680,0.00030470,0.00119644,-0.00047351,0.00137936,0.00016816,-0.00391
 371,0.02070424,-0.03102809,0.02081657,-0.01617558,0.09414772,-0.023381
 62,-0.01079779,-0.00518847,-0.00254122,-0.00138366,-0.00210617,-0.0002
 7978,0.00125037,0.00022856,-0.00014034,0.00003959,0.00033424,0.0001825
 3,0.00033704,-0.00016139,0.00346469,-0.00836003,-0.00494598,0.00086143
 ,-0.00048755,0.00064551,0.00069640,0.00048614,-0.00080791,-0.00048336,
 -0.00224879,-0.00096806,-0.00763541,0.02489888,-0.00176699,-0.00392780
 ,0.00009714,-0.00113636,0.00102193,0.00003291,-0.00010230,-0.00017574,
 0.00006403,-0.00004534,-0.00011901,-0.00001003,0.00008675,-0.00008971,
 0.00006037,0.00007673,0.00361577,0.00077823,0.00214205,0.00043338,0.00
 023266,0.00062264,0.03990156,-0.02445202,-0.03188363,0.01145635,0.0038
 5759,0.00193941,0.00248598,0.00052809,-0.00154812,-0.00019845,-0.00019
 337,0.00013272,-0.00022743,-0.00028587,0.00016714,-0.00011117,0.008975
 65,-0.02581053,-0.01513356,0.00037360,0.00006062,-0.00042511,0.0004901
 4,-0.00093687,-0.00040619,-0.00395570,-0.00249311,-0.00148888,0.014922
 20,-0.02796183,0.00238513,0.00502321,0.00177924,0.00299392,-0.00045560
 ,0.00009930,0.00048293,0.00026838,-0.00011521,0.00000812,0.00010509,0.
 00000146,-0.00010776,-0.00023419,0.00014852,0.00004486,-0.00753157,-0.
 00190252,-0.00553138,-0.00151395,-0.00304837,-0.00058457,-0.02077154,0
 .08454261,-0.01435581,0.00073398,-0.02055126,-0.00090101,0.00097039,0.
 00064703,0.00006737,0.00004077,0.00006816,-0.00041811,0.00082801,0.000
 00705,0.00000693,0.00002219,-0.00008818,0.00448676,-0.01503487,-0.0048
 4729,0.00114039,-0.00035314,0.00003055,-0.00084762,-0.00081575,0.00076
 672,-0.00186888,-0.00153877,0.00053596,-0.00260630,0.00412579,0.007767
 27,0.00331373,0.00006241,0.00383861,-0.00036700,-0.00003706,0.00044288
 ,0.00027875,-0.00005484,0.00003323,-0.00002923,-0.00000650,-0.00005966
 ,-0.00019503,0.00015193,-0.00005849,-0.00711495,-0.00154225,-0.0054123
 3,0.00082080,-0.00032331,-0.00164735,-0.01363161,0.03121404,0.04928354
 ,-0.24285134,-0.07791952,0.13694146,0.00123305,0.00180608,0.00272483,0
 .00060262,-0.00167962,-0.00034952,-0.00011850,-0.00192455,-0.00087428,
 0.00011120,0.00075545,-0.00088887,-0.02518122,-0.01591839,0.03781032,0
 .00245276,0.00147454,0.00151148,-0.00640786,-0.00598634,-0.00158089,0.
 00112280,-0.00029683,0.00018823,0.03574662,0.00321075,0.00255640,-0.05
 593216,-0.00130841,-0.06260739,0.00897454,-0.00350038,-0.00886862,-0.0
 0361103,0.00131629,0.00051297,-0.00028836,-0.00013012,0.00045598,0.000
 10607,0.00072724,0.00135573,0.03861563,0.01452999,0.03223515,-0.021914
 26,-0.01697436,0.01409189,-0.01140369,0.02484985,0.03222084,0.27874312
 ,-0.06811349,-0.10928307,0.04976471,-0.00089869,0.00439047,0.00072953,
 0.00026287,-0.00057234,0.00013012,-0.00049449,0.00060162,-0.00067412,-
 0.00015092,0.00003001,0.00017996,-0.02128747,-0.00090439,0.02205565,-0
 .00126716,-0.00006910,0.00017519,-0.00533785,-0.00192848,-0.00050199,0
 .00210323,0.00275254,0.00153289,0.00945967,-0.00269937,0.03525775,-0.0
 1841899,0.01280383,-0.01900187,0.00187097,-0.00098414,-0.00494543,-0.0
 0181092,0.00065340,0.00041137,0.00018472,-0.00000439,0.00019253,-0.000
 65254,0.00048761,0.00047786,0.02440464,-0.01468930,0.01164364,-0.01260
 397,-0.01102352,0.00475316,0.01578204,0.00682917,-0.01844303,0.0769683
 5,0.11360944,0.18460571,0.08074125,-0.28228033,0.00112744,-0.01057257,
 -0.00710191,-0.00082653,0.00288823,0.00081770,-0.00096416,0.00214867,0
 .00195782,0.00003339,0.00134684,0.00013198,0.00968707,0.00459376,0.002
 00755,0.00127918,-0.00028870,-0.00003197,-0.00096080,-0.00066107,0.001
 64764,-0.00053527,0.00146722,0.00026219,-0.01321686,0.03158997,-0.0546
 6163,-0.02368851,-0.00786139,0.00538418,0.00040265,-0.00210289,-0.0029
 9486,-0.00071351,0.00058544,0.00048036,-0.00091534,-0.00008038,0.00001
 316,-0.00049718,0.00095414,-0.00022640,-0.00592125,-0.00236878,-0.0346
 7414,0.01181558,0.00821506,-0.00465892,0.02672410,-0.02685684,-0.03075
 644,-0.18743571,-0.08373795,0.40468403\\0.00000568,0.00001266,0.000002
 86,0.00000300,0.00000223,-0.00000892,-0.00000754,-0.00001090,-0.000009
 36,-0.00000703,-0.00000005,-0.00000910,-0.00001090,0.00000005,-0.00001
 237,-0.00000021,0.00001347,-0.00000078,0.00000040,0.00001998,0.0000009
 6,-0.00000189,0.00000729,-0.00000450,-0.00000623,0.00001542,-0.0000096
 6,-0.00001651,0.00001035,0.00000787,0.00000797,-0.00001921,0.00005465,
 0.00000339,-0.00001100,0.00000594,0.00000238,-0.00001782,0.00000483,0.
 00000691,-0.00000887,0.00000980,-0.00000010,-0.00000829,0.00000030,-0.
 00001832,0.00000216,-0.00001452,0.00003402,-0.00001296,-0.00002152,0.0
 0000453,-0.00000228,0.00000704,0.00000047,0.00000779,-0.00000352\\\@


 UNDER MOST GREENE GRASSE LY MOST GREATE SNAKES.
 -- PROVERBS AND REASONS OF THE YEAR 1585
           AS REPRINTED IN PAISLEY MAGAZINE 1828.
 Job cpu time:       0 days  0 hours 18 minutes 34.2 seconds.
 File lengths (MBytes):  RWF=     81 Int=      0 D2E=      0 Chk=      4 Scr=      1
 Normal termination of Gaussian 09 at Thu Feb 19 15:40:47 2015.
