 Entering Gaussian System, Link 0=g09
 Initial command:
 /opt/gridware/applications/gaussian/g09/l1.exe "/lustre/SCRATCH5/gau/Gau-12235.inp" -scrdir="/lustre/SCRATCH5/gau/"
 Entering Link 1 = /opt/gridware/applications/gaussian/g09/l1.exe PID=     12236.
  
 Copyright (c) 1988,1990,1992,1993,1995,1998,2003,2009,2013,
            Gaussian, Inc.  All Rights Reserved.
  
 This is part of the Gaussian(R) 09 program.  It is based on
 the Gaussian(R) 03 system (copyright 2003, Gaussian, Inc.),
 the Gaussian(R) 98 system (copyright 1998, Gaussian, Inc.),
 the Gaussian(R) 94 system (copyright 1995, Gaussian, Inc.),
 the Gaussian 92(TM) system (copyright 1992, Gaussian, Inc.),
 the Gaussian 90(TM) system (copyright 1990, Gaussian, Inc.),
 the Gaussian 88(TM) system (copyright 1988, Gaussian, Inc.),
 the Gaussian 86(TM) system (copyright 1986, Carnegie Mellon
 University), and the Gaussian 82(TM) system (copyright 1983,
 Carnegie Mellon University). Gaussian is a federally registered
 trademark of Gaussian, Inc.
  
 This software contains proprietary and confidential information,
 including trade secrets, belonging to Gaussian, Inc.
  
 This software is provided under written license and may be
 used, copied, transmitted, or stored only in accord with that
 written license.
  
 The following legend is applicable only to US Government
 contracts under FAR:
  
                    RESTRICTED RIGHTS LEGEND
  
 Use, reproduction and disclosure by the US Government is
 subject to restrictions as set forth in subparagraphs (a)
 and (c) of the Commercial Computer Software - Restricted
 Rights clause in FAR 52.227-19.
  
 Gaussian, Inc.
 340 Quinnipiac St., Bldg. 40, Wallingford CT 06492
  
  
 ---------------------------------------------------------------
 Warning -- This program may not be used in any manner that
 competes with the business of Gaussian, Inc. or will provide
 assistance to any competitor of Gaussian, Inc.  The licensee
 of this program is prohibited from giving any competitor of
 Gaussian, Inc. access to this program.  By using this program,
 the user acknowledges that Gaussian, Inc. is engaged in the
 business of creating and licensing software in the field of
 computational chemistry and represents and warrants to the
 licensee that it is not a competitor of Gaussian, Inc. and that
 it will not use this program in any manner prohibited above.
 ---------------------------------------------------------------
  

 Cite this work as:
 Gaussian 09, Revision D.01,
 M. J. Frisch, G. W. Trucks, H. B. Schlegel, G. E. Scuseria, 
 M. A. Robb, J. R. Cheeseman, G. Scalmani, V. Barone, B. Mennucci, 
 G. A. Petersson, H. Nakatsuji, M. Caricato, X. Li, H. P. Hratchian, 
 A. F. Izmaylov, J. Bloino, G. Zheng, J. L. Sonnenberg, M. Hada, 
 M. Ehara, K. Toyota, R. Fukuda, J. Hasegawa, M. Ishida, T. Nakajima, 
 Y. Honda, O. Kitao, H. Nakai, T. Vreven, J. A. Montgomery, Jr., 
 J. E. Peralta, F. Ogliaro, M. Bearpark, J. J. Heyd, E. Brothers, 
 K. N. Kudin, V. N. Staroverov, T. Keith, R. Kobayashi, J. Normand, 
 K. Raghavachari, A. Rendell, J. C. Burant, S. S. Iyengar, J. Tomasi, 
 M. Cossi, N. Rega, J. M. Millam, M. Klene, J. E. Knox, J. B. Cross, 
 V. Bakken, C. Adamo, J. Jaramillo, R. Gomperts, R. E. Stratmann, 
 O. Yazyev, A. J. Austin, R. Cammi, C. Pomelli, J. W. Ochterski, 
 R. L. Martin, K. Morokuma, V. G. Zakrzewski, G. A. Voth, 
 P. Salvador, J. J. Dannenberg, S. Dapprich, A. D. Daniels, 
 O. Farkas, J. B. Foresman, J. V. Ortiz, J. Cioslowski, 
 and D. J. Fox, Gaussian, Inc., Wallingford CT, 2013.
 
 ******************************************
 Gaussian 09:  EM64L-G09RevD.01 24-Apr-2013
                25-Feb-2015 
 ******************************************
 %nprocshared=8
 Will use up to    8 processors via shared memory.
 %nprocl=1
 Will use up to    1 processors via Linda.
 ----------------------------------------------------------------------
 # opt=(calcfc,ts,noeigentest) freq=noraman b3lyp/gen pseudo=read gfinp
 ut geom=connectivity
 ----------------------------------------------------------------------
 1/5=1,10=4,11=1,14=-1,18=20,26=3,38=1,57=2/1,3;
 2/9=110,12=2,17=6,18=5,40=1/2;
 3/5=7,11=2,16=1,17=8,24=10,25=1,30=1,71=2,74=-5,140=1/1,2,3;
 4//1;
 5/5=2,38=5/2;
 8/6=4,10=90,11=11/1;
 11/6=1,8=1,9=11,15=111,16=1/1,2,10;
 10/6=1,13=1/2;
 6/7=2,8=2,9=2,10=2,28=1/1;
 7/10=1,18=20,25=1/1,2,3,16;
 1/5=1,10=4,11=1,14=-1,18=20,26=3/3(2);
 2/9=110/2;
 99//99;
 2/9=110/2;
 3/5=7,6=1,11=2,16=1,17=8,25=1,30=1,71=1,74=-5,82=7/1,2,3;
 4/5=5,16=3,69=1/1;
 5/5=2,38=5/2;
 7//1,2,3,16;
 1/5=1,11=1,14=-1,18=20,26=3/3(-5);
 2/9=110/2;
 6/7=2,8=2,9=2,10=2,19=2,28=1/1;
 99/9=1/99;
 --------------------------
 gen calculation-ts624I C H O=6-31+g(d)/I=def2tzvp
 --------------------------
 Symbolic Z-matrix:
 Charge =  0 Multiplicity = 1
 C                    -0.29145   0.82478   0.55335 
 O                    -0.91912   0.27292   1.50016 
 O                    -1.09709   0.68116  -0.81787 
 O                    -1.99014  -1.38826   0.03533 
 C                    -3.4157   -1.60375   0.13247 
 H                    -3.9275   -0.69476   0.46568 
 H                    -3.77079  -1.90294  -0.85512 
 H                    -3.5856   -2.41279   0.84525 
 H                    -1.66476  -0.4864   -0.59193 
 H                    -1.58866  -0.93484   0.90175 
 C                     0.20624   2.24775   0.70846 
 H                     0.94085   2.25896   1.51654 
 H                     0.67693   2.61938  -0.20353 
 H                    -0.62931   2.89793   0.99939 
 C                    -2.08306   1.70475  -1.05154 
 H                    -1.58547   2.64033  -1.31853 
 H                    -2.69032   1.37282  -1.8984 
 H                    -2.71992   1.85758  -0.17123 
 I                     1.62451  -0.42987  -0.14127 
 
 Add virtual bond connecting atoms H10        and O4         Dist= 2.00D+00.
 Add virtual bond connecting atoms H9         and O4         Dist= 2.17D+00.
 Add virtual bond connecting atoms H9         and O3         Dist= 2.49D+00.
 Add virtual bond connecting atoms O3         and C1         Dist= 3.02D+00.
 Add virtual bond connecting atoms H10        and O2         Dist= 2.84D+00.
 Add virtual bond connecting atoms I19        and C1         Dist= 4.52D+00.

 GradGradGradGradGradGradGradGradGradGradGradGradGradGradGradGradGradGrad
 Berny optimization.
 Initialization pass.
                           ----------------------------
                           !    Initial Parameters    !
                           ! (Angstroms and Degrees)  !
 --------------------------                            --------------------------
 ! Name  Definition              Value          Derivative Info.                !
 --------------------------------------------------------------------------------
 ! R1    R(1,2)                  1.2629         calculate D2E/DX2 analytically  !
 ! R2    R(1,3)                  1.5969         calculate D2E/DX2 analytically  !
 ! R3    R(1,11)                 1.5155         calculate D2E/DX2 analytically  !
 ! R4    R(1,19)                 2.3932         calculate D2E/DX2 analytically  !
 ! R5    R(2,10)                 1.505          calculate D2E/DX2 analytically  !
 ! R6    R(3,9)                  1.3178         calculate D2E/DX2 analytically  !
 ! R7    R(3,15)                 1.4403         calculate D2E/DX2 analytically  !
 ! R8    R(4,5)                  1.445          calculate D2E/DX2 analytically  !
 ! R9    R(4,9)                  1.1457         calculate D2E/DX2 analytically  !
 ! R10   R(4,10)                 1.0571         calculate D2E/DX2 analytically  !
 ! R11   R(5,6)                  1.0951         calculate D2E/DX2 analytically  !
 ! R12   R(5,7)                  1.0913         calculate D2E/DX2 analytically  !
 ! R13   R(5,8)                  1.0915         calculate D2E/DX2 analytically  !
 ! R14   R(11,12)                1.0921         calculate D2E/DX2 analytically  !
 ! R15   R(11,13)                1.0915         calculate D2E/DX2 analytically  !
 ! R16   R(11,14)                1.098          calculate D2E/DX2 analytically  !
 ! R17   R(15,16)                1.0928         calculate D2E/DX2 analytically  !
 ! R18   R(15,17)                1.0937         calculate D2E/DX2 analytically  !
 ! R19   R(15,18)                1.0972         calculate D2E/DX2 analytically  !
 ! A1    A(2,1,3)              110.7155         calculate D2E/DX2 analytically  !
 ! A2    A(2,1,11)             119.7879         calculate D2E/DX2 analytically  !
 ! A3    A(2,1,19)             112.7305         calculate D2E/DX2 analytically  !
 ! A4    A(3,1,11)             109.7569         calculate D2E/DX2 analytically  !
 ! A5    A(3,1,19)              96.1722         calculate D2E/DX2 analytically  !
 ! A6    A(11,1,19)            105.0134         calculate D2E/DX2 analytically  !
 ! A7    A(1,2,10)             105.8831         calculate D2E/DX2 analytically  !
 ! A8    A(1,3,9)               98.615          calculate D2E/DX2 analytically  !
 ! A9    A(1,3,15)             114.8826         calculate D2E/DX2 analytically  !
 ! A10   A(9,3,15)             111.2595         calculate D2E/DX2 analytically  !
 ! A11   A(5,4,9)              115.7448         calculate D2E/DX2 analytically  !
 ! A12   A(5,4,10)             112.5536         calculate D2E/DX2 analytically  !
 ! A13   A(9,4,10)              90.1848         calculate D2E/DX2 analytically  !
 ! A14   A(4,5,6)              110.9608         calculate D2E/DX2 analytically  !
 ! A15   A(4,5,7)              107.5205         calculate D2E/DX2 analytically  !
 ! A16   A(4,5,8)              107.9375         calculate D2E/DX2 analytically  !
 ! A17   A(6,5,7)              110.5395         calculate D2E/DX2 analytically  !
 ! A18   A(6,5,8)              110.1079         calculate D2E/DX2 analytically  !
 ! A19   A(7,5,8)              109.7009         calculate D2E/DX2 analytically  !
 ! A20   A(3,9,4)              156.0141         calculate D2E/DX2 analytically  !
 ! A21   A(2,10,4)             147.0416         calculate D2E/DX2 analytically  !
 ! A22   A(1,11,12)            107.8341         calculate D2E/DX2 analytically  !
 ! A23   A(1,11,13)            112.0738         calculate D2E/DX2 analytically  !
 ! A24   A(1,11,14)            109.4653         calculate D2E/DX2 analytically  !
 ! A25   A(12,11,13)           108.9449         calculate D2E/DX2 analytically  !
 ! A26   A(12,11,14)           108.0438         calculate D2E/DX2 analytically  !
 ! A27   A(13,11,14)           110.3615         calculate D2E/DX2 analytically  !
 ! A28   A(3,15,16)            109.656          calculate D2E/DX2 analytically  !
 ! A29   A(3,15,17)            106.8601         calculate D2E/DX2 analytically  !
 ! A30   A(3,15,18)            111.4793         calculate D2E/DX2 analytically  !
 ! A31   A(16,15,17)           108.873          calculate D2E/DX2 analytically  !
 ! A32   A(16,15,18)           109.9417         calculate D2E/DX2 analytically  !
 ! A33   A(17,15,18)           109.9527         calculate D2E/DX2 analytically  !
 ! D1    D(3,1,2,10)            35.23           calculate D2E/DX2 analytically  !
 ! D2    D(11,1,2,10)          164.4939         calculate D2E/DX2 analytically  !
 ! D3    D(19,1,2,10)          -71.213          calculate D2E/DX2 analytically  !
 ! D4    D(2,1,3,9)            -32.1723         calculate D2E/DX2 analytically  !
 ! D5    D(2,1,3,15)            86.1562         calculate D2E/DX2 analytically  !
 ! D6    D(11,1,3,9)          -166.6138         calculate D2E/DX2 analytically  !
 ! D7    D(11,1,3,15)          -48.2853         calculate D2E/DX2 analytically  !
 ! D8    D(19,1,3,9)            84.9835         calculate D2E/DX2 analytically  !
 ! D9    D(19,1,3,15)         -156.688          calculate D2E/DX2 analytically  !
 ! D10   D(2,1,11,12)           63.5432         calculate D2E/DX2 analytically  !
 ! D11   D(2,1,11,13)         -176.5567         calculate D2E/DX2 analytically  !
 ! D12   D(2,1,11,14)          -53.7673         calculate D2E/DX2 analytically  !
 ! D13   D(3,1,11,12)         -166.7638         calculate D2E/DX2 analytically  !
 ! D14   D(3,1,11,13)          -46.8638         calculate D2E/DX2 analytically  !
 ! D15   D(3,1,11,14)           75.9257         calculate D2E/DX2 analytically  !
 ! D16   D(19,1,11,12)         -64.3712         calculate D2E/DX2 analytically  !
 ! D17   D(19,1,11,13)          55.5289         calculate D2E/DX2 analytically  !
 ! D18   D(19,1,11,14)         178.3183         calculate D2E/DX2 analytically  !
 ! D19   D(1,2,10,4)           -26.5912         calculate D2E/DX2 analytically  !
 ! D20   D(1,3,9,4)             12.1646         calculate D2E/DX2 analytically  !
 ! D21   D(15,3,9,4)          -108.8717         calculate D2E/DX2 analytically  !
 ! D22   D(1,3,15,16)           73.7921         calculate D2E/DX2 analytically  !
 ! D23   D(1,3,15,17)         -168.3575         calculate D2E/DX2 analytically  !
 ! D24   D(1,3,15,18)          -48.1962         calculate D2E/DX2 analytically  !
 ! D25   D(9,3,15,16)         -175.2528         calculate D2E/DX2 analytically  !
 ! D26   D(9,3,15,17)          -57.4024         calculate D2E/DX2 analytically  !
 ! D27   D(9,3,15,18)           62.7589         calculate D2E/DX2 analytically  !
 ! D28   D(9,4,5,6)            -52.7222         calculate D2E/DX2 analytically  !
 ! D29   D(9,4,5,7)             68.2705         calculate D2E/DX2 analytically  !
 ! D30   D(9,4,5,8)           -173.4506         calculate D2E/DX2 analytically  !
 ! D31   D(10,4,5,6)            49.0578         calculate D2E/DX2 analytically  !
 ! D32   D(10,4,5,7)           170.0505         calculate D2E/DX2 analytically  !
 ! D33   D(10,4,5,8)           -71.6706         calculate D2E/DX2 analytically  !
 ! D34   D(5,4,9,3)            117.9791         calculate D2E/DX2 analytically  !
 ! D35   D(10,4,9,3)             2.6781         calculate D2E/DX2 analytically  !
 ! D36   D(5,4,10,2)          -114.7073         calculate D2E/DX2 analytically  !
 ! D37   D(9,4,10,2)             3.4358         calculate D2E/DX2 analytically  !
 --------------------------------------------------------------------------------
 Trust Radius=3.00D-01 FncErr=1.00D-07 GrdErr=1.00D-06
 Number of steps in this run=     99 maximum allowed number of steps=    114.
 Search for a saddle point of order  1.
 GradGradGradGradGradGradGradGradGradGradGradGradGradGradGradGradGradGrad

                          Input orientation:                          
 ---------------------------------------------------------------------
 Center     Atomic      Atomic             Coordinates (Angstroms)
 Number     Number       Type             X           Y           Z
 ---------------------------------------------------------------------
      1          6           0       -0.291453    0.824779    0.553353
      2          8           0       -0.919117    0.272918    1.500162
      3          8           0       -1.097090    0.681155   -0.817873
      4          8           0       -1.990144   -1.388262    0.035327
      5          6           0       -3.415702   -1.603754    0.132467
      6          1           0       -3.927501   -0.694756    0.465679
      7          1           0       -3.770791   -1.902936   -0.855124
      8          1           0       -3.585598   -2.412785    0.845251
      9          1           0       -1.664760   -0.486400   -0.591931
     10          1           0       -1.588661   -0.934840    0.901745
     11          6           0        0.206235    2.247750    0.708462
     12          1           0        0.940846    2.258955    1.516542
     13          1           0        0.676930    2.619381   -0.203527
     14          1           0       -0.629313    2.897933    0.999393
     15          6           0       -2.083057    1.704745   -1.051538
     16          1           0       -1.585465    2.640330   -1.318534
     17          1           0       -2.690315    1.372824   -1.898399
     18          1           0       -2.719916    1.857576   -0.171228
     19         53           0        1.624514   -0.429866   -0.141269
 ---------------------------------------------------------------------
                    Distance matrix (angstroms):
                    1          2          3          4          5
     1  C    0.000000
     2  O    1.262917   0.000000
     3  O    1.596853   2.360428   0.000000
     4  O    2.837508   2.460154   2.409976   0.000000
     5  C    3.979428   3.409608   3.391153   1.445022   0.000000
     6  H    3.941766   3.325195   3.398803   2.102262   1.095101
     7  H    4.640046   4.291125   3.718547   2.056331   1.091299
     8  H    4.628003   3.840837   4.304779   2.061819   1.091539
     9  H    2.217394   2.347211   1.317757   1.145724   2.199780
    10  H    2.213681   1.505015   2.410429   1.057100   2.092203
    11  C    1.515453   2.406900   2.546090   4.300904   5.318297
    12  H    2.122064   2.721043   3.477374   4.907840   5.984622
    13  H    2.175139   3.309956   2.698386   4.819911   5.890450
    14  H    2.147340   2.688022   2.904372   4.599212   5.364766
    15  C    2.561222   3.148977   1.440301   3.279726   3.758188
    16  H    2.911126   3.740816   2.080274   4.269222   4.844318
    17  H    3.473612   3.987123   2.045558   3.442838   3.675679
    18  H    2.736626   2.923621   2.106105   3.333271   3.543608
    19  I    2.393233   3.107774   3.016503   3.743723   5.182347
                    6          7          8          9         10
     6  H    0.000000
     7  H    1.796880   0.000000
     8  H    1.792372   1.784802   0.000000
     9  H    2.506381   2.551708   3.076698   0.000000
    10  H    2.391227   2.964033   2.485009   1.561396   0.000000
    11  C    5.079868   5.957326   6.009767   3.559104   3.658946
    12  H    5.790468   6.719052   6.539456   4.332645   4.120280
    13  H    5.712454   6.376375   6.677707   3.908995   4.357409
    14  H    4.906150   6.029632   6.080058   3.880486   3.952219
    15  C    3.385488   3.987780   4.775928   2.277571   3.320715
    16  H    4.448747   5.062772   5.849484   3.211025   4.208502
    17  H    3.375556   3.603672   4.760250   2.493057   3.792066
    18  H    2.894531   3.964026   4.474217   2.604720   3.198218
    19  I    5.591370   5.638159   5.661312   3.320484   3.415753
                   11         12         13         14         15
    11  C    0.000000
    12  H    1.092141   0.000000
    13  H    1.091507   1.777131   0.000000
    14  H    1.097961   1.772325   1.797464   0.000000
    15  C    2.938250   4.005767   3.028731   2.782694   0.000000
    16  H    2.733683   3.816458   2.522322   2.520590   1.092796
    17  H    3.993898   5.062843   3.970495   3.869223   1.093667
    18  H    3.080333   4.051031   3.481372   2.612148   1.097220
    19  I    3.146933   3.231950   3.193697   4.177929   4.373927
                   16         17         18         19
    16  H    0.000000
    17  H    1.778625   0.000000
    18  H    1.793319   1.794152   0.000000
    19  I    4.595217   4.995493   4.909925   0.000000
 Stoichiometry    C4H11IO3
 Framework group  C1[X(C4H11IO3)]
 Deg. of freedom    51
 Full point group                 C1      NOp   1
 Largest Abelian subgroup         C1      NOp   1
 Largest concise Abelian subgroup C1      NOp   1
                         Standard orientation:                         
 ---------------------------------------------------------------------
 Center     Atomic      Atomic             Coordinates (Angstroms)
 Number     Number       Type             X           Y           Z
 ---------------------------------------------------------------------
      1          6           0       -0.291453    0.824779    0.553353
      2          8           0       -0.919117    0.272918    1.500162
      3          8           0       -1.097090    0.681155   -0.817873
      4          8           0       -1.990144   -1.388262    0.035327
      5          6           0       -3.415702   -1.603753    0.132467
      6          1           0       -3.927501   -0.694755    0.465679
      7          1           0       -3.770791   -1.902935   -0.855124
      8          1           0       -3.585599   -2.412784    0.845251
      9          1           0       -1.664760   -0.486400   -0.591931
     10          1           0       -1.588661   -0.934840    0.901745
     11          6           0        0.206235    2.247750    0.708462
     12          1           0        0.940846    2.258955    1.516542
     13          1           0        0.676930    2.619381   -0.203527
     14          1           0       -0.629313    2.897933    0.999393
     15          6           0       -2.083057    1.704745   -1.051538
     16          1           0       -1.585465    2.640330   -1.318534
     17          1           0       -2.690315    1.372824   -1.898399
     18          1           0       -2.719916    1.857576   -0.171228
     19         53           0        1.624514   -0.429866   -0.141269
 ---------------------------------------------------------------------
 Rotational constants (GHZ):      1.5636305      0.6613558      0.5494637
 General basis read from cards:  (5D, 7F)
 ======================================================================================================
                                       Pseudopotential Parameters
 ======================================================================================================
  Center     Atomic      Valence      Angular      Power
  Number     Number     Electrons     Momentum     of R      Exponent        Coefficient   SO-Coeffient
 ======================================================================================================
    1          6
                                   No pseudopotential on this center.
    2          8
                                   No pseudopotential on this center.
    3          8
                                   No pseudopotential on this center.
    4          8
                                   No pseudopotential on this center.
    5          6
                                   No pseudopotential on this center.
    6          1
                                   No pseudopotential on this center.
    7          1
                                   No pseudopotential on this center.
    8          1
                                   No pseudopotential on this center.
    9          1
                                   No pseudopotential on this center.
   10          1
                                   No pseudopotential on this center.
   11          6
                                   No pseudopotential on this center.
   12          1
                                   No pseudopotential on this center.
   13          1
                                   No pseudopotential on this center.
   14          1
                                   No pseudopotential on this center.
   15          6
                                   No pseudopotential on this center.
   16          1
                                   No pseudopotential on this center.
   17          1
                                   No pseudopotential on this center.
   18          1
                                   No pseudopotential on this center.
   19         53           25
                                      G and up 
                                                     2        1.0000000        0.00000000    0.00000000
                                      S - G
                                                     2       40.0158350       49.99429300    0.00000000
                                                     2       17.4297470      281.02531700    0.00000000
                                                     2        9.0054840       61.57332600    0.00000000
                                      P - G
                                                     2       15.3554660       67.44284100 -134.88568300
                                                     2       14.9718330      134.88113700  134.88113700
                                                     2        8.9601640       14.67505100  -29.35010100
                                                     2        8.2590960       29.37566600   29.37566600
                                      D - G
                                                     2       15.0689080       35.43952900  -35.43952900
                                                     2       14.5553220       53.17605700   35.45070400
                                                     2        6.7186470        9.06719500   -9.06719500
                                                     2        6.4563930       13.20693700    8.80462400
                                                     2        1.1917790        0.08933500   -0.08933500
                                                     2        1.2911570        0.05238000    0.03492000
                                      F - G
                                                     2       19.4586090      -21.84204000   14.56136000
                                                     2       19.3492600      -28.46819100  -14.23409500
                                                     2        4.8237670       -0.24371300    0.16247500
                                                     2        4.8843150       -0.32080400   -0.16040200
 ======================================================================================================
 AO basis set in the form of general basis input (Overlap normalization):
      1 0
 S   6 1.00       0.000000000000
      0.3047524880D+04  0.1834737132D-02
      0.4573695180D+03  0.1403732281D-01
      0.1039486850D+03  0.6884262226D-01
      0.2921015530D+02  0.2321844432D+00
      0.9286662960D+01  0.4679413484D+00
      0.3163926960D+01  0.3623119853D+00
 SP   3 1.00       0.000000000000
      0.7868272350D+01 -0.1193324198D+00  0.6899906659D-01
      0.1881288540D+01 -0.1608541517D+00  0.3164239610D+00
      0.5442492580D+00  0.1143456438D+01  0.7443082909D+00
 SP   1 1.00       0.000000000000
      0.1687144782D+00  0.1000000000D+01  0.1000000000D+01
 SP   1 1.00       0.000000000000
      0.4380000000D-01  0.1000000000D+01  0.1000000000D+01
 D   1 1.00       0.000000000000
      0.8000000000D+00  0.1000000000D+01
 ****
      2 0
 S   6 1.00       0.000000000000
      0.5484671660D+04  0.1831074430D-02
      0.8252349460D+03  0.1395017220D-01
      0.1880469580D+03  0.6844507810D-01
      0.5296450000D+02  0.2327143360D+00
      0.1689757040D+02  0.4701928980D+00
      0.5799635340D+01  0.3585208530D+00
 SP   3 1.00       0.000000000000
      0.1553961625D+02 -0.1107775495D+00  0.7087426823D-01
      0.3599933586D+01 -0.1480262627D+00  0.3397528391D+00
      0.1013761750D+01  0.1130767015D+01  0.7271585773D+00
 SP   1 1.00       0.000000000000
      0.2700058226D+00  0.1000000000D+01  0.1000000000D+01
 SP   1 1.00       0.000000000000
      0.8450000000D-01  0.1000000000D+01  0.1000000000D+01
 D   1 1.00       0.000000000000
      0.8000000000D+00  0.1000000000D+01
 ****
      3 0
 S   6 1.00       0.000000000000
      0.5484671660D+04  0.1831074430D-02
      0.8252349460D+03  0.1395017220D-01
      0.1880469580D+03  0.6844507810D-01
      0.5296450000D+02  0.2327143360D+00
      0.1689757040D+02  0.4701928980D+00
      0.5799635340D+01  0.3585208530D+00
 SP   3 1.00       0.000000000000
      0.1553961625D+02 -0.1107775495D+00  0.7087426823D-01
      0.3599933586D+01 -0.1480262627D+00  0.3397528391D+00
      0.1013761750D+01  0.1130767015D+01  0.7271585773D+00
 SP   1 1.00       0.000000000000
      0.2700058226D+00  0.1000000000D+01  0.1000000000D+01
 SP   1 1.00       0.000000000000
      0.8450000000D-01  0.1000000000D+01  0.1000000000D+01
 D   1 1.00       0.000000000000
      0.8000000000D+00  0.1000000000D+01
 ****
      4 0
 S   6 1.00       0.000000000000
      0.5484671660D+04  0.1831074430D-02
      0.8252349460D+03  0.1395017220D-01
      0.1880469580D+03  0.6844507810D-01
      0.5296450000D+02  0.2327143360D+00
      0.1689757040D+02  0.4701928980D+00
      0.5799635340D+01  0.3585208530D+00
 SP   3 1.00       0.000000000000
      0.1553961625D+02 -0.1107775495D+00  0.7087426823D-01
      0.3599933586D+01 -0.1480262627D+00  0.3397528391D+00
      0.1013761750D+01  0.1130767015D+01  0.7271585773D+00
 SP   1 1.00       0.000000000000
      0.2700058226D+00  0.1000000000D+01  0.1000000000D+01
 SP   1 1.00       0.000000000000
      0.8450000000D-01  0.1000000000D+01  0.1000000000D+01
 D   1 1.00       0.000000000000
      0.8000000000D+00  0.1000000000D+01
 ****
      5 0
 S   6 1.00       0.000000000000
      0.3047524880D+04  0.1834737132D-02
      0.4573695180D+03  0.1403732281D-01
      0.1039486850D+03  0.6884262226D-01
      0.2921015530D+02  0.2321844432D+00
      0.9286662960D+01  0.4679413484D+00
      0.3163926960D+01  0.3623119853D+00
 SP   3 1.00       0.000000000000
      0.7868272350D+01 -0.1193324198D+00  0.6899906659D-01
      0.1881288540D+01 -0.1608541517D+00  0.3164239610D+00
      0.5442492580D+00  0.1143456438D+01  0.7443082909D+00
 SP   1 1.00       0.000000000000
      0.1687144782D+00  0.1000000000D+01  0.1000000000D+01
 SP   1 1.00       0.000000000000
      0.4380000000D-01  0.1000000000D+01  0.1000000000D+01
 D   1 1.00       0.000000000000
      0.8000000000D+00  0.1000000000D+01
 ****
      6 0
 S   3 1.00       0.000000000000
      0.1873113696D+02  0.3349460434D-01
      0.2825394365D+01  0.2347269535D+00
      0.6401216923D+00  0.8137573261D+00
 S   1 1.00       0.000000000000
      0.1612777588D+00  0.1000000000D+01
 ****
      7 0
 S   3 1.00       0.000000000000
      0.1873113696D+02  0.3349460434D-01
      0.2825394365D+01  0.2347269535D+00
      0.6401216923D+00  0.8137573261D+00
 S   1 1.00       0.000000000000
      0.1612777588D+00  0.1000000000D+01
 ****
      8 0
 S   3 1.00       0.000000000000
      0.1873113696D+02  0.3349460434D-01
      0.2825394365D+01  0.2347269535D+00
      0.6401216923D+00  0.8137573261D+00
 S   1 1.00       0.000000000000
      0.1612777588D+00  0.1000000000D+01
 ****
      9 0
 S   3 1.00       0.000000000000
      0.1873113696D+02  0.3349460434D-01
      0.2825394365D+01  0.2347269535D+00
      0.6401216923D+00  0.8137573261D+00
 S   1 1.00       0.000000000000
      0.1612777588D+00  0.1000000000D+01
 ****
     10 0
 S   3 1.00       0.000000000000
      0.1873113696D+02  0.3349460434D-01
      0.2825394365D+01  0.2347269535D+00
      0.6401216923D+00  0.8137573261D+00
 S   1 1.00       0.000000000000
      0.1612777588D+00  0.1000000000D+01
 ****
     11 0
 S   6 1.00       0.000000000000
      0.3047524880D+04  0.1834737132D-02
      0.4573695180D+03  0.1403732281D-01
      0.1039486850D+03  0.6884262226D-01
      0.2921015530D+02  0.2321844432D+00
      0.9286662960D+01  0.4679413484D+00
      0.3163926960D+01  0.3623119853D+00
 SP   3 1.00       0.000000000000
      0.7868272350D+01 -0.1193324198D+00  0.6899906659D-01
      0.1881288540D+01 -0.1608541517D+00  0.3164239610D+00
      0.5442492580D+00  0.1143456438D+01  0.7443082909D+00
 SP   1 1.00       0.000000000000
      0.1687144782D+00  0.1000000000D+01  0.1000000000D+01
 SP   1 1.00       0.000000000000
      0.4380000000D-01  0.1000000000D+01  0.1000000000D+01
 D   1 1.00       0.000000000000
      0.8000000000D+00  0.1000000000D+01
 ****
     12 0
 S   3 1.00       0.000000000000
      0.1873113696D+02  0.3349460434D-01
      0.2825394365D+01  0.2347269535D+00
      0.6401216923D+00  0.8137573261D+00
 S   1 1.00       0.000000000000
      0.1612777588D+00  0.1000000000D+01
 ****
     13 0
 S   3 1.00       0.000000000000
      0.1873113696D+02  0.3349460434D-01
      0.2825394365D+01  0.2347269535D+00
      0.6401216923D+00  0.8137573261D+00
 S   1 1.00       0.000000000000
      0.1612777588D+00  0.1000000000D+01
 ****
     14 0
 S   3 1.00       0.000000000000
      0.1873113696D+02  0.3349460434D-01
      0.2825394365D+01  0.2347269535D+00
      0.6401216923D+00  0.8137573261D+00
 S   1 1.00       0.000000000000
      0.1612777588D+00  0.1000000000D+01
 ****
     15 0
 S   6 1.00       0.000000000000
      0.3047524880D+04  0.1834737132D-02
      0.4573695180D+03  0.1403732281D-01
      0.1039486850D+03  0.6884262226D-01
      0.2921015530D+02  0.2321844432D+00
      0.9286662960D+01  0.4679413484D+00
      0.3163926960D+01  0.3623119853D+00
 SP   3 1.00       0.000000000000
      0.7868272350D+01 -0.1193324198D+00  0.6899906659D-01
      0.1881288540D+01 -0.1608541517D+00  0.3164239610D+00
      0.5442492580D+00  0.1143456438D+01  0.7443082909D+00
 SP   1 1.00       0.000000000000
      0.1687144782D+00  0.1000000000D+01  0.1000000000D+01
 SP   1 1.00       0.000000000000
      0.4380000000D-01  0.1000000000D+01  0.1000000000D+01
 D   1 1.00       0.000000000000
      0.8000000000D+00  0.1000000000D+01
 ****
     16 0
 S   3 1.00       0.000000000000
      0.1873113696D+02  0.3349460434D-01
      0.2825394365D+01  0.2347269535D+00
      0.6401216923D+00  0.8137573261D+00
 S   1 1.00       0.000000000000
      0.1612777588D+00  0.1000000000D+01
 ****
     17 0
 S   3 1.00       0.000000000000
      0.1873113696D+02  0.3349460434D-01
      0.2825394365D+01  0.2347269535D+00
      0.6401216923D+00  0.8137573261D+00
 S   1 1.00       0.000000000000
      0.1612777588D+00  0.1000000000D+01
 ****
     18 0
 S   3 1.00       0.000000000000
      0.1873113696D+02  0.3349460434D-01
      0.2825394365D+01  0.2347269535D+00
      0.6401216923D+00  0.8137573261D+00
 S   1 1.00       0.000000000000
      0.1612777588D+00  0.1000000000D+01
 ****
     19 0
 S   5 1.00       0.000000000000
      0.5899579153D+04  0.2610056321D-03
      0.8985423877D+03  0.1669739989D-02
      0.2003723791D+03  0.4622329849D-02
      0.3141805384D+02 -0.4253426840D-01
      0.1564598784D+02  0.1036831842D+01
 S   2 1.00       0.000000000000
      0.1181574186D+02  0.6510798928D+00
      0.6461445829D+01  0.3642365936D+00
 S   1 1.00       0.000000000000
      0.2383806758D+01  0.1000000000D+01
 S   1 1.00       0.000000000000
      0.1171208966D+01  0.1000000000D+01
 S   1 1.00       0.000000000000
      0.3211587576D+00  0.1000000000D+01
 S   1 1.00       0.000000000000
      0.1238791936D+00  0.1000000000D+01
 P   4 1.00       0.000000000000
      0.1298431690D+02 -0.3868165906D-01
      0.3619950301D+01  0.3065970959D+00
      0.2023227309D+01  0.5169312450D+00
      0.1036749056D+01  0.2505722415D+00
 P   3 1.00       0.000000000000
      0.1973003055D+03  0.3192774173D-02
      0.2006141135D+02  0.2856760153D+00
      0.9763146048D+01 -0.1232820499D+01
 P   1 1.00       0.000000000000
      0.4593781600D+00  0.1000000000D+01
 P   1 1.00       0.000000000000
      0.1911653293D+00  0.1000000000D+01
 P   1 1.00       0.000000000000
      0.7487881302D-01  0.1000000000D+01
 D   6 1.00       0.000000000000
      0.1191267175D+03  0.8836386893D-03
      0.3340424013D+02  0.7315261132D-02
      0.1780591820D+02 -0.1102799620D-01
      0.4899051035D+01  0.2425357632D+00
      0.2451675311D+01  0.4726529041D+00
      0.1182069343D+01  0.3934356931D+00
 D   1 1.00       0.000000000000
      0.5292311007D+00  0.1000000000D+01
 D   1 1.00       0.000000000000
      0.1700000000D+00  0.1000000000D+01
 F   1 1.00       0.000000000000
      0.4414180800D+00  0.1000000000D+01
 F   1 1.00       0.000000000000
      0.2180000000D+01  0.1000000000D+01
 ****

 There are   214 symmetry adapted cartesian basis functions of A   symmetry.
 There are   198 symmetry adapted basis functions of A   symmetry.
   198 basis functions,   377 primitive gaussians,   214 cartesian basis functions
    42 alpha electrons       42 beta electrons
       nuclear repulsion energy       567.3034860402 Hartrees.
 NAtoms=   19 NActive=   19 NUniq=   19 SFac= 1.00D+00 NAtFMM=   60 NAOKFM=F Big=F
 Integral buffers will be    131072 words long.
 Raffenetti 2 integral format.
 Two-electron integral symmetry is turned on.
 One-electron integrals computed using PRISM.
 PrsmSu:  requested number of processors reduced to:   2 ShMem   1 Linda.
   1 Symmetry operations used in ECPInt.
 ECPInt:  NShTT=    2701 NPrTT=   12914 LenC2=    2646 LenP2D=    9049.
 LDataN:  DoStor=T MaxTD1= 7 Len=  274
 NBasis=   198 RedAO= T EigKep=  5.97D-05  NBF=   198
 NBsUse=   198 1.00D-06 EigRej= -1.00D+00 NBFU=   198
 Defaulting to unpruned grid for atomic number  53.
 ExpMin= 4.38D-02 ExpMax= 5.90D+03 ExpMxC= 8.25D+02 IAcc=2 IRadAn=         4 AccDes= 0.00D+00
 Harris functional with IExCor=  402 and IRadAn=       4 diagonalized for initial guess.
 HarFok:  IExCor=  402 AccDes= 0.00D+00 IRadAn=         4 IDoV= 1 UseB2=F ITyADJ=14
 ICtDFT=  3500011 ScaDFX=  1.000000  1.000000  1.000000  1.000000
 Defaulting to unpruned grid for atomic number  53.
 Defaulting to unpruned grid for atomic number  53.
 Defaulting to unpruned grid for atomic number  53.
 Defaulting to unpruned grid for atomic number  53.
 Defaulting to unpruned grid for atomic number  53.
 Defaulting to unpruned grid for atomic number  53.
 Defaulting to unpruned grid for atomic number  53.
 Defaulting to unpruned grid for atomic number  53.
 FoFCou: FMM=F IPFlag=           0 FMFlag=      100000 FMFlg1=           0
         NFxFlg=           0 DoJE=T BraDBF=F KetDBF=T FulRan=T
         wScrn=  0.000000 ICntrl=     500 IOpCl=  0 I1Cent=   200000004 NGrid=           0
         NMat0=    1 NMatS0=      1 NMatT0=    0 NMatD0=    1 NMtDS0=    0 NMtDT0=    0
 Petite list used in FoFCou.
 Requested convergence on RMS density matrix=1.00D-08 within 128 cycles.
 Requested convergence on MAX density matrix=1.00D-06.
 Requested convergence on             energy=1.00D-06.
 No special actions if energy rises.
 Defaulting to unpruned grid for atomic number  53.
 Defaulting to unpruned grid for atomic number  53.
 Defaulting to unpruned grid for atomic number  53.
 Defaulting to unpruned grid for atomic number  53.
 Defaulting to unpruned grid for atomic number  53.
 Defaulting to unpruned grid for atomic number  53.
 Defaulting to unpruned grid for atomic number  53.
 Defaulting to unpruned grid for atomic number  53.
 SCF Done:  E(RB3LYP) =  -682.475090537     A.U. after   14 cycles
            NFock= 14  Conv=0.38D-08     -V/T= 2.3770
 DoSCS=F DFT=T ScalE2(SS,OS)=  1.000000  1.000000
 Range of M.O.s used for correlation:     1   198
 NBasis=   198 NAE=    42 NBE=    42 NFC=     0 NFV=     0
 NROrb=    198 NOA=    42 NOB=    42 NVA=   156 NVB=   156

 **** Warning!!: The largest alpha MO coefficient is  0.25300441D+02

 PrsmSu:  requested number of processors reduced to:   1 ShMem   1 Linda.
 PrsmSu:  requested number of processors reduced to:   4 ShMem   1 Linda.
   1 Symmetry operations used in ECPInt.
 ECPInt:  NShTT=    2701 NPrTT=   12914 LenC2=    2646 LenP2D=    9049.
 LDataN:  DoStor=T MaxTD1= 8 Len=  415
 Number of processors reduced to   4 by ecpmxn.
 Symmetrizing basis deriv contribution to polar:
 IMax=3 JMax=2 DiffMx= 0.00D+00
 G2DrvN: will do    10 centers at a time, making    2 passes.
 Estimated number of processors is:    5
 Calling FoFCou, ICntrl=  3107 FMM=F I1Cent=   0 AccDes= 0.00D+00.
 CoulSu:  requested number of processors reduced to:   5 ShMem   1 Linda.
 Defaulting to unpruned grid for atomic number  53.
 Defaulting to unpruned grid for atomic number  53.
 Defaulting to unpruned grid for atomic number  53.
 Defaulting to unpruned grid for atomic number  53.
 Defaulting to unpruned grid for atomic number  53.
 Defaulting to unpruned grid for atomic number  53.
 Defaulting to unpruned grid for atomic number  53.
 Defaulting to unpruned grid for atomic number  53.
 Calling FoFCou, ICntrl=  3107 FMM=F I1Cent=   0 AccDes= 0.00D+00.
 CoulSu:  requested number of processors reduced to:   5 ShMem   1 Linda.
 End of G2Drv F.D. properties file   721 does not exist.
 End of G2Drv F.D. properties file   722 does not exist.
 End of G2Drv F.D. properties file   788 does not exist.
          IDoAtm=1111111111111111111
          Differentiating once with respect to nuclear coordinates.
 Defaulting to unpruned grid for atomic number  53.
 PrRfSu:  requested number of processors reduced to:   5 ShMem   1 Linda.
 Defaulting to unpruned grid for atomic number  53.
 Defaulting to unpruned grid for atomic number  53.
 Defaulting to unpruned grid for atomic number  53.
 Defaulting to unpruned grid for atomic number  53.
 Defaulting to unpruned grid for atomic number  53.
 Defaulting to unpruned grid for atomic number  53.
 Defaulting to unpruned grid for atomic number  53.
 Defaulting to unpruned grid for atomic number  53.
          There are    60 degrees of freedom in the 1st order CPHF.  IDoFFX=6 NUNeed=     0.
     55 vectors produced by pass  0 Test12= 1.09D-14 1.67D-09 XBig12= 1.84D-01 2.02D-01.
 AX will form    55 AO Fock derivatives at one time.
 PrRfSu:  requested number of processors reduced to:   5 ShMem   1 Linda.
     54 vectors produced by pass  1 Test12= 1.09D-14 1.67D-09 XBig12= 3.54D-02 3.25D-02.
 PrRfSu:  requested number of processors reduced to:   6 ShMem   1 Linda.
     54 vectors produced by pass  2 Test12= 1.09D-14 1.67D-09 XBig12= 4.71D-04 5.19D-03.
 PrRfSu:  requested number of processors reduced to:   6 ShMem   1 Linda.
     54 vectors produced by pass  3 Test12= 1.09D-14 1.67D-09 XBig12= 4.82D-06 2.97D-04.
 PrRfSu:  requested number of processors reduced to:   6 ShMem   1 Linda.
     54 vectors produced by pass  4 Test12= 1.09D-14 1.67D-09 XBig12= 1.97D-08 1.81D-05.
 PrRfSu:  requested number of processors reduced to:   6 ShMem   1 Linda.
     42 vectors produced by pass  5 Test12= 1.09D-14 1.67D-09 XBig12= 2.48D-11 6.09D-07.
 PrRfSu:  requested number of processors reduced to:   6 ShMem   1 Linda.
      8 vectors produced by pass  6 Test12= 1.09D-14 1.67D-09 XBig12= 5.14D-14 3.03D-08.
 PrRfSu:  requested number of processors reduced to:   7 ShMem   1 Linda.
 InvSVY:  IOpt=1 It=  1 EMax= 5.55D-16
 Solved reduced A of dimension   321 with    60 vectors.
 End of Minotr F.D. properties file   721 does not exist.
 End of Minotr F.D. properties file   722 does not exist.
 End of Minotr F.D. properties file   788 does not exist.

 **********************************************************************

            Population analysis using the SCF density.

 **********************************************************************

 Orbital symmetries:
       Occupied  (A) (A) (A) (A) (A) (A) (A) (A) (A) (A) (A) (A)
                 (A) (A) (A) (A) (A) (A) (A) (A) (A) (A) (A) (A)
                 (A) (A) (A) (A) (A) (A) (A) (A) (A) (A) (A) (A)
                 (A) (A) (A) (A) (A) (A)
       Virtual   (A) (A) (A) (A) (A) (A) (A) (A) (A) (A) (A) (A)
                 (A) (A) (A) (A) (A) (A) (A) (A) (A) (A) (A) (A)
                 (A) (A) (A) (A) (A) (A) (A) (A) (A) (A) (A) (A)
                 (A) (A) (A) (A) (A) (A) (A) (A) (A) (A) (A) (A)
                 (A) (A) (A) (A) (A) (A) (A) (A) (A) (A) (A) (A)
                 (A) (A) (A) (A) (A) (A) (A) (A) (A) (A) (A) (A)
                 (A) (A) (A) (A) (A) (A) (A) (A) (A) (A) (A) (A)
                 (A) (A) (A) (A) (A) (A) (A) (A) (A) (A) (A) (A)
                 (A) (A) (A) (A) (A) (A) (A) (A) (A) (A) (A) (A)
                 (A) (A) (A) (A) (A) (A) (A) (A) (A) (A) (A) (A)
                 (A) (A) (A) (A) (A) (A) (A) (A) (A) (A) (A) (A)
                 (A) (A) (A) (A) (A) (A) (A) (A) (A) (A) (A) (A)
                 (A) (A) (A) (A) (A) (A) (A) (A) (A) (A) (A) (A)
 The electronic state is 1-A.
 Alpha  occ. eigenvalues --  -19.22633 -19.20235 -19.14124 -10.33459 -10.27372
 Alpha  occ. eigenvalues --  -10.25745 -10.19111  -6.79047  -4.81271  -4.80430
 Alpha  occ. eigenvalues --   -4.80402  -1.86066  -1.85825  -1.85795  -1.85075
 Alpha  occ. eigenvalues --   -1.85073  -1.11297  -1.06626  -1.01889  -0.76034
 Alpha  occ. eigenvalues --   -0.74852  -0.71974  -0.64442  -0.58326  -0.57857
 Alpha  occ. eigenvalues --   -0.56451  -0.49927  -0.49683  -0.48487  -0.48121
 Alpha  occ. eigenvalues --   -0.45004  -0.43375  -0.43011  -0.41723  -0.38994
 Alpha  occ. eigenvalues --   -0.38055  -0.36187  -0.32175  -0.29236  -0.24343
 Alpha  occ. eigenvalues --   -0.22606  -0.22173
 Alpha virt. eigenvalues --   -0.03793  -0.01555   0.00547   0.00725   0.02217
 Alpha virt. eigenvalues --    0.02919   0.03785   0.04673   0.06358   0.07005
 Alpha virt. eigenvalues --    0.07451   0.08008   0.08783   0.09668   0.10604
 Alpha virt. eigenvalues --    0.11170   0.12697   0.13986   0.14862   0.15392
 Alpha virt. eigenvalues --    0.15580   0.17330   0.17565   0.18544   0.18783
 Alpha virt. eigenvalues --    0.19330   0.19845   0.20521   0.21581   0.21872
 Alpha virt. eigenvalues --    0.22907   0.24300   0.24799   0.25744   0.26087
 Alpha virt. eigenvalues --    0.26969   0.27638   0.29049   0.29915   0.31253
 Alpha virt. eigenvalues --    0.31738   0.32221   0.33714   0.34826   0.35556
 Alpha virt. eigenvalues --    0.36182   0.38777   0.39996   0.42481   0.43635
 Alpha virt. eigenvalues --    0.47362   0.48102   0.51391   0.57900   0.61245
 Alpha virt. eigenvalues --    0.63985   0.65957   0.67045   0.67432   0.71255
 Alpha virt. eigenvalues --    0.72735   0.73404   0.75653   0.77657   0.80708
 Alpha virt. eigenvalues --    0.87072   0.87587   0.89849   0.90884   0.91484
 Alpha virt. eigenvalues --    0.91665   0.92454   0.93009   0.94113   0.95183
 Alpha virt. eigenvalues --    0.95757   0.98150   1.01060   1.01974   1.04039
 Alpha virt. eigenvalues --    1.05533   1.07616   1.09369   1.12929   1.16452
 Alpha virt. eigenvalues --    1.19105   1.20261   1.20449   1.22948   1.24779
 Alpha virt. eigenvalues --    1.25352   1.26603   1.29591   1.33271   1.33689
 Alpha virt. eigenvalues --    1.35307   1.38878   1.42235   1.43762   1.45458
 Alpha virt. eigenvalues --    1.47126   1.48984   1.50055   1.53546   1.56656
 Alpha virt. eigenvalues --    1.57631   1.60378   1.61815   1.65460   1.66213
 Alpha virt. eigenvalues --    1.70891   1.73943   1.75826   1.77938   1.82494
 Alpha virt. eigenvalues --    1.85401   1.89236   1.91579   2.00934   2.02323
 Alpha virt. eigenvalues --    2.02541   2.06030   2.06850   2.09081   2.13158
 Alpha virt. eigenvalues --    2.15276   2.17867   2.24223   2.25574   2.27887
 Alpha virt. eigenvalues --    2.29701   2.30432   2.36715   2.38751   2.50790
 Alpha virt. eigenvalues --    2.57388   2.62461   2.66104   2.77835   2.80565
 Alpha virt. eigenvalues --    2.82320   2.91211   3.03740   3.09778   3.10407
 Alpha virt. eigenvalues --    3.11249   3.12607   3.16721   3.22525   3.29134
 Alpha virt. eigenvalues --    4.36609  34.56935  34.57376  34.67975  42.84306
 Alpha virt. eigenvalues --  117.86716
          Condensed to atoms (all electrons):
               1          2          3          4          5          6
     1  C    5.711103   0.375261   0.051428   0.015407  -0.005742  -0.000939
     2  O    0.375261   8.326855  -0.109723  -0.089027   0.010484   0.003418
     3  O    0.051428  -0.109723   8.740841  -0.036217   0.006161   0.000897
     4  O    0.015407  -0.089027  -0.036217   9.012585   0.021337  -0.082295
     5  C   -0.005742   0.010484   0.006161   0.021337   5.147682   0.406989
     6  H   -0.000939   0.003418   0.000897  -0.082295   0.406989   0.519755
     7  H   -0.000491  -0.000486  -0.001048  -0.035052   0.393304  -0.032083
     8  H   -0.000660  -0.000294  -0.000721  -0.038019   0.392053  -0.029566
     9  H   -0.006394  -0.000272   0.127367   0.019118   0.003109   0.002615
    10  H   -0.038400   0.159296  -0.010580  -0.002007   0.005684   0.002847
    11  C   -0.468615  -0.123381  -0.033979  -0.033491   0.001226   0.000152
    12  H   -0.055291  -0.003156   0.008053   0.000029  -0.000016   0.000000
    13  H   -0.080568   0.008322   0.005030   0.000501  -0.000078   0.000000
    14  H   -0.011821  -0.005622  -0.010715  -0.000159  -0.000304   0.000001
    15  C   -0.089745   0.005716   0.021933   0.002520  -0.011340  -0.000571
    16  H   -0.006660  -0.001500  -0.033819  -0.001745   0.001334   0.000018
    17  H    0.003716  -0.001063  -0.044630  -0.000248  -0.000801  -0.000112
    18  H   -0.027489   0.012217  -0.076223   0.001733  -0.002141   0.000583
    19  I    0.366417  -0.105082  -0.109817   0.007907   0.001628  -0.000043
               7          8          9         10         11         12
     1  C   -0.000491  -0.000660  -0.006394  -0.038400  -0.468615  -0.055291
     2  O   -0.000486  -0.000294  -0.000272   0.159296  -0.123381  -0.003156
     3  O   -0.001048  -0.000721   0.127367  -0.010580  -0.033979   0.008053
     4  O   -0.035052  -0.038019   0.019118  -0.002007  -0.033491   0.000029
     5  C    0.393304   0.392053   0.003109   0.005684   0.001226  -0.000016
     6  H   -0.032083  -0.029566   0.002615   0.002847   0.000152   0.000000
     7  H    0.483453  -0.024620  -0.002880   0.001550   0.000212   0.000000
     8  H   -0.024620   0.478823   0.001476  -0.002870  -0.000040   0.000000
     9  H   -0.002880   0.001476   0.261545   0.003128   0.010673  -0.000071
    10  H    0.001550  -0.002870   0.003128   0.280033   0.033928   0.000008
    11  C    0.000212  -0.000040   0.010673   0.033928   6.234903   0.404575
    12  H    0.000000   0.000000  -0.000071   0.000008   0.404575   0.448659
    13  H    0.000000   0.000000   0.000001  -0.000125   0.415506  -0.022019
    14  H    0.000000   0.000000  -0.000009   0.000020   0.340319  -0.024775
    15  C   -0.001150   0.001116  -0.018048   0.002370  -0.002660   0.000537
    16  H    0.000001  -0.000001   0.001239   0.000019   0.001822   0.000006
    17  H    0.000050   0.000005  -0.002329  -0.000049   0.001406  -0.000002
    18  H    0.000024   0.000005   0.000835   0.000272   0.003030   0.000018
    19  I    0.000014  -0.000017  -0.002366  -0.007999  -0.130149  -0.009406
              13         14         15         16         17         18
     1  C   -0.080568  -0.011821  -0.089745  -0.006660   0.003716  -0.027489
     2  O    0.008322  -0.005622   0.005716  -0.001500  -0.001063   0.012217
     3  O    0.005030  -0.010715   0.021933  -0.033819  -0.044630  -0.076223
     4  O    0.000501  -0.000159   0.002520  -0.001745  -0.000248   0.001733
     5  C   -0.000078  -0.000304  -0.011340   0.001334  -0.000801  -0.002141
     6  H    0.000000   0.000001  -0.000571   0.000018  -0.000112   0.000583
     7  H    0.000000   0.000000  -0.001150   0.000001   0.000050   0.000024
     8  H    0.000000   0.000000   0.001116  -0.000001   0.000005   0.000005
     9  H    0.000001  -0.000009  -0.018048   0.001239  -0.002329   0.000835
    10  H   -0.000125   0.000020   0.002370   0.000019  -0.000049   0.000272
    11  C    0.415506   0.340319  -0.002660   0.001822   0.001406   0.003030
    12  H   -0.022019  -0.024775   0.000537   0.000006  -0.000002   0.000018
    13  H    0.473591  -0.031360  -0.003765   0.000698  -0.000001   0.000174
    14  H   -0.031360   0.517426   0.006405  -0.001656   0.000079  -0.000088
    15  C   -0.003765   0.006405   5.252087   0.389548   0.388368   0.414773
    16  H    0.000698  -0.001656   0.389548   0.490632  -0.024436  -0.035366
    17  H   -0.000001   0.000079   0.388368  -0.024436   0.505543  -0.031909
    18  H    0.000174  -0.000088   0.414773  -0.035366  -0.031909   0.524056
    19  I   -0.004242   0.008692   0.028968   0.000395  -0.000587  -0.000203
              19
     1  C    0.366417
     2  O   -0.105082
     3  O   -0.109817
     4  O    0.007907
     5  C    0.001628
     6  H   -0.000043
     7  H    0.000014
     8  H   -0.000017
     9  H   -0.002366
    10  H   -0.007999
    11  C   -0.130149
    12  H   -0.009406
    13  H   -0.004242
    14  H    0.008692
    15  C    0.028968
    16  H    0.000395
    17  H   -0.000587
    18  H   -0.000203
    19  I   25.265138
 Mulliken charges:
               1
     1  C    0.269482
     2  O   -0.461965
     3  O   -0.494240
     4  O   -0.762878
     5  C   -0.370570
     6  H    0.208335
     7  H    0.219201
     8  H    0.223330
     9  H    0.601264
    10  H    0.572873
    11  C   -0.655437
    12  H    0.252849
    13  H    0.238335
    14  H    0.213566
    15  C   -0.387065
    16  H    0.219469
    17  H    0.207001
    18  H    0.215699
    19  I   -0.309249
 Sum of Mulliken charges =   0.00000
 Mulliken charges with hydrogens summed into heavy atoms:
               1
     1  C    0.269482
     2  O   -0.461965
     3  O   -0.494240
     4  O    0.411259
     5  C    0.280297
    11  C    0.049313
    15  C    0.255104
    19  I   -0.309249
 APT charges:
               1
     1  C    0.061601
     2  O   -0.415249
     3  O   -0.215305
     4  O   -0.309598
     5  C   -1.708467
     6  H    0.421206
     7  H    0.612100
     8  H    0.665905
     9  H    0.536705
    10  H    0.509461
    11  C   -1.429509
    12  H    0.509023
    13  H    0.433778
    14  H    0.540499
    15  C   -1.545202
    16  H    0.501003
    17  H    0.590772
    18  H    0.451043
    19  I   -0.209767
 Sum of APT charges =   0.00000
 APT charges with hydrogens summed into heavy atoms:
               1
     1  C    0.061601
     2  O   -0.415249
     3  O   -0.215305
     4  O    0.736568
     5  C   -0.009256
    11  C    0.053791
    15  C   -0.002383
    19  I   -0.209767
 Electronic spatial extent (au):  <R**2>=           1790.6177
 Charge=              0.0000 electrons
 Dipole moment (field-independent basis, Debye):
    X=             -6.9360    Y=              1.5584    Z=             -1.2093  Tot=              7.2110
 Quadrupole moment (field-independent basis, Debye-Ang):
   XX=            -58.6180   YY=            -65.1353   ZZ=            -75.9808
   XY=              4.5438   XZ=              3.4863   YZ=             -1.7541
 Traceless Quadrupole moment (field-independent basis, Debye-Ang):
   XX=              7.9600   YY=              1.4427   ZZ=             -9.4028
   XY=              4.5438   XZ=              3.4863   YZ=             -1.7541
 Octapole moment (field-independent basis, Debye-Ang**2):
  XXX=             -4.6809  YYY=            -12.8281  ZZZ=            -14.4653  XYY=              4.6615
  XXY=            -26.1845  XXZ=             -7.1708  XZZ=             16.6452  YZZ=             -8.3584
  YYZ=             -0.8605  XYZ=              7.8176
 Hexadecapole moment (field-independent basis, Debye-Ang**3):
 XXXX=          -1316.3142 YYYY=           -705.5319 ZZZZ=           -314.8232 XXXY=             38.0785
 XXXZ=             -7.0500 YYYX=            -11.6307 YYYZ=             -9.3321 ZZZX=              6.9883
 ZZZY=             -4.0049 XXYY=           -316.7992 XXZZ=           -286.8551 YYZZ=           -159.9032
 XXYZ=             -8.4890 YYXZ=             -4.1313 ZZXY=              0.6676
 N-N= 5.673034860402D+02 E-N=-2.666413860454D+03  KE= 4.956124297320D+02
  Exact polarizability:   0.000   0.000   0.000   0.000   0.000   0.000
 Approx polarizability: 193.418 -25.677 153.948 -22.417   9.402 148.035
 PrsmSu:  requested number of processors reduced to:   1 ShMem   1 Linda.
 PrsmSu:  requested number of processors reduced to:   2 ShMem   1 Linda.
   1 Symmetry operations used in ECPInt.
 ECPInt:  NShTT=    2701 NPrTT=   12914 LenC2=    2646 LenP2D=    9049.
 LDataN:  DoStor=T MaxTD1= 9 Len=  602
 Calling FoFJK, ICntrl=    100147 FMM=F ISym2X=0 I1Cent= 0 IOpClX= 0 NMat=1 NMatS=1 NMatT=0.
 CoulSu:  requested number of processors reduced to:   2 ShMem   1 Linda.
 Defaulting to unpruned grid for atomic number  53.
 Defaulting to unpruned grid for atomic number  53.
 Defaulting to unpruned grid for atomic number  53.
 Defaulting to unpruned grid for atomic number  53.
 Defaulting to unpruned grid for atomic number  53.
 Defaulting to unpruned grid for atomic number  53.
 Defaulting to unpruned grid for atomic number  53.
 Defaulting to unpruned grid for atomic number  53.
 ***** Axes restored to original set *****
 -------------------------------------------------------------------
 Center     Atomic                   Forces (Hartrees/Bohr)
 Number     Number              X              Y              Z
 -------------------------------------------------------------------
      1        6           0.000001307    0.000080853    0.000020808
      2        8           0.000119715   -0.000094062   -0.000094533
      3        8          -0.000077084    0.000056416    0.000139258
      4        8          -0.000064773    0.000183466    0.000045034
      5        6           0.000031410   -0.000081821    0.000002313
      6        1           0.000007063   -0.000007555    0.000009833
      7        1           0.000007532   -0.000009355    0.000003972
      8        1           0.000014309   -0.000007548    0.000004538
      9        1           0.000121934   -0.000140944   -0.000210412
     10        1          -0.000079572    0.000014735    0.000093128
     11        6           0.000039726    0.000001600    0.000037463
     12        1          -0.000001403    0.000008552   -0.000000472
     13        1          -0.000012704    0.000010631    0.000008627
     14        1           0.000007032    0.000005116    0.000022609
     15        6          -0.000061440   -0.000016164   -0.000008943
     16        1          -0.000011278   -0.000012072   -0.000031546
     17        1          -0.000017867   -0.000024966    0.000014670
     18        1           0.000020795   -0.000004420   -0.000059346
     19       53          -0.000044700    0.000037536    0.000003000
 -------------------------------------------------------------------
 Cartesian Forces:  Max     0.000210412 RMS     0.000063242
 FormGI is forming the generalized inverse of G from B-inverse, IUseBI=4.

 GradGradGradGradGradGradGradGradGradGradGradGradGradGradGradGradGradGrad
 Berny optimization.
 Internal  Forces:  Max     0.000175946 RMS     0.000044418
 Search for a saddle point.
 Step number   1 out of a maximum of   99
 All quantities printed in internal units (Hartrees-Bohrs-Radians)
 Swapping is turned off.
 Second derivative matrix not updated -- analytic derivatives used.
 ITU=  0
     Eigenvalues ---   -0.02753   0.00120   0.00197   0.00281   0.00336
     Eigenvalues ---    0.00387   0.00518   0.01064   0.02100   0.02179
     Eigenvalues ---    0.03015   0.04497   0.04709   0.04961   0.05400
     Eigenvalues ---    0.06488   0.06566   0.06590   0.06616   0.07167
     Eigenvalues ---    0.07612   0.08852   0.08866   0.10147   0.11477
     Eigenvalues ---    0.12754   0.13196   0.13612   0.13914   0.15495
     Eigenvalues ---    0.16114   0.18096   0.18287   0.18722   0.18866
     Eigenvalues ---    0.19599   0.22293   0.27046   0.29071   0.32720
     Eigenvalues ---    0.33605   0.33700   0.33889   0.34357   0.34596
     Eigenvalues ---    0.34936   0.34991   0.35457   0.36054   0.36654
     Eigenvalues ---    0.57870
 Eigenvectors required to have negative eigenvalues:
                          R6        R5        R9        R2        R10
   1                    0.61752  -0.46011  -0.42759  -0.29969   0.18758
                          A20       A21       D2        R1        A4
   1                   -0.14843   0.11546   0.09166   0.08039   0.07430
 RFO step:  Lambda0=1.559709930D-08 Lambda=-4.07671909D-06.
 Linear search not attempted -- option 19 set.
 Iteration  1 RMS(Cart)=  0.00313659 RMS(Int)=  0.00001002
 Iteration  2 RMS(Cart)=  0.00001047 RMS(Int)=  0.00000192
 Iteration  3 RMS(Cart)=  0.00000000 RMS(Int)=  0.00000192
 Variable       Old X    -DE/DX   Delta X   Delta X   Delta X     New X
                                 (Linear)    (Quad)   (Total)
    R1        2.38657  -0.00005   0.00000  -0.00017  -0.00017   2.38639
    R2        3.01761   0.00011   0.00000   0.00062   0.00062   3.01823
    R3        2.86379   0.00002   0.00000   0.00000   0.00000   2.86379
    R4        4.52255  -0.00005   0.00000  -0.00075  -0.00075   4.52181
    R5        2.84407  -0.00005   0.00000  -0.00169  -0.00169   2.84238
    R6        2.49020   0.00003   0.00000  -0.00173  -0.00172   2.48848
    R7        2.72177   0.00001   0.00000  -0.00013  -0.00013   2.72164
    R8        2.73070  -0.00001   0.00000  -0.00044  -0.00044   2.73025
    R9        2.16510   0.00002   0.00000   0.00121   0.00121   2.16631
   R10        1.99763  -0.00001   0.00000   0.00013   0.00013   1.99776
   R11        2.06944   0.00000   0.00000   0.00008   0.00008   2.06952
   R12        2.06226   0.00000   0.00000   0.00002   0.00002   2.06227
   R13        2.06271   0.00000   0.00000   0.00003   0.00003   2.06274
   R14        2.06385   0.00000   0.00000   0.00002   0.00002   2.06386
   R15        2.06265  -0.00001   0.00000  -0.00003  -0.00003   2.06262
   R16        2.07485  -0.00001   0.00000   0.00002   0.00002   2.07486
   R17        2.06509   0.00000   0.00000   0.00004   0.00004   2.06513
   R18        2.06673   0.00000   0.00000   0.00003   0.00003   2.06676
   R19        2.07345  -0.00007   0.00000  -0.00020  -0.00020   2.07325
    A1        1.93235  -0.00004   0.00000  -0.00015  -0.00015   1.93220
    A2        2.09069  -0.00006   0.00000  -0.00006  -0.00006   2.09063
    A3        1.96752   0.00001   0.00000  -0.00005  -0.00005   1.96747
    A4        1.91562   0.00015   0.00000   0.00053   0.00054   1.91616
    A5        1.67852  -0.00005   0.00000  -0.00042  -0.00042   1.67810
    A6        1.83283  -0.00001   0.00000   0.00009   0.00009   1.83292
    A7        1.84801   0.00007   0.00000   0.00165   0.00164   1.84965
    A8        1.72116   0.00002   0.00000   0.00118   0.00117   1.72233
    A9        2.00508   0.00018   0.00000   0.00171   0.00171   2.00679
   A10        1.94184  -0.00009   0.00000   0.00051   0.00051   1.94235
   A11        2.02013   0.00005   0.00000   0.00257   0.00257   2.02269
   A12        1.96443   0.00003   0.00000   0.00165   0.00165   1.96608
   A13        1.57402   0.00002   0.00000   0.00092   0.00091   1.57494
   A14        1.93663  -0.00001   0.00000   0.00014   0.00014   1.93677
   A15        1.87659   0.00001   0.00000   0.00013   0.00013   1.87672
   A16        1.88387   0.00000   0.00000   0.00011   0.00011   1.88397
   A17        1.92928   0.00000   0.00000  -0.00016  -0.00016   1.92912
   A18        1.92175   0.00000   0.00000  -0.00013  -0.00013   1.92162
   A19        1.91464   0.00000   0.00000  -0.00008  -0.00008   1.91456
   A20        2.72296  -0.00005   0.00000  -0.00177  -0.00177   2.72119
   A21        2.56636   0.00001   0.00000   0.00065   0.00065   2.56701
   A22        1.88206  -0.00001   0.00000  -0.00019  -0.00019   1.88187
   A23        1.95606   0.00001   0.00000   0.00013   0.00013   1.95619
   A24        1.91053   0.00002   0.00000   0.00007   0.00007   1.91060
   A25        1.90145   0.00000   0.00000  -0.00006  -0.00006   1.90138
   A26        1.88572  -0.00001   0.00000  -0.00003  -0.00003   1.88569
   A27        1.92617   0.00000   0.00000   0.00008   0.00008   1.92625
   A28        1.91386   0.00000   0.00000  -0.00020  -0.00020   1.91366
   A29        1.86506  -0.00003   0.00000   0.00002   0.00002   1.86508
   A30        1.94568   0.00003   0.00000   0.00022   0.00022   1.94590
   A31        1.90019   0.00000   0.00000   0.00001   0.00001   1.90020
   A32        1.91884   0.00001   0.00000   0.00025   0.00025   1.91909
   A33        1.91904  -0.00001   0.00000  -0.00031  -0.00031   1.91873
    D1        0.61488  -0.00005   0.00000  -0.00443  -0.00443   0.61044
    D2        2.87096   0.00008   0.00000  -0.00384  -0.00385   2.86711
    D3       -1.24290   0.00003   0.00000  -0.00382  -0.00382  -1.24672
    D4       -0.56151   0.00003   0.00000   0.00079   0.00078  -0.56073
    D5        1.50371   0.00002   0.00000   0.00283   0.00283   1.50654
    D6       -2.90796   0.00001   0.00000   0.00053   0.00053  -2.90743
    D7       -0.84274  -0.00001   0.00000   0.00257   0.00257  -0.84017
    D8        1.48324   0.00001   0.00000   0.00048   0.00048   1.48372
    D9       -2.73472  -0.00001   0.00000   0.00252   0.00252  -2.73220
   D10        1.10904  -0.00003   0.00000   0.00027   0.00027   1.10931
   D11       -3.08150  -0.00003   0.00000   0.00015   0.00015  -3.08135
   D12       -0.93842  -0.00002   0.00000   0.00038   0.00038  -0.93803
   D13       -2.91058   0.00002   0.00000   0.00055   0.00055  -2.91003
   D14       -0.81793   0.00002   0.00000   0.00042   0.00042  -0.81750
   D15        1.32515   0.00003   0.00000   0.00066   0.00066   1.32581
   D16       -1.12349   0.00001   0.00000   0.00031   0.00031  -1.12318
   D17        0.96916   0.00001   0.00000   0.00018   0.00018   0.96934
   D18        3.11224   0.00002   0.00000   0.00042   0.00042   3.11266
   D19       -0.46410   0.00004   0.00000   0.01009   0.01010  -0.45401
   D20        0.21231   0.00008   0.00000   0.00693   0.00692   0.21924
   D21       -1.90017  -0.00010   0.00000   0.00411   0.00411  -1.89607
   D22        1.28792   0.00000   0.00000   0.00436   0.00436   1.29228
   D23       -2.93839  -0.00002   0.00000   0.00428   0.00428  -2.93412
   D24       -0.84118  -0.00003   0.00000   0.00404   0.00404  -0.83714
   D25       -3.05874   0.00007   0.00000   0.00718   0.00718  -3.05156
   D26       -1.00186   0.00005   0.00000   0.00710   0.00709  -0.99477
   D27        1.09535   0.00004   0.00000   0.00686   0.00686   1.10221
   D28       -0.92018  -0.00004   0.00000  -0.00055  -0.00055  -0.92073
   D29        1.19155  -0.00004   0.00000  -0.00058  -0.00058   1.19097
   D30       -3.02728  -0.00003   0.00000  -0.00054  -0.00055  -3.02783
   D31        0.85622   0.00003   0.00000   0.00288   0.00288   0.85910
   D32        2.96794   0.00003   0.00000   0.00285   0.00286   2.97080
   D33       -1.25089   0.00004   0.00000   0.00289   0.00289  -1.24800
   D34        2.05912  -0.00003   0.00000  -0.00199  -0.00199   2.05714
   D35        0.04674  -0.00009   0.00000  -0.00495  -0.00495   0.04179
   D36       -2.00202  -0.00008   0.00000  -0.00988  -0.00988  -2.01190
   D37        0.05997  -0.00001   0.00000  -0.00624  -0.00623   0.05373
         Item               Value     Threshold  Converged?
 Maximum Force            0.000176     0.000450     YES
 RMS     Force            0.000044     0.000300     YES
 Maximum Displacement     0.012878     0.001800     NO 
 RMS     Displacement     0.003135     0.001200     NO 
 Predicted change in Energy=-2.030559D-06
 GradGradGradGradGradGradGradGradGradGradGradGradGradGradGradGradGradGrad

                          Input orientation:                          
 ---------------------------------------------------------------------
 Center     Atomic      Atomic             Coordinates (Angstroms)
 Number     Number       Type             X           Y           Z
 ---------------------------------------------------------------------
      1          6           0       -0.290140    0.824825    0.553829
      2          8           0       -0.916203    0.271529    1.500738
      3          8           0       -1.097406    0.681439   -0.816845
      4          8           0       -1.991928   -1.386392    0.036622
      5          6           0       -3.416886   -1.605084    0.131900
      6          1           0       -3.931568   -0.696649    0.462334
      7          1           0       -3.769790   -1.907227   -0.855582
      8          1           0       -3.586107   -2.412989    0.846145
      9          1           0       -1.664683   -0.485547   -0.592295
     10          1           0       -1.590873   -0.932678    0.903169
     11          6           0        0.206890    2.247905    0.710046
     12          1           0        0.942716    2.258302    1.517043
     13          1           0        0.676077    2.621109   -0.202057
     14          1           0       -0.628555    2.897222    1.003233
     15          6           0       -2.082719    1.705134   -1.052368
     16          1           0       -1.584544    2.638707   -1.325349
     17          1           0       -2.692966    1.370011   -1.895835
     18          1           0       -2.716946    1.862928   -0.171165
     19         53           0        1.625271   -0.427798   -0.144603
 ---------------------------------------------------------------------
                    Distance matrix (angstroms):
                    1          2          3          4          5
     1  C    0.000000
     2  O    1.262825   0.000000
     3  O    1.597180   2.360519   0.000000
     4  O    2.837792   2.459577   2.409253   0.000000
     5  C    3.982338   3.413035   3.392386   1.444787   0.000000
     6  H    3.947562   3.332878   3.401161   2.102185   1.095143
     7  H    4.643114   4.294436   3.720796   2.056232   1.091308
     8  H    4.629501   3.842332   4.305189   2.061707   1.091556
     9  H    2.218117   2.348228   1.316845   1.146363   2.201826
    10  H    2.214218   1.504122   2.409840   1.057168   2.093157
    11  C    1.515454   2.406781   2.546841   4.300746   5.320857
    12  H    2.121926   2.720866   3.477877   4.907909   5.987528
    13  H    2.175219   3.309893   2.699172   4.820299   5.892756
    14  H    2.147398   2.687846   2.905547   4.598094   5.367007
    15  C    2.562840   3.151877   1.440231   3.278975   3.760323
    16  H    2.914954   3.746595   2.080091   4.268764   4.846732
    17  H    3.474428   3.987512   2.045522   3.438546   3.672459
    18  H    2.737272   2.927539   2.106117   3.335702   3.550897
    19  I    2.392838   3.107296   3.015839   3.746448   5.185152
                    6          7          8          9         10
     6  H    0.000000
     7  H    1.796824   0.000000
     8  H    1.792339   1.784772   0.000000
     9  H    2.509099   2.553815   3.078314   0.000000
    10  H    2.393512   2.964899   2.485061   1.562622   0.000000
    11  C    5.085134   5.960730   6.010764   3.559584   3.658601
    12  H    5.796791   6.722253   6.540741   4.333190   4.120469
    13  H    5.716583   6.379550   6.678854   3.909316   4.357751
    14  H    4.911046   6.033679   6.080307   3.881030   3.950216
    15  C    3.388381   3.991753   4.777391   2.277170   3.320254
    16  H    4.452968   5.065718   5.851605   3.210101   4.209647
    17  H    3.371376   3.603050   4.756811   2.489915   3.788325
    18  H    2.903112   3.973787   4.480383   2.607670   3.199632
    19  I    5.596348   5.639227   5.664011   3.320777   3.419987
                   11         12         13         14         15
    11  C    0.000000
    12  H    1.092150   0.000000
    13  H    1.091490   1.777084   0.000000
    14  H    1.097970   1.772318   1.797506   0.000000
    15  C    2.939900   4.007632   3.028695   2.785886   0.000000
    16  H    2.739488   3.822426   2.524382   2.530422   1.092820
    17  H    3.996308   5.065074   3.972981   3.872823   1.093684
    18  H    3.077914   4.049628   3.476837   2.609665   1.097115
    19  I    3.146684   3.231420   3.193760   4.177681   4.372942
                   16         17         18         19
    16  H    0.000000
    17  H    1.778663   0.000000
    18  H    1.793407   1.793886   0.000000
    19  I    4.593531   4.994607   4.909479   0.000000
 Stoichiometry    C4H11IO3
 Framework group  C1[X(C4H11IO3)]
 Deg. of freedom    51
 Full point group                 C1      NOp   1
 Largest Abelian subgroup         C1      NOp   1
 Largest concise Abelian subgroup C1      NOp   1
                         Standard orientation:                         
 ---------------------------------------------------------------------
 Center     Atomic      Atomic             Coordinates (Angstroms)
 Number     Number       Type             X           Y           Z
 ---------------------------------------------------------------------
      1          6           0       -0.290092    0.824564    0.554368
      2          8           0       -0.917567    0.272639    1.501141
      3          8           0       -1.096404    0.681178   -0.816868
      4          8           0       -1.994016   -1.385034    0.037275
      5          6           0       -3.419304   -1.602011    0.131538
      6          1           0       -3.933203   -0.692756    0.460933
      7          1           0       -3.771751   -1.904419   -0.856027
      8          1           0       -3.590043   -2.409233    0.846195
      9          1           0       -1.665215   -0.484997   -0.591987
     10          1           0       -1.593144   -0.931194    0.903840
     11          6           0        0.208458    2.247174    0.710022
     12          1           0        0.943637    2.257269    1.517612
     13          1           0        0.678822    2.619213   -0.201952
     14          1           0       -0.626473    2.897657    1.002084
     15          6           0       -2.080338    1.705852   -1.053892
     16          1           0       -1.580860    2.638662   -1.327102
     17          1           0       -2.690284    1.370861   -1.897629
     18          1           0       -2.715101    1.864981   -0.173316
     19         53           0        1.624437   -0.430751   -0.141646
 ---------------------------------------------------------------------
 Rotational constants (GHZ):      1.5634810      0.6608898      0.5493181
 Basis read from rwf:  (5D, 7F)
 Pseudo-potential data read from rwf file.
 There are   214 symmetry adapted cartesian basis functions of A   symmetry.
 There are   198 symmetry adapted basis functions of A   symmetry.
   198 basis functions,   377 primitive gaussians,   214 cartesian basis functions
    42 alpha electrons       42 beta electrons
       nuclear repulsion energy       567.2400408312 Hartrees.
 NAtoms=   19 NActive=   19 NUniq=   19 SFac= 1.00D+00 NAtFMM=   60 NAOKFM=F Big=F
 Integral buffers will be    131072 words long.
 Raffenetti 2 integral format.
 Two-electron integral symmetry is turned on.
 One-electron integrals computed using PRISM.
 PrsmSu:  requested number of processors reduced to:   2 ShMem   1 Linda.
   1 Symmetry operations used in ECPInt.
 ECPInt:  NShTT=    2701 NPrTT=   12914 LenC2=    2646 LenP2D=    9047.
 LDataN:  DoStor=T MaxTD1= 7 Len=  274
 NBasis=   198 RedAO= T EigKep=  5.98D-05  NBF=   198
 NBsUse=   198 1.00D-06 EigRej= -1.00D+00 NBFU=   198
 Defaulting to unpruned grid for atomic number  53.
 Initial guess from the checkpoint file:  "/lustre/SCRATCH5/gau/Gau-12236.chk"
 B after Tr=     0.000000    0.000000    0.000000
         Rot=    1.000000    0.000026    0.000005    0.000432 Ang=   0.05 deg.
 Requested convergence on RMS density matrix=1.00D-08 within 128 cycles.
 Requested convergence on MAX density matrix=1.00D-06.
 Requested convergence on             energy=1.00D-06.
 No special actions if energy rises.
 Defaulting to unpruned grid for atomic number  53.
 Defaulting to unpruned grid for atomic number  53.
 Defaulting to unpruned grid for atomic number  53.
 Defaulting to unpruned grid for atomic number  53.
 Defaulting to unpruned grid for atomic number  53.
 Defaulting to unpruned grid for atomic number  53.
 Defaulting to unpruned grid for atomic number  53.
 Defaulting to unpruned grid for atomic number  53.
 SCF Done:  E(RB3LYP) =  -682.475091403     A.U. after    9 cycles
            NFock=  9  Conv=0.31D-08     -V/T= 2.3770
 PrsmSu:  requested number of processors reduced to:   2 ShMem   1 Linda.
 PrsmSu:  requested number of processors reduced to:   5 ShMem   1 Linda.
   1 Symmetry operations used in ECPInt.
 ECPInt:  NShTT=    2701 NPrTT=   12914 LenC2=    2646 LenP2D=    9047.
 LDataN:  DoStor=T MaxTD1= 8 Len=  415
 Calling FoFJK, ICntrl=      2127 FMM=F ISym2X=0 I1Cent= 0 IOpClX= 0 NMat=1 NMatS=1 NMatT=0.
 CoulSu:  requested number of processors reduced to:   5 ShMem   1 Linda.
 Defaulting to unpruned grid for atomic number  53.
 Defaulting to unpruned grid for atomic number  53.
 Defaulting to unpruned grid for atomic number  53.
 Defaulting to unpruned grid for atomic number  53.
 Defaulting to unpruned grid for atomic number  53.
 Defaulting to unpruned grid for atomic number  53.
 Defaulting to unpruned grid for atomic number  53.
 Defaulting to unpruned grid for atomic number  53.
 ***** Axes restored to original set *****
 -------------------------------------------------------------------
 Center     Atomic                   Forces (Hartrees/Bohr)
 Number     Number              X              Y              Z
 -------------------------------------------------------------------
      1        6          -0.000003481    0.000007561   -0.000000072
      2        8          -0.000001969    0.000001006    0.000001245
      3        8          -0.000012516    0.000005200    0.000000430
      4        8           0.000008713   -0.000002213    0.000000676
      5        6           0.000009947   -0.000010117    0.000001614
      6        1           0.000006381   -0.000011724    0.000003236
      7        1           0.000010337   -0.000010841    0.000002323
      8        1           0.000015278   -0.000010337    0.000001870
      9        1           0.000011836   -0.000000568   -0.000001889
     10        1           0.000012164   -0.000000640   -0.000001250
     11        6          -0.000007500    0.000007224   -0.000001495
     12        1          -0.000006274    0.000011673   -0.000002789
     13        1          -0.000010616    0.000010871   -0.000002526
     14        1          -0.000010163    0.000004551   -0.000000350
     15        6          -0.000006269   -0.000003265   -0.000000406
     16        1          -0.000012824   -0.000000272    0.000000795
     17        1          -0.000007128   -0.000005322    0.000002256
     18        1          -0.000006649   -0.000005639    0.000002294
     19       53           0.000010733    0.000012852   -0.000005962
 -------------------------------------------------------------------
 Cartesian Forces:  Max     0.000015278 RMS     0.000007198

 GradGradGradGradGradGradGradGradGradGradGradGradGradGradGradGradGradGrad
 Berny optimization.
 FormGI is forming the generalized inverse of G from B-inverse, IUseBI=4.
 Internal  Forces:  Max     0.000006945 RMS     0.000001296
 Search for a saddle point.
 Step number   2 out of a maximum of   99
 All quantities printed in internal units (Hartrees-Bohrs-Radians)
 Swapping is turned off.
 Update second derivatives using D2CorX and points    1    2
 ITU=  0  0
     Eigenvalues ---   -0.02753   0.00120   0.00194   0.00277   0.00341
     Eigenvalues ---    0.00388   0.00520   0.01062   0.02102   0.02181
     Eigenvalues ---    0.03013   0.04497   0.04709   0.04961   0.05400
     Eigenvalues ---    0.06488   0.06566   0.06590   0.06616   0.07167
     Eigenvalues ---    0.07611   0.08853   0.08867   0.10148   0.11477
[...]
 0.00584068,0.02736960,0.04374699,0.01125332,0.03733968,0.03156219,0.32
 499849,-0.00521694,-0.00117906,0.00205617,0.00711272,0.00825600,0.0014
 8895,0.00546546,0.01346001,-0.00301334,-0.20095249,-0.02176682,0.00057
 380,0.44178906,-0.00068640,-0.00020133,0.00101172,0.00128481,-0.000353
 74,-0.00167696,0.00088153,-0.00427536,0.00137976,-0.00830821,-0.072281
 91,0.00482123,-0.01967403,0.60227353,0.00083470,0.00080944,-0.00460151
 ,-0.00268931,-0.00706434,-0.00137225,0.00067521,0.00514690,-0.00010208
 ,0.01495995,0.00694767,-0.09805441,0.01507691,-0.00085418,0.62568678,-
 0.00047680,0.00022011,0.00041202,0.00026523,-0.00100724,-0.00061226,-0
 .00041780,-0.00181359,0.00024186,-0.03543392,0.02155716,0.01101116,-0.
 09806248,0.09236731,0.03213049,0.11926164,-0.00026060,-0.00005141,0.00
 004605,0.00043136,0.00049586,0.00047276,0.00044963,0.00075437,-0.00041
 082,-0.00459091,0.01314684,0.00352259,0.09883655,-0.24604227,-0.067863
 74,-0.10697949,0.25580831,-0.00007666,-0.00027732,0.00126785,0.0008639
 0,0.00071503,-0.00045830,-0.00041554,0.00035019,-0.00050933,0.00268373
 ,0.00051753,0.00235067,0.03460810,-0.06731904,-0.08037896,-0.04039391,
 0.07370661,0.07525253,0.00103156,0.00049530,-0.00198935,-0.00181401,-0
 .00345243,-0.00057290,0.00002287,-0.00052413,0.00066011,-0.02747466,-0
 .01485700,-0.03689208,-0.06939894,-0.01920685,-0.06615204,0.00731735,0
 .00268326,0.01346469,0.08913957,0.00017381,0.00027993,-0.00081725,-0.0
 0042121,-0.00057783,0.00021824,0.00016551,-0.00017776,0.00052357,-0.00
 535504,-0.00071804,-0.00455725,-0.02107623,-0.07477118,-0.06850187,-0.
 00870134,-0.00551325,-0.02536297,0.02740783,0.07158593,0.00030244,0.00
 009455,-0.00010285,-0.00021123,0.00004811,0.00022931,-0.00022809,-0.00
 052259,0.00002513,0.00110440,0.00122355,0.00934702,-0.07823472,-0.0700
 3986,-0.28722148,-0.00176956,-0.00085691,-0.00600499,0.08290033,0.0756
 1919,0.29993941,0.00080580,-0.00000680,0.00100453,-0.00017683,-0.00016
 420,-0.00063932,-0.00122337,-0.00449456,0.00074077,-0.02249755,-0.0340
 0007,0.02936432,-0.05013376,-0.01813069,0.01533138,0.00446650,0.009623
 98,-0.01028914,0.00320067,0.00841077,-0.00538699,0.06649758,0.00034110
 ,-0.00001072,0.00054724,-0.00008844,-0.00003871,-0.00049828,-0.0002365
 9,-0.00044708,-0.00022839,-0.00599843,-0.00039892,0.00142672,-0.025537
 80,-0.20625943,0.13460058,-0.00287753,-0.01799674,0.01842885,0.0024988
 7,0.00931777,-0.00702091,0.03157372,0.21455378,-0.00034761,-0.00002592
 ,0.00010729,0.00026780,0.00035047,-0.00012995,0.00018202,0.00034680,-0
 .00011574,0.00253402,0.00011297,0.00298162,0.02403588,0.13500709,-0.17
 438235,-0.00227565,-0.00898150,0.00889329,0.00360010,0.02259606,-0.016
 86856,-0.02724957,-0.14706582,0.17875845,-0.00818133,-0.00461267,-0.02
 175087,-0.00783441,-0.01009610,0.00638100,-0.03317787,0.01119936,-0.00
 238949,-0.04285312,0.01367341,-0.02765863,-0.01433309,-0.01643684,0.01
 342475,0.00157386,-0.00042874,0.00054292,0.00107182,-0.00029971,0.0000
 4364,-0.00129435,0.00058771,-0.00078862,0.07858861,-0.02252275,0.01089
 073,-0.04763729,-0.01161722,-0.02169259,0.01233950,0.02929744,0.020620
 61,0.00776987,0.00572720,-0.05595133,0.01127172,-0.02023301,0.00513175
 ,-0.01023698,0.00443907,-0.00024880,-0.00100586,0.00080757,-0.00004587
 ,0.00099705,0.00751543,0.00170520,-0.00124321,-0.02667010,0.02192234,-
 0.00729508,-0.02145663,0.02296148,0.01018908,0.01171844,-0.00492865,-0
 .01211955,-0.01229465,-0.03439816,-0.00872829,0.01679409,-0.05403505,0
 .01101931,-0.00450315,0.00476245,-0.00141315,0.00082456,0.00001324,-0.
 00137978,-0.00089040,-0.00004443,-0.00399189,-0.00111489,0.00077687,0.
 02519949,-0.00471448,0.11061712,-0.01475304,-0.01306478,0.02848200,0.0
 0149079,0.02848054,-0.00411135,-0.00934372,-0.00881461,-0.00480117,-0.
 06068370,-0.02191389,-0.00750736,-0.02052691,-0.01203699,-0.02370967,0
 .00174166,0.00021884,-0.00125474,-0.00253943,-0.00018011,0.00167994,0.
 00124161,-0.00012663,-0.00019471,0.01681290,0.01889267,-0.00565221,0.0
 8048900,-0.02416887,-0.01475769,0.04369686,0.03041135,0.02097360,-0.00
 973949,-0.01045278,-0.01021210,-0.01165628,-0.02634554,-0.06498548,-0.
 04958531,-0.00928237,-0.00209830,0.00562461,0.00304558,0.00005456,0.00
 020398,0.00400265,0.00063705,0.00044965,-0.00017396,-0.00024605,-0.001
 00065,0.01595065,0.02871628,0.01358623,0.00922120,0.04398752,-0.007658
 47,0.00516546,0.04119064,0.02209665,0.02473950,-0.03225656,-0.00971504
 ,-0.01030160,-0.00652399,-0.04259561,-0.05879116,-0.16934478,-0.008182
 50,0.00187457,0.01500286,0.00282109,-0.00066336,-0.00027082,0.00597522
 ,0.00109621,0.00071225,0.00137221,0.00096520,-0.00001966,0.00533085,0.
 02001266,-0.03745484,0.02363477,0.01687300,0.19859222,-0.07111891,-0.0
 2899572,-0.00397709,-0.00822296,-0.02943534,0.00978555,-0.01173384,-0.
 01866194,-0.01476765,-0.00185702,-0.00281866,-0.00033304,0.00077461,-0
 .00001172,-0.00013934,0.00000640,0.00003613,-0.00001857,-0.00016213,0.
 00000995,-0.00002533,-0.00014569,-0.00004785,0.00004715,0.00055644,0.0
 0409235,-0.00278229,0.00208025,0.00196365,0.00276787,0.56936373,-0.048
 20747,-0.18330502,-0.01618826,-0.01361742,-0.01967888,0.00950209,0.002
 18659,0.00244725,0.00134059,-0.00030367,0.00007221,-0.00219983,0.00005
 583,0.00013208,-0.00008297,0.00000245,-0.00000482,0.00003910,-0.000043
 94,-0.00002750,-0.00002312,0.00004993,0.00000673,0.00000566,-0.0003640
 3,-0.00170022,0.00161350,0.00146393,0.00237358,0.00187674,-0.01672541,
 0.47411007,-0.00626675,-0.01223208,-0.07243058,0.02091511,0.03659643,0
 .00129946,-0.01694981,-0.02468592,-0.01276701,0.00142562,-0.00023101,0
 .00680748,-0.00019527,-0.00002060,0.00038919,0.00001871,0.00000082,-0.
 00014060,0.00022070,0.00008207,-0.00000223,-0.00010722,-0.00006072,-0.
 00001026,0.00152007,0.00607250,-0.00497467,-0.00319939,-0.00466954,-0.
 00599098,-0.01111471,-0.03144662,0.60005093,-0.00841158,0.00135017,-0.
 00805136,0.00110087,-0.00009871,0.00139440,0.00016016,-0.00138214,-0.0
 0005514,0.00003703,-0.00005057,0.00045597,0.00002678,0.00000873,0.0000
 4809,0.00000223,0.00000609,-0.00001714,0.00001220,0.00000872,0.0000021
 8,-0.00001745,-0.00001298,0.00000119,0.00027099,0.00059011,-0.00044197
 ,-0.00019835,-0.00035237,-0.00022138,-0.17335699,-0.00280923,-0.139422
 20,0.18484539,-0.02170770,-0.00081105,-0.02292860,0.00264495,0.0010478
 8,0.00045866,-0.00524648,-0.00640065,-0.00363964,-0.00000371,-0.000554
 48,0.00126089,0.00013486,-0.00000839,0.00004929,-0.00001375,0.00000543
 ,-0.00001634,0.00001244,0.00001362,-0.00000458,-0.00005134,-0.00001223
 ,0.00000554,0.00036235,0.00192694,-0.00146339,-0.00042211,-0.00066365,
 -0.00068401,0.00016888,-0.04541642,0.00201138,0.00144466,0.05135223,-0
 .00313395,0.00010686,-0.00421451,0.00119401,0.00097526,0.00008049,-0.0
 0078342,-0.00159010,0.00077182,0.00001377,-0.00026709,0.00042893,0.000
 00557,-0.00002650,0.00004591,0.00000613,0.00000123,-0.00001417,0.00001
 142,0.00000951,0.00000080,-0.00002040,-0.00000446,0.00000221,0.0001756
 8,0.00087028,-0.00044021,-0.00022286,-0.00029903,-0.00016340,-0.138917
 73,-0.00104503,-0.19924823,0.15141678,0.00153716,0.21232018,-0.0067898
 8,-0.00095828,0.00993551,0.00051928,-0.00392367,-0.00031352,0.00017614
 ,0.00132725,-0.00089367,-0.00019679,0.00023251,-0.00078936,0.00004404,
 0.00002453,-0.00009993,-0.00001451,-0.00000177,0.00003157,-0.00003986,
 -0.00002280,-0.00000178,0.00001399,0.00001589,0.00000252,-0.00026921,-
 0.00090700,0.00044104,0.00071567,0.00044711,0.00079204,-0.09873482,-0.
 04042346,0.09937013,0.01128935,0.00881277,-0.01837129,0.10390775,-0.01
 214513,-0.00706399,0.03031139,-0.00441073,-0.00793207,-0.00120874,0.00
 116455,0.00162044,-0.00076669,-0.00047847,-0.00030043,-0.00164681,0.00
 020866,0.00003236,-0.00010387,-0.00001010,0.00000671,0.00003319,-0.000
 07375,-0.00001325,-0.00000132,0.00000702,0.00000652,0.00001105,-0.0002
 8361,-0.00095347,0.00063465,0.00079526,0.00153959,0.00169241,-0.037644
 49,-0.08012707,0.07430176,0.00115747,-0.00013609,-0.00100708,0.0442010
 4,0.08552183,-0.00224451,-0.00403509,0.00264939,-0.00094692,-0.0006912
 2,0.00166312,0.00004978,0.00057312,0.00067122,0.00015551,0.00021132,0.
 00007858,-0.00005772,0.00000901,0.00005439,-0.00000121,-0.00001036,-0.
 00000621,0.00002464,0.00000543,-0.00000622,0.00000694,0.00000051,-0.00
 000383,0.00003334,-0.00005907,0.00006407,-0.00020380,-0.00030759,-0.00
 005347,0.10070748,0.08047878,-0.24433009,0.01143865,0.00771308,-0.0180
 9912,-0.10873219,-0.08443916,0.26168787,0.00575395,-0.00603044,-0.0014
 6128,0.00150346,0.00042859,-0.00161131,0.00068979,0.00083351,0.0008871
 9,0.00018108,0.00019938,-0.00001463,-0.00011196,-0.00000917,0.00000047
 ,0.00001716,-0.00001247,-0.00000178,0.00001220,0.00000308,0.00000125,0
 .00001585,0.00000892,-0.00000293,-0.00013685,-0.00025080,0.00021753,-0
 .00010044,-0.00001786,-0.00012143,-0.19972901,0.11391085,0.05349313,-0
 .01609721,0.01246358,0.00740039,-0.00953759,0.00702755,0.00113121,0.21
 796675,0.02450327,-0.02136956,-0.00771522,-0.00126871,0.00402101,-0.00
 030674,-0.00037898,0.00121783,0.00082399,0.00017098,0.00037035,0.00013
 819,0.00008031,-0.00000587,0.00001331,-0.00005770,0.00000241,0.0000136
 4,0.00001222,-0.00000303,0.00000080,0.00000203,0.00000944,-0.00000683,
 0.00001280,-0.00051046,0.00011627,-0.00024830,-0.00032464,-0.00033055,
 0.11447699,-0.13701426,-0.03825639,-0.00057758,0.00044391,0.00074001,-
 0.00951190,0.00801943,0.00169216,-0.12777323,0.14806353,0.00353594,-0.
 00367436,-0.00203732,-0.00037943,0.00113036,-0.00021060,-0.00055749,0.
 00073102,-0.00012160,0.00006968,0.00020519,-0.00018955,-0.00001452,-0.
 00000558,-0.00002499,-0.00002015,-0.00000381,0.00002752,-0.00000050,-0
 .00001447,-0.00000340,0.00000782,0.00001929,-0.00000350,-0.00019276,-0
 .00044947,0.00022514,0.00007752,-0.00006752,0.00005402,0.05382527,-0.0
 3842378,-0.06703800,-0.01775430,0.01489621,0.00805548,0.01919087,-0.01
 707688,-0.00488186,-0.05742938,0.04452143,0.06674750,-0.02246983,0.008
 07712,-0.01744318,0.00074571,-0.00132032,0.00786862,-0.12208377,0.0535
 4209,-0.01952341,-0.00809104,-0.01130905,0.00666674,0.00402226,-0.0008
 3543,0.00069872,-0.00068095,0.00014251,0.00032259,-0.00028448,-0.00013
 773,-0.00013774,-0.00104659,-0.00000454,0.00012484,0.01492353,0.016180
 12,-0.00553087,-0.00007692,0.00047412,-0.00129846,0.00139478,-0.001993
 04,-0.00017807,0.00023972,0.00143547,0.00058979,-0.00065234,-0.0003062
 2,-0.00047113,-0.00096221,0.00024460,0.00000950,0.50926805,0.01367789,
 0.00376739,0.02602936,0.00075035,0.00232680,-0.00871177,0.05145499,-0.
 14819890,-0.00032384,0.00039441,0.00536060,-0.00150764,-0.00340355,-0.
 00068944,0.00103484,0.00056467,-0.00034153,-0.00031876,0.00023215,0.00
 004162,0.00006187,0.00024150,-0.00029480,-0.00011482,0.01096593,-0.015
 15027,0.00318608,-0.00064439,-0.00182500,-0.00034366,-0.00308252,0.001
 45865,-0.00248356,-0.00010562,-0.00171111,-0.00007459,-0.00095408,0.00
 030213,-0.00001296,0.00025519,-0.00011203,-0.00105267,0.09029752,0.526
 27459,-0.01566494,0.01639580,0.00012506,0.00270084,-0.00007975,-0.0034
 4046,-0.01461978,-0.00523352,-0.07861022,-0.00053361,-0.00265953,0.002
 27902,0.00082676,0.00065868,0.00041733,0.00014097,0.00020792,0.0000220
 4,-0.00004685,-0.00033130,-0.00012147,-0.00017737,-0.00010003,-0.00011
 159,0.00070204,0.00722570,-0.00220570,-0.00126602,-0.00029317,-0.00111
 091,-0.00073911,-0.00070121,-0.00109761,0.00022581,0.00103870,0.000008
 62,0.00058407,-0.00031189,-0.00018828,-0.00173201,-0.00053904,-0.00024
 919,-0.01116548,0.02484862,0.59574288,0.00128698,0.00068728,0.00099458
 ,0.00006158,-0.00029348,-0.00066273,0.00985808,0.03336146,-0.00829899,
 0.00175045,0.00221234,-0.00141200,-0.00072748,0.00032660,-0.00010360,0
 .00019762,-0.00006366,-0.00017212,0.00005287,0.00006455,0.00003024,0.0
 0027490,-0.00004796,-0.00002186,-0.00381687,-0.00255843,0.00087629,0.0
 0000787,0.00008999,0.00031513,-0.00003192,-0.00008515,-0.00144571,-0.0
 0019657,0.00025178,0.00021107,-0.00066678,-0.00027122,-0.00025876,-0.0
 0058764,0.00003627,-0.00010984,-0.11696011,-0.11908573,0.03515103,0.12
 339014,-0.00263463,-0.00095484,-0.00318195,0.00036270,0.00043145,0.001
 08422,0.00204238,-0.03166303,0.00869331,-0.00195230,-0.00251718,0.0017
 3595,0.00070908,-0.00029391,0.00028110,-0.00011024,0.00001610,0.000025
 94,-0.00003996,0.00002053,-0.00001653,-0.00025242,-0.00003088,0.000026
 50,0.00414282,0.00511964,-0.00148724,-0.00027775,-0.00013107,-0.000661
 30,-0.00037259,0.00000156,-0.00009386,-0.00003271,0.00051252,-0.000132
 07,0.00027545,0.00005789,-0.00025772,-0.00040593,0.00028677,0.00007269
 ,-0.11127139,-0.23601948,0.05530138,0.11445562,0.26542031,0.00152747,0
 .00193633,0.00056332,-0.00076878,-0.00044427,-0.00037307,-0.00189229,0
 .00735053,0.00049233,0.00028408,0.00045689,-0.00055862,0.00000758,-0.0
 0009623,-0.00020047,-0.00009610,-0.00000829,0.00002030,0.00001550,0.00
 008702,0.00003624,0.00003833,0.00007726,0.00006275,-0.00077812,-0.0010
 3156,0.00019778,0.00025747,0.00001183,0.00024895,-0.00014463,0.0001312
 7,-0.00003269,0.00014568,-0.00022805,0.00008467,-0.00053621,0.00001816
 ,0.00009545,-0.00019451,-0.00021655,-0.00108797,0.03378255,0.05365807,
 -0.06969267,-0.03324489,-0.06215814,0.06717332,0.00107257,0.00111573,0
 .00653592,0.00103325,0.00072707,-0.00189832,-0.02194950,0.00181577,-0.
 02428241,0.00041634,0.00076552,-0.00000148,-0.00019190,-0.00003214,-0.
 00003809,0.00006422,0.00002003,0.00002674,0.00008961,0.00000973,0.0000
 0636,0.00002222,0.00001473,0.00001635,-0.00028867,-0.00097419,-0.00013
 319,-0.00039204,-0.00049081,-0.00031886,-0.00021797,0.00047132,0.00000
 498,0.00005513,-0.00004106,-0.00004616,0.00013813,-0.00008477,-0.00007
 861,0.00001647,-0.00022947,-0.00000311,-0.12597864,-0.05028635,-0.1080
 9808,-0.00720262,-0.00591867,-0.01242769,0.14108026,0.00015577,-0.0024
 6436,-0.00520344,-0.00094727,-0.00049650,0.00185755,0.02488321,0.00365
 584,0.02748935,-0.00024712,-0.00014564,-0.00078813,0.00002909,0.000018
 96,0.00007317,-0.00002023,0.00000463,0.00007111,-0.00004623,-0.0001055
 7,-0.00003433,-0.00003393,0.00002189,-0.00003567,0.00025720,0.00015287
 ,0.00117600,0.00054752,0.00070397,0.00051819,-0.00002159,-0.00046150,-
 0.00027472,-0.00016294,0.00049126,0.00003210,0.00032415,-0.00005858,-0
 .00010536,-0.00041868,0.00037794,0.00040562,-0.05564516,-0.08045693,-0
 .07421670,-0.01388955,-0.00662578,-0.02216442,0.04691293,0.08599051,0.
 00130939,0.00049637,0.00200761,-0.00008994,0.00023683,0.00001054,-0.00
 580711,0.00350943,-0.00346457,0.00076323,0.00095431,-0.00003213,-0.000
 52471,0.00003272,0.00007284,0.00009280,-0.00012947,-0.00027210,0.00005
 339,0.00020663,0.00006956,0.00015277,-0.00008331,0.00003106,-0.0011293
 9,-0.00088631,0.00011059,-0.00036410,-0.00056878,-0.00038381,0.0001591
 7,-0.00006179,-0.00009453,-0.00005550,-0.00003239,0.00003566,-0.000133
 04,0.00007112,0.00005469,0.00001217,0.00023119,0.00005158,-0.11188286,
 -0.06947176,-0.21297742,0.00544322,0.00220925,0.00818126,0.12652838,0.
 07228838,0.22457282,0.00046970,0.00022169,0.00614171,0.00146291,-0.000
 03884,-0.00193153,-0.02170423,0.01701353,0.01208629,0.00060334,0.00136
 530,-0.00093068,-0.00042555,-0.00002420,-0.00006159,0.00013972,-0.0001
 1428,0.00002343,0.00001916,0.00000159,0.00000760,0.00010399,-0.0000221
 7,-0.00002502,-0.00140520,-0.00301954,0.00089870,0.00008267,0.00028851
 ,0.00038586,-0.00056515,0.00029953,0.00002302,0.00018987,-0.00025819,-
 0.00014342,0.00021959,0.00004677,-0.00002771,-0.00033465,-0.00055024,-
 0.00046141,-0.12977866,0.01161671,0.11475407,-0.00686729,0.00110068,0.
 01404325,0.01314439,-0.00246193,-0.01437274,0.14466999,-0.00082933,0.0
 0121043,-0.00421609,-0.00163796,-0.00074411,0.00131853,0.02370209,-0.0
 1142089,-0.01732320,-0.00087213,-0.00088122,0.00049995,0.00059381,-0.0
 0038423,-0.00017191,-0.00035655,-0.00009977,0.00020606,-0.00006079,0.0
 0003795,0.00000552,-0.00015351,0.00011899,0.00005469,0.00160452,0.0020
 4927,-0.00161439,0.00041531,0.00008452,0.00022341,-0.00015337,0.000014
 88,0.00075514,0.00013470,0.00006072,-0.00007671,0.00010407,0.00000546,
 -0.00006329,-0.00009468,-0.00009486,-0.00019019,0.01192207,-0.05618896
 ,-0.02148370,-0.01499837,0.00626806,0.02280080,0.00582325,-0.00037673,
 -0.00910117,-0.02523882,0.06036927,-0.00221578,-0.00022140,-0.00082058
 ,0.00012067,-0.00046619,0.00127606,-0.00412600,-0.00058954,0.01233983,
 -0.00074310,-0.00079133,0.00010745,0.00071827,-0.00016189,-0.00028490,
 -0.00018604,0.00013515,0.00027225,-0.00002312,-0.00002445,-0.00001936,
 -0.00013747,0.00013784,0.00005699,0.00067868,0.00066602,-0.00032498,0.
 00040006,0.00040367,0.00035909,0.00013989,-0.00023819,-0.00019486,-0.0
 0007709,0.00007686,0.00009065,-0.00009874,0.00002967,-0.00001759,-0.00
 048498,0.00015997,0.00006978,0.11900888,-0.02457659,-0.22884657,0.0026
 2257,-0.00140136,-0.00513594,0.01426443,-0.00121825,-0.01799050,-0.129
 96137,0.02808383,0.23920269,0.00969404,-0.00324889,-0.00780795,-0.0284
 9464,-0.00035780,0.02501453,-0.01956453,0.01399378,-0.01006436,-0.0036
 6008,-0.00328111,-0.00292344,0.00084661,0.00049917,-0.00018710,0.00003
 285,0.00000352,0.00007194,-0.00025639,-0.00006138,-0.00008293,-0.00010
 755,-0.00004001,0.00009410,-0.00020718,0.00121108,0.00062683,0.0039521
 5,0.00538974,0.00462006,-0.00829980,0.00613238,0.00188769,0.00004844,0
 .00001261,0.00061461,-0.00012218,0.00110017,-0.00052499,0.00144084,0.0
 0105664,0.00020629,-0.00152851,-0.00288908,-0.00104231,0.00017679,0.00
 017988,-0.00001869,-0.00091123,0.00078477,-0.00015513,-0.00002462,0.00
 009568,0.00010023,0.04698500,-0.01548922,-0.01915767,0.00675345,0.0103
 7191,0.01055250,-0.00998148,0.00770485,-0.00254361,0.00398709,0.000735
 87,0.00250711,0.00188460,-0.00021133,0.00007668,0.00029896,-0.00024860
 ,0.00000336,-0.00001094,0.00015280,0.00001888,0.00001985,0.00003709,-0
 .00000476,-0.00004240,0.00043504,-0.00198259,-0.00011061,-0.00230571,-
 0.00382669,-0.00326172,0.01722324,-0.01288133,-0.00536509,0.00088420,-
 0.00014046,0.00025025,0.00093819,-0.00052741,-0.00070159,-0.00011737,-
 0.00337789,-0.00102309,0.00050725,0.00145668,0.00027305,-0.00019235,0.
 00010134,-0.00018066,0.00038138,-0.00022629,0.00009876,-0.00022609,-0.
 00002879,-0.00000380,-0.02058116,0.02998094,-0.00721831,-0.00093198,-0
 .01079894,0.02077630,-0.00184527,-0.00917156,-0.00653482,0.00310526,0.
 00254221,0.00081898,0.00092345,0.00205136,-0.00019452,-0.00009081,0.00
 019165,-0.00010720,0.00001057,-0.00006422,0.00013052,0.00005604,0.0000
 3525,-0.00001967,-0.00002670,-0.00002511,0.00065544,0.00003893,-0.0009
 2205,-0.00204437,-0.00266246,-0.00258682,0.00552711,-0.00457691,-0.000
 19471,0.00096732,-0.00005077,0.00025422,-0.00037801,-0.00054097,0.0005
 6788,-0.00008910,-0.00107965,0.00061696,-0.00144103,0.00017377,0.00005
 713,0.00008636,-0.00004017,-0.00007493,-0.00005716,0.00012957,0.000016
 86,-0.00044846,0.00029271,-0.00013950,-0.01042937,0.00711538,0.0176443
 1\\0.00000344,-0.00000753,0.00000010,0.00000200,-0.00000100,-0.0000012
 8,0.00001252,-0.00000520,-0.00000041,-0.00000871,0.00000221,-0.0000006
 7,-0.00000996,0.00001012,-0.00000161,-0.00000638,0.00001172,-0.0000032
 4,-0.00001034,0.00001084,-0.00000232,-0.00001528,0.00001034,-0.0000018
 7,-0.00001183,0.00000057,0.00000188,-0.00001216,0.00000064,0.00000125,
 0.00000749,-0.00000724,0.00000149,0.00000628,-0.00001167,0.00000279,0.
 00001062,-0.00001087,0.00000253,0.00001017,-0.00000456,0.00000035,0.00
 000626,0.00000326,0.00000041,0.00001282,0.00000027,-0.00000080,0.00000
 713,0.00000532,-0.00000225,0.00000665,0.00000564,-0.00000231,-0.000010
 72,-0.00001286,0.00000596\\\@


 HO!  SUCH BUGS AND GOBLINS IN MY LIFE!

                            -- HAMLET, ACT 5, SCENE 2
 Job cpu time:       0 days  0 hours 23 minutes 40.3 seconds.
 File lengths (MBytes):  RWF=     95 Int=      0 D2E=      0 Chk=      4 Scr=      1
 Normal termination of Gaussian 09 at Wed Feb 25 15:42:17 2015.
