 Entering Gaussian System, Link 0=g09
 Initial command:
 /opt/gridware/applications/gaussian/g09/l1.exe "/lustre/SCRATCH5/gau/mlawal/850368.sched01/Gau-30005.inp" -scrdir="/lustre/SCRATCH5/gau/mlawal/850368.sched01/"
 Entering Link 1 = /opt/gridware/applications/gaussian/g09/l1.exe PID=     30006.
  
 Copyright (c) 1988,1990,1992,1993,1995,1998,2003,2009,2013,
            Gaussian, Inc.  All Rights Reserved.
  
 This is part of the Gaussian(R) 09 program.  It is based on
 the Gaussian(R) 03 system (copyright 2003, Gaussian, Inc.),
 the Gaussian(R) 98 system (copyright 1998, Gaussian, Inc.),
 the Gaussian(R) 94 system (copyright 1995, Gaussian, Inc.),
 the Gaussian 92(TM) system (copyright 1992, Gaussian, Inc.),
 the Gaussian 90(TM) system (copyright 1990, Gaussian, Inc.),
 the Gaussian 88(TM) system (copyright 1988, Gaussian, Inc.),
 the Gaussian 86(TM) system (copyright 1986, Carnegie Mellon
 University), and the Gaussian 82(TM) system (copyright 1983,
 Carnegie Mellon University). Gaussian is a federally registered
 trademark of Gaussian, Inc.
  
 This software contains proprietary and confidential information,
 including trade secrets, belonging to Gaussian, Inc.
  
 This software is provided under written license and may be
 used, copied, transmitted, or stored only in accord with that
 written license.
  
 The following legend is applicable only to US Government
 contracts under FAR:
  
                    RESTRICTED RIGHTS LEGEND
  
 Use, reproduction and disclosure by the US Government is
 subject to restrictions as set forth in subparagraphs (a)
 and (c) of the Commercial Computer Software - Restricted
 Rights clause in FAR 52.227-19.
  
 Gaussian, Inc.
 340 Quinnipiac St., Bldg. 40, Wallingford CT 06492
  
  
 ---------------------------------------------------------------
 Warning -- This program may not be used in any manner that
 competes with the business of Gaussian, Inc. or will provide
 assistance to any competitor of Gaussian, Inc.  The licensee
 of this program is prohibited from giving any competitor of
 Gaussian, Inc. access to this program.  By using this program,
 the user acknowledges that Gaussian, Inc. is engaged in the
 business of creating and licensing software in the field of
 computational chemistry and represents and warrants to the
 licensee that it is not a competitor of Gaussian, Inc. and that
 it will not use this program in any manner prohibited above.
 ---------------------------------------------------------------
  

 Cite this work as:
 Gaussian 09, Revision D.01,
 M. J. Frisch, G. W. Trucks, H. B. Schlegel, G. E. Scuseria, 
 M. A. Robb, J. R. Cheeseman, G. Scalmani, V. Barone, B. Mennucci, 
 G. A. Petersson, H. Nakatsuji, M. Caricato, X. Li, H. P. Hratchian, 
 A. F. Izmaylov, J. Bloino, G. Zheng, J. L. Sonnenberg, M. Hada, 
 M. Ehara, K. Toyota, R. Fukuda, J. Hasegawa, M. Ishida, T. Nakajima, 
 Y. Honda, O. Kitao, H. Nakai, T. Vreven, J. A. Montgomery, Jr., 
 J. E. Peralta, F. Ogliaro, M. Bearpark, J. J. Heyd, E. Brothers, 
 K. N. Kudin, V. N. Staroverov, T. Keith, R. Kobayashi, J. Normand, 
 K. Raghavachari, A. Rendell, J. C. Burant, S. S. Iyengar, J. Tomasi, 
 M. Cossi, N. Rega, J. M. Millam, M. Klene, J. E. Knox, J. B. Cross, 
 V. Bakken, C. Adamo, J. Jaramillo, R. Gomperts, R. E. Stratmann, 
 O. Yazyev, A. J. Austin, R. Cammi, C. Pomelli, J. W. Ochterski, 
 R. L. Martin, K. Morokuma, V. G. Zakrzewski, G. A. Voth, 
 P. Salvador, J. J. Dannenberg, S. Dapprich, A. D. Daniels, 
 O. Farkas, J. B. Foresman, J. V. Ortiz, J. Cioslowski, 
 and D. J. Fox, Gaussian, Inc., Wallingford CT, 2013.
 
 ******************************************
 Gaussian 09:  EM64L-G09RevD.01 24-Apr-2013
                26-Mar-2015 
 ******************************************
 %nprocshared=8
 Will use up to    8 processors via shared memory.
 %nprocl=1
 Will use up to    1 processors via Linda.
 ----------------------------------------------------------------------
 # opt=(calcfc,ts,noeigentest) freq=noraman b3lyp/genecp geom=connectiv
 ity gfinput pseudo=read
 ----------------------------------------------------------------------
 1/5=1,10=4,11=1,14=-1,18=20,26=3,38=1,57=2/1,3;
 2/9=110,12=2,17=6,18=5,40=1/2;
 3/5=7,11=2,16=1,17=8,24=10,25=1,30=1,71=2,74=-5,140=1/1,2,3;
 4//1;
 5/5=2,38=5/2;
 8/6=4,10=90,11=11/1;
 11/6=1,8=1,9=11,15=111,16=1/1,2,10;
 10/6=1,13=1/2;
 6/7=2,8=2,9=2,10=2,28=1/1;
 7/10=1,18=20,25=1/1,2,3,16;
 1/5=1,10=4,11=1,14=-1,18=20,26=3/3(2);
 2/9=110/2;
 99//99;
 2/9=110/2;
 3/5=7,6=1,11=2,16=1,17=8,25=1,30=1,71=1,74=-5,82=7/1,2,3;
 4/5=5,16=3,69=1/1;
 5/5=2,38=5/2;
 7//1,2,3,16;
 1/5=1,11=1,14=-1,18=20,26=3/3(-5);
 2/9=110/2;
 6/7=2,8=2,9=2,10=2,19=2,28=1/1;
 99/9=1/99;
 -------------------------------------------------
 gen calculation ts624F-C H O=aug-ccpvtz/F=lanl2dz
 -------------------------------------------------
 Symbolic Z-matrix:
 Charge =  0 Multiplicity = 1
 C                     1.03864  -0.44423   0.15046 
 O                     0.14066  -0.92438   0.90514 
 O                     0.23413   0.69407  -0.72018 
 O                    -1.87108  -0.6155   -0.42045 
 C                    -2.86906   0.02124   0.41467 
 H                    -2.40055   0.51502   1.27139 
 H                    -3.38905   0.73373  -0.23411 
 H                    -3.55655  -0.76608   0.74698 
 H                    -0.92912   0.23641  -0.72989 
 H                    -1.18981  -1.20177   0.23529 
 C                     2.3178    0.14147   0.67281 
 H                     3.00343  -0.66652   0.98211 
 H                     2.84725   0.74589  -0.07611 
 H                     2.13892   0.75634   1.56506 
 C                     0.16568   2.00624  -0.11717 
 H                     1.15585   2.46142  -0.22981 
 H                    -0.5738    2.57023  -0.69535 
 H                    -0.11844   1.92899   0.93699 
 F                     1.22932  -1.21061  -0.95703 
 
 Add virtual bond connecting atoms H10        and O4         Dist= 2.10D+00.
 Add virtual bond connecting atoms H9         and O3         Dist= 2.36D+00.
 Add virtual bond connecting atoms H9         and O4         Dist= 2.47D+00.
 Add virtual bond connecting atoms O3         and C1         Dist= 3.11D+00.
 Add virtual bond connecting atoms H10        and O2         Dist= 2.86D+00.

 GradGradGradGradGradGradGradGradGradGradGradGradGradGradGradGradGradGrad
 Berny optimization.
 Initialization pass.
                           ----------------------------
                           !    Initial Parameters    !
                           ! (Angstroms and Degrees)  !
 --------------------------                            --------------------------
 ! Name  Definition              Value          Derivative Info.                !
 --------------------------------------------------------------------------------
 ! R1    R(1,2)                  1.2675         calculate D2E/DX2 analytically  !
 ! R2    R(1,3)                  1.6435         calculate D2E/DX2 analytically  !
 ! R3    R(1,11)                 1.5007         calculate D2E/DX2 analytically  !
 ! R4    R(1,19)                 1.3602         calculate D2E/DX2 analytically  !
 ! R5    R(2,10)                 1.5152         calculate D2E/DX2 analytically  !
 ! R6    R(3,9)                  1.2501         calculate D2E/DX2 analytically  !
 ! R7    R(3,15)                 1.4457         calculate D2E/DX2 analytically  !
 ! R8    R(4,5)                  1.4487         calculate D2E/DX2 analytically  !
 ! R9    R(4,9)                  1.3072         calculate D2E/DX2 analytically  !
 ! R10   R(4,10)                 1.1126         calculate D2E/DX2 analytically  !
 ! R11   R(5,6)                  1.0942         calculate D2E/DX2 analytically  !
 ! R12   R(5,7)                  1.095          calculate D2E/DX2 analytically  !
 ! R13   R(5,8)                  1.0968         calculate D2E/DX2 analytically  !
 ! R14   R(11,12)                1.1039         calculate D2E/DX2 analytically  !
 ! R15   R(11,13)                1.0984         calculate D2E/DX2 analytically  !
 ! R16   R(11,14)                1.0983         calculate D2E/DX2 analytically  !
 ! R17   R(15,16)                1.0956         calculate D2E/DX2 analytically  !
 ! R18   R(15,17)                1.0951         calculate D2E/DX2 analytically  !
 ! R19   R(15,18)                1.0945         calculate D2E/DX2 analytically  !
 ! A1    A(2,1,3)              103.3558         calculate D2E/DX2 analytically  !
 ! A2    A(2,1,11)             122.9901         calculate D2E/DX2 analytically  !
 ! A3    A(2,1,19)             111.7568         calculate D2E/DX2 analytically  !
 ! A4    A(3,1,11)             109.3495         calculate D2E/DX2 analytically  !
 ! A5    A(3,1,19)              91.5779         calculate D2E/DX2 analytically  !
 ! A6    A(11,1,19)            112.569          calculate D2E/DX2 analytically  !
 ! A7    A(1,2,10)             115.3559         calculate D2E/DX2 analytically  !
 ! A8    A(1,3,9)              101.8916         calculate D2E/DX2 analytically  !
 ! A9    A(1,3,15)             115.5219         calculate D2E/DX2 analytically  !
 ! A10   A(9,3,15)             106.946          calculate D2E/DX2 analytically  !
 ! A11   A(5,4,9)              110.2684         calculate D2E/DX2 analytically  !
 ! A12   A(5,4,10)             108.2803         calculate D2E/DX2 analytically  !
 ! A13   A(9,4,10)              92.3898         calculate D2E/DX2 analytically  !
 ! A14   A(4,5,6)              110.7762         calculate D2E/DX2 analytically  !
 ! A15   A(4,5,7)              105.7583         calculate D2E/DX2 analytically  !
 ! A16   A(4,5,8)              106.9153         calculate D2E/DX2 analytically  !
 ! A17   A(6,5,7)              111.9383         calculate D2E/DX2 analytically  !
 ! A18   A(6,5,8)              110.7995         calculate D2E/DX2 analytically  !
 ! A19   A(7,5,8)              110.4227         calculate D2E/DX2 analytically  !
 ! A20   A(3,9,4)              155.1338         calculate D2E/DX2 analytically  !
 ! A21   A(2,10,4)             134.5691         calculate D2E/DX2 analytically  !
 ! A22   A(1,11,12)            109.9543         calculate D2E/DX2 analytically  !
 ! A23   A(1,11,13)            112.848          calculate D2E/DX2 analytically  !
 ! A24   A(1,11,14)            111.2506         calculate D2E/DX2 analytically  !
 ! A25   A(12,11,13)           107.1229         calculate D2E/DX2 analytically  !
 ! A26   A(12,11,14)           106.4581         calculate D2E/DX2 analytically  !
 ! A27   A(13,11,14)           108.9267         calculate D2E/DX2 analytically  !
 ! A28   A(3,15,16)            106.9428         calculate D2E/DX2 analytically  !
 ! A29   A(3,15,17)            106.2125         calculate D2E/DX2 analytically  !
 ! A30   A(3,15,18)            110.4844         calculate D2E/DX2 analytically  !
 ! A31   A(16,15,17)           110.0007         calculate D2E/DX2 analytically  !
 ! A32   A(16,15,18)           111.2818         calculate D2E/DX2 analytically  !
 ! A33   A(17,15,18)           111.6898         calculate D2E/DX2 analytically  !
 ! D1    D(3,1,2,10)            43.6513         calculate D2E/DX2 analytically  !
 ! D2    D(11,1,2,10)          167.7157         calculate D2E/DX2 analytically  !
 ! D3    D(19,1,2,10)          -53.5425         calculate D2E/DX2 analytically  !
 ! D4    D(2,1,3,9)            -27.9597         calculate D2E/DX2 analytically  !
 ! D5    D(2,1,3,15)            87.5466         calculate D2E/DX2 analytically  !
 ! D6    D(11,1,3,9)          -160.5309         calculate D2E/DX2 analytically  !
 ! D7    D(11,1,3,15)          -45.0246         calculate D2E/DX2 analytically  !
 ! D8    D(19,1,3,9)            84.849          calculate D2E/DX2 analytically  !
 ! D9    D(19,1,3,15)         -159.6447         calculate D2E/DX2 analytically  !
 ! D10   D(2,1,11,12)           76.0629         calculate D2E/DX2 analytically  !
 ! D11   D(2,1,11,13)         -164.4075         calculate D2E/DX2 analytically  !
 ! D12   D(2,1,11,14)          -41.6209         calculate D2E/DX2 analytically  !
 ! D13   D(3,1,11,12)         -162.6147         calculate D2E/DX2 analytically  !
 ! D14   D(3,1,11,13)          -43.0851         calculate D2E/DX2 analytically  !
 ! D15   D(3,1,11,14)           79.7015         calculate D2E/DX2 analytically  !
 ! D16   D(19,1,11,12)         -62.3871         calculate D2E/DX2 analytically  !
 ! D17   D(19,1,11,13)          57.1425         calculate D2E/DX2 analytically  !
 ! D18   D(19,1,11,14)         179.929          calculate D2E/DX2 analytically  !
 ! D19   D(1,2,10,4)           -49.5979         calculate D2E/DX2 analytically  !
 ! D20   D(1,3,9,4)              2.7636         calculate D2E/DX2 analytically  !
 ! D21   D(15,3,9,4)          -118.8679         calculate D2E/DX2 analytically  !
 ! D22   D(1,3,15,16)           74.8403         calculate D2E/DX2 analytically  !
 ! D23   D(1,3,15,17)         -167.7123         calculate D2E/DX2 analytically  !
 ! D24   D(1,3,15,18)          -46.4143         calculate D2E/DX2 analytically  !
 ! D25   D(9,3,15,16)         -172.5666         calculate D2E/DX2 analytically  !
 ! D26   D(9,3,15,17)          -55.1191         calculate D2E/DX2 analytically  !
 ! D27   D(9,3,15,18)           66.1789         calculate D2E/DX2 analytically  !
 ! D28   D(9,4,5,6)            -51.9849         calculate D2E/DX2 analytically  !
 ! D29   D(9,4,5,7)             69.4987         calculate D2E/DX2 analytically  !
 ! D30   D(9,4,5,8)           -172.8052         calculate D2E/DX2 analytically  !
 ! D31   D(10,4,5,6)            47.7332         calculate D2E/DX2 analytically  !
 ! D32   D(10,4,5,7)           169.2168         calculate D2E/DX2 analytically  !
 ! D33   D(10,4,5,8)           -73.0871         calculate D2E/DX2 analytically  !
 ! D34   D(5,4,9,3)            114.1418         calculate D2E/DX2 analytically  !
 ! D35   D(10,4,9,3)             3.65           calculate D2E/DX2 analytically  !
 ! D36   D(5,4,10,2)           -94.1936         calculate D2E/DX2 analytically  !
 ! D37   D(9,4,10,2)            18.0741         calculate D2E/DX2 analytically  !
 --------------------------------------------------------------------------------
 Trust Radius=3.00D-01 FncErr=1.00D-07 GrdErr=1.00D-06
 Number of steps in this run=     99 maximum allowed number of steps=    114.
 Search for a saddle point of order  1.
 GradGradGradGradGradGradGradGradGradGradGradGradGradGradGradGradGradGrad

                          Input orientation:                          
 ---------------------------------------------------------------------
 Center     Atomic      Atomic             Coordinates (Angstroms)
 Number     Number       Type             X           Y           Z
 ---------------------------------------------------------------------
      1          6           0        1.038638   -0.444228    0.150458
      2          8           0        0.140657   -0.924384    0.905138
      3          8           0        0.234125    0.694069   -0.720178
      4          8           0       -1.871075   -0.615496   -0.420445
      5          6           0       -2.869059    0.021236    0.414667
      6          1           0       -2.400549    0.515022    1.271394
      7          1           0       -3.389051    0.733726   -0.234110
      8          1           0       -3.556552   -0.766079    0.746980
      9          1           0       -0.929120    0.236408   -0.729885
     10          1           0       -1.189813   -1.201772    0.235293
     11          6           0        2.317801    0.141469    0.672809
     12          1           0        3.003432   -0.666516    0.982111
     13          1           0        2.847250    0.745892   -0.076114
     14          1           0        2.138920    0.756342    1.565055
     15          6           0        0.165676    2.006238   -0.117169
     16          1           0        1.155848    2.461422   -0.229811
     17          1           0       -0.573795    2.570231   -0.695350
     18          1           0       -0.118440    1.928985    0.936989
     19          9           0        1.229320   -1.210607   -0.957029
 ---------------------------------------------------------------------
                    Distance matrix (angstroms):
                    1          2          3          4          5
     1  C    0.000000
     2  O    1.267463   0.000000
     3  O    1.643462   2.295600   0.000000
     4  O    2.970133   2.428919   2.497332   0.000000
     5  C    3.944180   3.192671   3.371992   1.448728   0.000000
     6  H    3.742281   2.943427   3.307556   2.102554   1.094215
     7  H    4.597814   4.062764   3.655850   2.039454   1.094964
     8  H    4.644911   3.703975   4.319006   2.055818   1.096788
     9  H    2.260606   2.272699   1.250075   1.307200   2.262667
    10  H    2.355221   1.515185   2.556313   1.112578   2.085136
    11  C    1.500716   2.435154   2.566610   4.394870   5.194671
    12  H    2.145105   2.875396   3.523924   5.072532   5.939793
    13  H    2.176878   3.328411   2.691826   4.922858   5.782921
    14  H    2.157098   2.693211   2.975636   4.680193   5.190725
    15  C    2.615047   3.103914   1.445715   3.333740   3.665065
    16  H    2.932771   3.712466   2.052698   4.320420   4.750762
    17  H    3.521689   3.909519   2.042874   3.450705   3.605239
    18  H    2.754923   2.865285   2.096550   3.374721   3.387954
    19  F    1.360229   2.175954   2.162013   3.202269   4.493962
                    6          7          8          9         10
     6  H    0.000000
     7  H    1.814252   0.000000
     8  H    1.803489   1.800003   0.000000
     9  H    2.499569   2.558198   3.176399   0.000000
    10  H    2.342385   2.967009   2.460306   1.751540   0.000000
    11  C    4.770815   5.808737   5.944507   3.538228   3.781411
    12  H    5.539199   6.656103   6.564952   4.383055   4.292731
    13  H    5.422958   6.238314   6.631155   3.866259   4.493133
    14  H    4.555354   5.813430   5.951925   3.866517   4.084476
    15  C    3.276789   3.777439   4.720961   2.169400   3.500415
    16  H    4.323199   4.862207   5.794618   3.089960   4.374636
    17  H    3.380680   3.392810   4.701927   2.360970   3.933647
    18  H    2.705391   3.673828   4.372652   2.510077   3.382581
    19  F    4.595608   5.062844   5.099590   2.608507   2.697020
                   11         12         13         14         15
    11  C    0.000000
    12  H    1.103901   0.000000
    13  H    1.098421   1.771759   0.000000
    14  H    1.098258   1.764010   1.787534   0.000000
    15  C    2.955177   4.050295   2.963275   2.878508   0.000000
    16  H    2.747188   3.829663   2.414023   2.663695   1.095592
    17  H    4.016475   5.107539   3.926221   3.969691   1.095079
    18  H    3.033195   4.060141   3.349836   2.620159   1.094504
    19  F    2.381023   2.683984   2.687303   3.325232   3.490673
                   16         17         18         19
    16  H    0.000000
    17  H    1.794500   0.000000
    18  H    1.807961   1.811926   0.000000
    19  F    3.744067   4.196956   3.906507   0.000000
 Stoichiometry    C4H11FO3
 Framework group  C1[X(C4H11FO3)]
 Deg. of freedom    51
 Full point group                 C1      NOp   1
 Largest Abelian subgroup         C1      NOp   1
 Largest concise Abelian subgroup C1      NOp   1
                         Standard orientation:                         
 ---------------------------------------------------------------------
 Center     Atomic      Atomic             Coordinates (Angstroms)
 Number     Number       Type             X           Y           Z
 ---------------------------------------------------------------------
      1          6           0        1.038638   -0.444228    0.150458
      2          8           0        0.140657   -0.924384    0.905138
      3          8           0        0.234125    0.694069   -0.720178
      4          8           0       -1.871075   -0.615496   -0.420445
      5          6           0       -2.869059    0.021236    0.414667
      6          1           0       -2.400549    0.515022    1.271394
      7          1           0       -3.389051    0.733726   -0.234110
      8          1           0       -3.556552   -0.766079    0.746980
      9          1           0       -0.929120    0.236408   -0.729885
     10          1           0       -1.189813   -1.201772    0.235293
     11          6           0        2.317801    0.141469    0.672809
     12          1           0        3.003432   -0.666516    0.982111
     13          1           0        2.847250    0.745892   -0.076114
     14          1           0        2.138920    0.756342    1.565055
     15          6           0        0.165676    2.006238   -0.117169
     16          1           0        1.155848    2.461422   -0.229811
     17          1           0       -0.573795    2.570231   -0.695350
     18          1           0       -0.118440    1.928985    0.936989
     19          9           0        1.229320   -1.210607   -0.957029
 ---------------------------------------------------------------------
 Rotational constants (GHZ):      2.7524908      1.3461166      1.1357869
 General basis read from cards:  (5D, 7F)
 ======================================================================================================
                                       Pseudopotential Parameters
 ======================================================================================================
  Center     Atomic      Valence      Angular      Power
  Number     Number     Electrons     Momentum     of R      Exponent        Coefficient   SO-Coeffient
 ======================================================================================================
    1          6
                                   No pseudopotential on this center.
    2          8
                                   No pseudopotential on this center.
    3          8
                                   No pseudopotential on this center.
    4          8
                                   No pseudopotential on this center.
    5          6
                                   No pseudopotential on this center.
    6          1
                                   No pseudopotential on this center.
    7          1
                                   No pseudopotential on this center.
    8          1
                                   No pseudopotential on this center.
    9          1
                                   No pseudopotential on this center.
   10          1
                                   No pseudopotential on this center.
   11          6
                                   No pseudopotential on this center.
   12          1
                                   No pseudopotential on this center.
   13          1
                                   No pseudopotential on this center.
   14          1
                                   No pseudopotential on this center.
   15          6
                                   No pseudopotential on this center.
   16          1
                                   No pseudopotential on this center.
   17          1
                                   No pseudopotential on this center.
   18          1
                                   No pseudopotential on this center.
   19          9
                                   No pseudopotential on this center.
 ======================================================================================================
 AO basis set in the form of general basis input (Overlap normalization):
      1 0
 S   7 1.00       0.000000000000
      0.8236000000D+04  0.5419783203D-03
      0.1235000000D+04  0.4192873817D-02
      0.2808000000D+03  0.2152216205D-01
      0.7927000000D+02  0.8353432195D-01
      0.2559000000D+02  0.2395828457D+00
      0.8997000000D+01  0.4428528419D+00
      0.3319000000D+01  0.3517995618D+00
 S   6 1.00       0.000000000000
      0.2808000000D+03 -0.5949224937D-04
      0.7927000000D+02 -0.1148158310D-02
      0.2559000000D+02 -0.1001913745D-01
      0.8997000000D+01 -0.6121949230D-01
      0.3319000000D+01 -0.1732698541D+00
      0.3643000000D+00  0.1072915192D+01
 S   1 1.00       0.000000000000
      0.9059000000D+00  0.1000000000D+01
 S   1 1.00       0.000000000000
      0.1285000000D+00  0.1000000000D+01
 S   1 1.00       0.000000000000
      0.4402000000D-01  0.1000000000D+01
 P   3 1.00       0.000000000000
      0.1871000000D+02  0.3942638716D-01
      0.4133000000D+01  0.2440889849D+00
      0.1200000000D+01  0.8154920089D+00
 P   1 1.00       0.000000000000
      0.3827000000D+00  0.1000000000D+01
 P   1 1.00       0.000000000000
      0.1209000000D+00  0.1000000000D+01
 P   1 1.00       0.000000000000
      0.3569000000D-01  0.1000000000D+01
 D   1 1.00       0.000000000000
      0.1097000000D+01  0.1000000000D+01
 D   1 1.00       0.000000000000
      0.3180000000D+00  0.1000000000D+01
 D   1 1.00       0.000000000000
      0.1000000000D+00  0.1000000000D+01
 F   1 1.00       0.000000000000
      0.7610000000D+00  0.1000000000D+01
 F   1 1.00       0.000000000000
      0.2680000000D+00  0.1000000000D+01
 ****
      2 0
 S   7 1.00       0.000000000000
      0.1533000000D+05  0.5198089434D-03
      0.2299000000D+04  0.4020256215D-02
      0.5224000000D+03  0.2071282673D-01
      0.1473000000D+03  0.8101055358D-01
      0.4755000000D+02  0.2359629851D+00
      0.1676000000D+02  0.4426534455D+00
      0.6207000000D+01  0.3570644227D+00
 S   6 1.00       0.000000000000
      0.5224000000D+03 -0.4421150084D-04
      0.1473000000D+03 -0.1225910413D-02
      0.4755000000D+02 -0.1055177248D-01
      0.1676000000D+02 -0.6744526326D-01
      0.6207000000D+01 -0.1711986073D+00
      0.6882000000D+00  0.1073298561D+01
 S   1 1.00       0.000000000000
      0.1752000000D+01  0.1000000000D+01
 S   1 1.00       0.000000000000
      0.2384000000D+00  0.1000000000D+01
 S   1 1.00       0.000000000000
      0.7376000000D-01  0.1000000000D+01
 P   3 1.00       0.000000000000
      0.3446000000D+02  0.4116348957D-01
      0.7749000000D+01  0.2577628359D+00
      0.2280000000D+01  0.8024192744D+00
 P   1 1.00       0.000000000000
      0.7156000000D+00  0.1000000000D+01
 P   1 1.00       0.000000000000
      0.2140000000D+00  0.1000000000D+01
 P   1 1.00       0.000000000000
      0.5974000000D-01  0.1000000000D+01
 D   1 1.00       0.000000000000
      0.2314000000D+01  0.1000000000D+01
 D   1 1.00       0.000000000000
      0.6450000000D+00  0.1000000000D+01
 D   1 1.00       0.000000000000
      0.2140000000D+00  0.1000000000D+01
 F   1 1.00       0.000000000000
      0.1428000000D+01  0.1000000000D+01
 F   1 1.00       0.000000000000
      0.5000000000D+00  0.1000000000D+01
 ****
      3 0
 S   7 1.00       0.000000000000
      0.1533000000D+05  0.5198089434D-03
      0.2299000000D+04  0.4020256215D-02
      0.5224000000D+03  0.2071282673D-01
      0.1473000000D+03  0.8101055358D-01
      0.4755000000D+02  0.2359629851D+00
      0.1676000000D+02  0.4426534455D+00
      0.6207000000D+01  0.3570644227D+00
 S   6 1.00       0.000000000000
      0.5224000000D+03 -0.4421150084D-04
      0.1473000000D+03 -0.1225910413D-02
      0.4755000000D+02 -0.1055177248D-01
      0.1676000000D+02 -0.6744526326D-01
      0.6207000000D+01 -0.1711986073D+00
      0.6882000000D+00  0.1073298561D+01
 S   1 1.00       0.000000000000
      0.1752000000D+01  0.1000000000D+01
 S   1 1.00       0.000000000000
      0.2384000000D+00  0.1000000000D+01
 S   1 1.00       0.000000000000
      0.7376000000D-01  0.1000000000D+01
 P   3 1.00       0.000000000000
      0.3446000000D+02  0.4116348957D-01
      0.7749000000D+01  0.2577628359D+00
      0.2280000000D+01  0.8024192744D+00
 P   1 1.00       0.000000000000
      0.7156000000D+00  0.1000000000D+01
 P   1 1.00       0.000000000000
      0.2140000000D+00  0.1000000000D+01
 P   1 1.00       0.000000000000
      0.5974000000D-01  0.1000000000D+01
 D   1 1.00       0.000000000000
      0.2314000000D+01  0.1000000000D+01
 D   1 1.00       0.000000000000
      0.6450000000D+00  0.1000000000D+01
 D   1 1.00       0.000000000000
      0.2140000000D+00  0.1000000000D+01
 F   1 1.00       0.000000000000
      0.1428000000D+01  0.1000000000D+01
 F   1 1.00       0.000000000000
      0.5000000000D+00  0.1000000000D+01
 ****
      4 0
 S   7 1.00       0.000000000000
      0.1533000000D+05  0.5198089434D-03
      0.2299000000D+04  0.4020256215D-02
      0.5224000000D+03  0.2071282673D-01
      0.1473000000D+03  0.8101055358D-01
      0.4755000000D+02  0.2359629851D+00
      0.1676000000D+02  0.4426534455D+00
      0.6207000000D+01  0.3570644227D+00
 S   6 1.00       0.000000000000
      0.5224000000D+03 -0.4421150084D-04
      0.1473000000D+03 -0.1225910413D-02
      0.4755000000D+02 -0.1055177248D-01
      0.1676000000D+02 -0.6744526326D-01
      0.6207000000D+01 -0.1711986073D+00
      0.6882000000D+00  0.1073298561D+01
 S   1 1.00       0.000000000000
      0.1752000000D+01  0.1000000000D+01
 S   1 1.00       0.000000000000
      0.2384000000D+00  0.1000000000D+01
 S   1 1.00       0.000000000000
      0.7376000000D-01  0.1000000000D+01
 P   3 1.00       0.000000000000
      0.3446000000D+02  0.4116348957D-01
      0.7749000000D+01  0.2577628359D+00
      0.2280000000D+01  0.8024192744D+00
 P   1 1.00       0.000000000000
      0.7156000000D+00  0.1000000000D+01
 P   1 1.00       0.000000000000
      0.2140000000D+00  0.1000000000D+01
 P   1 1.00       0.000000000000
      0.5974000000D-01  0.1000000000D+01
 D   1 1.00       0.000000000000
      0.2314000000D+01  0.1000000000D+01
 D   1 1.00       0.000000000000
      0.6450000000D+00  0.1000000000D+01
 D   1 1.00       0.000000000000
      0.2140000000D+00  0.1000000000D+01
 F   1 1.00       0.000000000000
      0.1428000000D+01  0.1000000000D+01
 F   1 1.00       0.000000000000
      0.5000000000D+00  0.1000000000D+01
 ****
      5 0
 S   7 1.00       0.000000000000
      0.8236000000D+04  0.5419783203D-03
      0.1235000000D+04  0.4192873817D-02
      0.2808000000D+03  0.2152216205D-01
      0.7927000000D+02  0.8353432195D-01
      0.2559000000D+02  0.2395828457D+00
      0.8997000000D+01  0.4428528419D+00
      0.3319000000D+01  0.3517995618D+00
 S   6 1.00       0.000000000000
      0.2808000000D+03 -0.5949224937D-04
      0.7927000000D+02 -0.1148158310D-02
      0.2559000000D+02 -0.1001913745D-01
      0.8997000000D+01 -0.6121949230D-01
      0.3319000000D+01 -0.1732698541D+00
      0.3643000000D+00  0.1072915192D+01
 S   1 1.00       0.000000000000
      0.9059000000D+00  0.1000000000D+01
 S   1 1.00       0.000000000000
      0.1285000000D+00  0.1000000000D+01
 S   1 1.00       0.000000000000
      0.4402000000D-01  0.1000000000D+01
 P   3 1.00       0.000000000000
      0.1871000000D+02  0.3942638716D-01
      0.4133000000D+01  0.2440889849D+00
      0.1200000000D+01  0.8154920089D+00
 P   1 1.00       0.000000000000
      0.3827000000D+00  0.1000000000D+01
 P   1 1.00       0.000000000000
      0.1209000000D+00  0.1000000000D+01
 P   1 1.00       0.000000000000
      0.3569000000D-01  0.1000000000D+01
 D   1 1.00       0.000000000000
      0.1097000000D+01  0.1000000000D+01
 D   1 1.00       0.000000000000
      0.3180000000D+00  0.1000000000D+01
 D   1 1.00       0.000000000000
      0.1000000000D+00  0.1000000000D+01
 F   1 1.00       0.000000000000
      0.7610000000D+00  0.1000000000D+01
 F   1 1.00       0.000000000000
      0.2680000000D+00  0.1000000000D+01
 ****
      6 0
 S   3 1.00       0.000000000000
      0.3387000000D+02  0.2549486323D-01
      0.5095000000D+01  0.1903627659D+00
      0.1159000000D+01  0.8521620222D+00
 S   1 1.00       0.000000000000
      0.3258000000D+00  0.1000000000D+01
 S   1 1.00       0.000000000000
      0.1027000000D+00  0.1000000000D+01
 S   1 1.00       0.000000000000
      0.2526000000D-01  0.1000000000D+01
 P   1 1.00       0.000000000000
      0.1407000000D+01  0.1000000000D+01
 P   1 1.00       0.000000000000
      0.3880000000D+00  0.1000000000D+01
 P   1 1.00       0.000000000000
      0.1020000000D+00  0.1000000000D+01
 D   1 1.00       0.000000000000
      0.1057000000D+01  0.1000000000D+01
 D   1 1.00       0.000000000000
      0.2470000000D+00  0.1000000000D+01
 ****
      7 0
 S   3 1.00       0.000000000000
      0.3387000000D+02  0.2549486323D-01
      0.5095000000D+01  0.1903627659D+00
      0.1159000000D+01  0.8521620222D+00
 S   1 1.00       0.000000000000
      0.3258000000D+00  0.1000000000D+01
 S   1 1.00       0.000000000000
      0.1027000000D+00  0.1000000000D+01
 S   1 1.00       0.000000000000
      0.2526000000D-01  0.1000000000D+01
 P   1 1.00       0.000000000000
      0.1407000000D+01  0.1000000000D+01
 P   1 1.00       0.000000000000
      0.3880000000D+00  0.1000000000D+01
 P   1 1.00       0.000000000000
      0.1020000000D+00  0.1000000000D+01
 D   1 1.00       0.000000000000
      0.1057000000D+01  0.1000000000D+01
 D   1 1.00       0.000000000000
      0.2470000000D+00  0.1000000000D+01
 ****
      8 0
 S   3 1.00       0.000000000000
      0.3387000000D+02  0.2549486323D-01
      0.5095000000D+01  0.1903627659D+00
      0.1159000000D+01  0.8521620222D+00
 S   1 1.00       0.000000000000
      0.3258000000D+00  0.1000000000D+01
 S   1 1.00       0.000000000000
      0.1027000000D+00  0.1000000000D+01
 S   1 1.00       0.000000000000
      0.2526000000D-01  0.1000000000D+01
 P   1 1.00       0.000000000000
      0.1407000000D+01  0.1000000000D+01
 P   1 1.00       0.000000000000
      0.3880000000D+00  0.1000000000D+01
 P   1 1.00       0.000000000000
      0.1020000000D+00  0.1000000000D+01
 D   1 1.00       0.000000000000
      0.1057000000D+01  0.1000000000D+01
 D   1 1.00       0.000000000000
      0.2470000000D+00  0.1000000000D+01
 ****
      9 0
 S   3 1.00       0.000000000000
      0.3387000000D+02  0.2549486323D-01
      0.5095000000D+01  0.1903627659D+00
      0.1159000000D+01  0.8521620222D+00
 S   1 1.00       0.000000000000
      0.3258000000D+00  0.1000000000D+01
 S   1 1.00       0.000000000000
      0.1027000000D+00  0.1000000000D+01
 S   1 1.00       0.000000000000
      0.2526000000D-01  0.1000000000D+01
 P   1 1.00       0.000000000000
      0.1407000000D+01  0.1000000000D+01
 P   1 1.00       0.000000000000
      0.3880000000D+00  0.1000000000D+01
 P   1 1.00       0.000000000000
      0.1020000000D+00  0.1000000000D+01
 D   1 1.00       0.000000000000
      0.1057000000D+01  0.1000000000D+01
 D   1 1.00       0.000000000000
      0.2470000000D+00  0.1000000000D+01
 ****
     10 0
 S   3 1.00       0.000000000000
      0.3387000000D+02  0.2549486323D-01
      0.5095000000D+01  0.1903627659D+00
      0.1159000000D+01  0.8521620222D+00
 S   1 1.00       0.000000000000
      0.3258000000D+00  0.1000000000D+01
 S   1 1.00       0.000000000000
      0.1027000000D+00  0.1000000000D+01
 S   1 1.00       0.000000000000
      0.2526000000D-01  0.1000000000D+01
 P   1 1.00       0.000000000000
      0.1407000000D+01  0.1000000000D+01
 P   1 1.00       0.000000000000
      0.3880000000D+00  0.1000000000D+01
 P   1 1.00       0.000000000000
      0.1020000000D+00  0.1000000000D+01
 D   1 1.00       0.000000000000
      0.1057000000D+01  0.1000000000D+01
 D   1 1.00       0.000000000000
      0.2470000000D+00  0.1000000000D+01
 ****
     11 0
 S   7 1.00       0.000000000000
      0.8236000000D+04  0.5419783203D-03
      0.1235000000D+04  0.4192873817D-02
      0.2808000000D+03  0.2152216205D-01
      0.7927000000D+02  0.8353432195D-01
      0.2559000000D+02  0.2395828457D+00
      0.8997000000D+01  0.4428528419D+00
      0.3319000000D+01  0.3517995618D+00
 S   6 1.00       0.000000000000
      0.2808000000D+03 -0.5949224937D-04
      0.7927000000D+02 -0.1148158310D-02
      0.2559000000D+02 -0.1001913745D-01
      0.8997000000D+01 -0.6121949230D-01
      0.3319000000D+01 -0.1732698541D+00
      0.3643000000D+00  0.1072915192D+01
 S   1 1.00       0.000000000000
      0.9059000000D+00  0.1000000000D+01
 S   1 1.00       0.000000000000
      0.1285000000D+00  0.1000000000D+01
 S   1 1.00       0.000000000000
      0.4402000000D-01  0.1000000000D+01
 P   3 1.00       0.000000000000
      0.1871000000D+02  0.3942638716D-01
      0.4133000000D+01  0.2440889849D+00
      0.1200000000D+01  0.8154920089D+00
 P   1 1.00       0.000000000000
      0.3827000000D+00  0.1000000000D+01
 P   1 1.00       0.000000000000
      0.1209000000D+00  0.1000000000D+01
 P   1 1.00       0.000000000000
      0.3569000000D-01  0.1000000000D+01
 D   1 1.00       0.000000000000
      0.1097000000D+01  0.1000000000D+01
 D   1 1.00       0.000000000000
      0.3180000000D+00  0.1000000000D+01
 D   1 1.00       0.000000000000
      0.1000000000D+00  0.1000000000D+01
 F   1 1.00       0.000000000000
      0.7610000000D+00  0.1000000000D+01
 F   1 1.00       0.000000000000
      0.2680000000D+00  0.1000000000D+01
 ****
     12 0
 S   3 1.00       0.000000000000
      0.3387000000D+02  0.2549486323D-01
      0.5095000000D+01  0.1903627659D+00
      0.1159000000D+01  0.8521620222D+00
 S   1 1.00       0.000000000000
      0.3258000000D+00  0.1000000000D+01
 S   1 1.00       0.000000000000
      0.1027000000D+00  0.1000000000D+01
 S   1 1.00       0.000000000000
      0.2526000000D-01  0.1000000000D+01
 P   1 1.00       0.000000000000
      0.1407000000D+01  0.1000000000D+01
 P   1 1.00       0.000000000000
      0.3880000000D+00  0.1000000000D+01
 P   1 1.00       0.000000000000
      0.1020000000D+00  0.1000000000D+01
 D   1 1.00       0.000000000000
      0.1057000000D+01  0.1000000000D+01
 D   1 1.00       0.000000000000
      0.2470000000D+00  0.1000000000D+01
 ****
     13 0
 S   3 1.00       0.000000000000
      0.3387000000D+02  0.2549486323D-01
      0.5095000000D+01  0.1903627659D+00
      0.1159000000D+01  0.8521620222D+00
 S   1 1.00       0.000000000000
      0.3258000000D+00  0.1000000000D+01
 S   1 1.00       0.000000000000
      0.1027000000D+00  0.1000000000D+01
 S   1 1.00       0.000000000000
      0.2526000000D-01  0.1000000000D+01
 P   1 1.00       0.000000000000
      0.1407000000D+01  0.1000000000D+01
 P   1 1.00       0.000000000000
      0.3880000000D+00  0.1000000000D+01
 P   1 1.00       0.000000000000
      0.1020000000D+00  0.1000000000D+01
 D   1 1.00       0.000000000000
      0.1057000000D+01  0.1000000000D+01
 D   1 1.00       0.000000000000
      0.2470000000D+00  0.1000000000D+01
 ****
     14 0
 S   3 1.00       0.000000000000
      0.3387000000D+02  0.2549486323D-01
      0.5095000000D+01  0.1903627659D+00
      0.1159000000D+01  0.8521620222D+00
 S   1 1.00       0.000000000000
      0.3258000000D+00  0.1000000000D+01
 S   1 1.00       0.000000000000
      0.1027000000D+00  0.1000000000D+01
 S   1 1.00       0.000000000000
      0.2526000000D-01  0.1000000000D+01
 P   1 1.00       0.000000000000
      0.1407000000D+01  0.1000000000D+01
 P   1 1.00       0.000000000000
      0.3880000000D+00  0.1000000000D+01
 P   1 1.00       0.000000000000
      0.1020000000D+00  0.1000000000D+01
 D   1 1.00       0.000000000000
      0.1057000000D+01  0.1000000000D+01
 D   1 1.00       0.000000000000
      0.2470000000D+00  0.1000000000D+01
 ****
     15 0
 S   7 1.00       0.000000000000
      0.8236000000D+04  0.5419783203D-03
      0.1235000000D+04  0.4192873817D-02
      0.2808000000D+03  0.2152216205D-01
      0.7927000000D+02  0.8353432195D-01
      0.2559000000D+02  0.2395828457D+00
      0.8997000000D+01  0.4428528419D+00
      0.3319000000D+01  0.3517995618D+00
 S   6 1.00       0.000000000000
      0.2808000000D+03 -0.5949224937D-04
      0.7927000000D+02 -0.1148158310D-02
      0.2559000000D+02 -0.1001913745D-01
      0.8997000000D+01 -0.6121949230D-01
      0.3319000000D+01 -0.1732698541D+00
      0.3643000000D+00  0.1072915192D+01
 S   1 1.00       0.000000000000
      0.9059000000D+00  0.1000000000D+01
 S   1 1.00       0.000000000000
      0.1285000000D+00  0.1000000000D+01
 S   1 1.00       0.000000000000
      0.4402000000D-01  0.1000000000D+01
 P   3 1.00       0.000000000000
      0.1871000000D+02  0.3942638716D-01
      0.4133000000D+01  0.2440889849D+00
      0.1200000000D+01  0.8154920089D+00
 P   1 1.00       0.000000000000
      0.3827000000D+00  0.1000000000D+01
 P   1 1.00       0.000000000000
      0.1209000000D+00  0.1000000000D+01
 P   1 1.00       0.000000000000
      0.3569000000D-01  0.1000000000D+01
 D   1 1.00       0.000000000000
      0.1097000000D+01  0.1000000000D+01
 D   1 1.00       0.000000000000
      0.3180000000D+00  0.1000000000D+01
 D   1 1.00       0.000000000000
      0.1000000000D+00  0.1000000000D+01
 F   1 1.00       0.000000000000
      0.7610000000D+00  0.1000000000D+01
 F   1 1.00       0.000000000000
      0.2680000000D+00  0.1000000000D+01
 ****
     16 0
 S   3 1.00       0.000000000000
      0.3387000000D+02  0.2549486323D-01
      0.5095000000D+01  0.1903627659D+00
      0.1159000000D+01  0.8521620222D+00
 S   1 1.00       0.000000000000
      0.3258000000D+00  0.1000000000D+01
 S   1 1.00       0.000000000000
      0.1027000000D+00  0.1000000000D+01
 S   1 1.00       0.000000000000
      0.2526000000D-01  0.1000000000D+01
 P   1 1.00       0.000000000000
      0.1407000000D+01  0.1000000000D+01
 P   1 1.00       0.000000000000
      0.3880000000D+00  0.1000000000D+01
 P   1 1.00       0.000000000000
      0.1020000000D+00  0.1000000000D+01
 D   1 1.00       0.000000000000
      0.1057000000D+01  0.1000000000D+01
 D   1 1.00       0.000000000000
      0.2470000000D+00  0.1000000000D+01
 ****
     17 0
 S   3 1.00       0.000000000000
      0.3387000000D+02  0.2549486323D-01
      0.5095000000D+01  0.1903627659D+00
      0.1159000000D+01  0.8521620222D+00
 S   1 1.00       0.000000000000
      0.3258000000D+00  0.1000000000D+01
 S   1 1.00       0.000000000000
      0.1027000000D+00  0.1000000000D+01
 S   1 1.00       0.000000000000
      0.2526000000D-01  0.1000000000D+01
 P   1 1.00       0.000000000000
      0.1407000000D+01  0.1000000000D+01
 P   1 1.00       0.000000000000
      0.3880000000D+00  0.1000000000D+01
 P   1 1.00       0.000000000000
      0.1020000000D+00  0.1000000000D+01
 D   1 1.00       0.000000000000
      0.1057000000D+01  0.1000000000D+01
 D   1 1.00       0.000000000000
      0.2470000000D+00  0.1000000000D+01
 ****
     18 0
 S   3 1.00       0.000000000000
      0.3387000000D+02  0.2549486323D-01
      0.5095000000D+01  0.1903627659D+00
      0.1159000000D+01  0.8521620222D+00
 S   1 1.00       0.000000000000
      0.3258000000D+00  0.1000000000D+01
 S   1 1.00       0.000000000000
      0.1027000000D+00  0.1000000000D+01
 S   1 1.00       0.000000000000
      0.2526000000D-01  0.1000000000D+01
 P   1 1.00       0.000000000000
      0.1407000000D+01  0.1000000000D+01
 P   1 1.00       0.000000000000
      0.3880000000D+00  0.1000000000D+01
 P   1 1.00       0.000000000000
      0.1020000000D+00  0.1000000000D+01
 D   1 1.00       0.000000000000
      0.1057000000D+01  0.1000000000D+01
 D   1 1.00       0.000000000000
      0.2470000000D+00  0.1000000000D+01
 ****
     19 0
 S   7 1.00       0.000000000000
      0.9995000000D+04  0.1165998577D-02
      0.1506000000D+04  0.8875989168D-02
      0.3503000000D+03  0.4237994828D-01
      0.1041000000D+03  0.1429288256D+00
      0.3484000000D+02  0.3553715663D+00
      0.1222000000D+02  0.4620844361D+00
      0.4369000000D+01  0.1408478281D+00
 S   2 1.00       0.000000000000
      0.1222000000D+02 -0.1484519214D+00
      0.1208000000D+01  0.1055269442D+01
 S   1 1.00       0.000000000000
      0.3634000000D+00  0.1000000000D+01
 P   4 1.00       0.000000000000
      0.4436000000D+02  0.2087600240D-01
      0.1008000000D+02  0.1301070149D+00
      0.2996000000D+01  0.3961660455D+00
      0.9383000000D+00  0.6204040713D+00
 P   1 1.00       0.000000000000
      0.2733000000D+00  0.1000000000D+01
 ****

 There are   669 symmetry adapted cartesian basis functions of A   symmetry.
 There are   584 symmetry adapted basis functions of A   symmetry.
   584 basis functions,   826 primitive gaussians,   669 cartesian basis functions
    34 alpha electrons       34 beta electrons
       nuclear repulsion energy       452.3329082244 Hartrees.
 NAtoms=   19 NActive=   19 NUniq=   19 SFac= 1.00D+00 NAtFMM=   60 NAOKFM=F Big=F
 Integral buffers will be    131072 words long.
 Raffenetti 2 integral format.
 Two-electron integral symmetry is turned on.
 One-electron integrals computed using PRISM.
 PrsmSu:  requested number of processors reduced to:   3 ShMem   1 Linda.
   1 Symmetry operations used in ECPInt.
 ECPInt:  NShTT=   20503 NPrTT=   53309 LenC2=   20274 LenP2D=   44094.
 LDataN:  DoStor=T MaxTD1= 6 Len=  172
 Number of processors reduced to   7 by ecpmxn.
 NBasis=   584 RedAO= T EigKep=  8.42D-06  NBF=   584
 NBsUse=   584 1.00D-06 EigRej= -1.00D+00 NBFU=   584
 ExpMin= 2.53D-02 ExpMax= 1.53D+04 ExpMxC= 5.22D+02 IAcc=3 IRadAn=         5 AccDes= 0.00D+00
 Harris functional with IExCor=  402 and IRadAn=       5 diagonalized for initial guess.
 HarFok:  IExCor=  402 AccDes= 0.00D+00 IRadAn=         5 IDoV= 1 UseB2=F ITyADJ=14
 ICtDFT=  3500011 ScaDFX=  1.000000  1.000000  1.000000  1.000000
 FoFCou: FMM=F IPFlag=           0 FMFlag=      100000 FMFlg1=           0
         NFxFlg=           0 DoJE=T BraDBF=F KetDBF=T FulRan=T
         wScrn=  0.000000 ICntrl=     500 IOpCl=  0 I1Cent=   200000004 NGrid=           0
         NMat0=    1 NMatS0=      1 NMatT0=    0 NMatD0=    1 NMtDS0=    0 NMtDT0=    0
 Petite list used in FoFCou.
 Requested convergence on RMS density matrix=1.00D-08 within 128 cycles.
 Requested convergence on MAX density matrix=1.00D-06.
 Requested convergence on             energy=1.00D-06.
 No special actions if energy rises.
 SCF Done:  E(RB3LYP) =  -484.694037838     A.U. after   13 cycles
            NFock= 13  Conv=0.35D-08     -V/T= 2.0063
 DoSCS=F DFT=T ScalE2(SS,OS)=  1.000000  1.000000
 Range of M.O.s used for correlation:     1   584
 NBasis=   584 NAE=    34 NBE=    34 NFC=     0 NFV=     0
 NROrb=    584 NOA=    34 NOB=    34 NVA=   550 NVB=   550

 **** Warning!!: The largest alpha MO coefficient is  0.47823247D+02

 PrsmSu:  requested number of processors reduced to:   3 ShMem   1 Linda.
 PrsmSu:  requested number of processors reduced to:   1 ShMem   1 Linda.
   1 Symmetry operations used in ECPInt.
 ECPInt:  NShTT=   20503 NPrTT=   53309 LenC2=   20274 LenP2D=   44094.
 LDataN:  DoStor=T MaxTD1= 7 Len=  274
 Number of processors reduced to   1 by ecpmxn.
 Symmetrizing basis deriv contribution to polar:
 IMax=3 JMax=2 DiffMx= 0.00D+00
 G2DrvN: will do     1 centers at a time, making   20 passes.
 Estimated number of processors is:    6
 Calling FoFCou, ICntrl=  3107 FMM=F I1Cent=   0 AccDes= 0.00D+00.
 CoulSu:  requested number of processors reduced to:   7 ShMem   1 Linda.
 Calling FoFCou, ICntrl=  3107 FMM=F I1Cent=   0 AccDes= 0.00D+00.
 CoulSu:  requested number of processors reduced to:   6 ShMem   1 Linda.
 Calling FoFCou, ICntrl=  3107 FMM=F I1Cent=   0 AccDes= 0.00D+00.
 CoulSu:  requested number of processors reduced to:   6 ShMem   1 Linda.
 Calling FoFCou, ICntrl=  3107 FMM=F I1Cent=   0 AccDes= 0.00D+00.
 CoulSu:  requested number of processors reduced to:   6 ShMem   1 Linda.
 Calling FoFCou, ICntrl=  3107 FMM=F I1Cent=   0 AccDes= 0.00D+00.
 CoulSu:  requested number of processors reduced to:   6 ShMem   1 Linda.
 Calling FoFCou, ICntrl=  3107 FMM=F I1Cent=   0 AccDes= 0.00D+00.
 CoulSu:  requested number of processors reduced to:   6 ShMem   1 Linda.
 Calling FoFCou, ICntrl=  3107 FMM=F I1Cent=   0 AccDes= 0.00D+00.
 CoulSu:  requested number of processors reduced to:   6 ShMem   1 Linda.
 Calling FoFCou, ICntrl=  3107 FMM=F I1Cent=   0 AccDes= 0.00D+00.
 CoulSu:  requested number of processors reduced to:   6 ShMem   1 Linda.
 Calling FoFCou, ICntrl=  3107 FMM=F I1Cent=   0 AccDes= 0.00D+00.
 CoulSu:  requested number of processors reduced to:   6 ShMem   1 Linda.
 Calling FoFCou, ICntrl=  3107 FMM=F I1Cent=   0 AccDes= 0.00D+00.
 CoulSu:  requested number of processors reduced to:   6 ShMem   1 Linda.
 Calling FoFCou, ICntrl=  3107 FMM=F I1Cent=   0 AccDes= 0.00D+00.
 CoulSu:  requested number of processors reduced to:   6 ShMem   1 Linda.
 Calling FoFCou, ICntrl=  3107 FMM=F I1Cent=   0 AccDes= 0.00D+00.
 CoulSu:  requested number of processors reduced to:   6 ShMem   1 Linda.
 Calling FoFCou, ICntrl=  3107 FMM=F I1Cent=   0 AccDes= 0.00D+00.
 CoulSu:  requested number of processors reduced to:   6 ShMem   1 Linda.
 Calling FoFCou, ICntrl=  3107 FMM=F I1Cent=   0 AccDes= 0.00D+00.
 CoulSu:  requested number of processors reduced to:   6 ShMem   1 Linda.
 Calling FoFCou, ICntrl=  3107 FMM=F I1Cent=   0 AccDes= 0.00D+00.
 CoulSu:  requested number of processors reduced to:   6 ShMem   1 Linda.
 Calling FoFCou, ICntrl=  3107 FMM=F I1Cent=   0 AccDes= 0.00D+00.
 CoulSu:  requested number of processors reduced to:   6 ShMem   1 Linda.
 Calling FoFCou, ICntrl=  3107 FMM=F I1Cent=   0 AccDes= 0.00D+00.
 CoulSu:  requested number of processors reduced to:   6 ShMem   1 Linda.
 Calling FoFCou, ICntrl=  3107 FMM=F I1Cent=   0 AccDes= 0.00D+00.
 CoulSu:  requested number of processors reduced to:   6 ShMem   1 Linda.
 Calling FoFCou, ICntrl=  3107 FMM=F I1Cent=   0 AccDes= 0.00D+00.
 CoulSu:  requested number of processors reduced to:   6 ShMem   1 Linda.
 Calling FoFCou, ICntrl=  3107 FMM=F I1Cent=   0 AccDes= 0.00D+00.
 CoulSu:  requested number of processors reduced to:   6 ShMem   1 Linda.
 End of G2Drv F.D. properties file   721 does not exist.
 End of G2Drv F.D. properties file   722 does not exist.
 End of G2Drv F.D. properties file   788 does not exist.
          IDoAtm=1111111111111111111
          Differentiating once with respect to nuclear coordinates.
 CoulSu:  requested number of processors reduced to:   7 ShMem   1 Linda.
 PrRfSu:  requested number of processors reduced to:   4 ShMem   1 Linda.
 CoulSu:  requested number of processors reduced to:   7 ShMem   1 Linda.
 PrRfSu:  requested number of processors reduced to:   4 ShMem   1 Linda.
 CoulSu:  requested number of processors reduced to:   7 ShMem   1 Linda.
 PrRfSu:  requested number of processors reduced to:   4 ShMem   1 Linda.
 CoulSu:  requested number of processors reduced to:   7 ShMem   1 Linda.
 PrRfSu:  requested number of processors reduced to:   4 ShMem   1 Linda.
 CoulSu:  requested number of processors reduced to:   7 ShMem   1 Linda.
 PrRfSu:  requested number of processors reduced to:   4 ShMem   1 Linda.
 CoulSu:  requested number of processors reduced to:   7 ShMem   1 Linda.
 PrRfSu:  requested number of processors reduced to:   4 ShMem   1 Linda.
 CoulSu:  requested number of processors reduced to:   7 ShMem   1 Linda.
 PrRfSu:  requested number of processors reduced to:   4 ShMem   1 Linda.
 CoulSu:  requested number of processors reduced to:   7 ShMem   1 Linda.
 PrRfSu:  requested number of processors reduced to:   4 ShMem   1 Linda.
          There are    60 degrees of freedom in the 1st order CPHF.  IDoFFX=6 NUNeed=     0.
     57 vectors produced by pass  0 Test12= 3.12D-14 1.67D-09 XBig12= 2.24D-01 5.69D-02.
 AX will form     7 AO Fock derivatives at one time.
 CoulSu:  requested number of processors reduced to:   7 ShMem   1 Linda.
 PrRfSu:  requested number of processors reduced to:   4 ShMem   1 Linda.
 CoulSu:  requested number of processors reduced to:   7 ShMem   1 Linda.
 PrRfSu:  requested number of processors reduced to:   4 ShMem   1 Linda.
 CoulSu:  requested number of processors reduced to:   7 ShMem   1 Linda.
 PrRfSu:  requested number of processors reduced to:   4 ShMem   1 Linda.
 CoulSu:  requested number of processors reduced to:   7 ShMem   1 Linda.
 PrRfSu:  requested number of processors reduced to:   4 ShMem   1 Linda.
 CoulSu:  requested number of processors reduced to:   7 ShMem   1 Linda.
 PrRfSu:  requested number of processors reduced to:   4 ShMem   1 Linda.
 CoulSu:  requested number of processors reduced to:   7 ShMem   1 Linda.
 PrRfSu:  requested number of processors reduced to:   4 ShMem   1 Linda.
 CoulSu:  requested number of processors reduced to:   7 ShMem   1 Linda.
 PrRfSu:  requested number of processors reduced to:   4 ShMem   1 Linda.
 CoulSu:  requested number of processors reduced to:   7 ShMem   1 Linda.
 PrRfSu:  requested number of processors reduced to:   4 ShMem   1 Linda.
     54 vectors produced by pass  1 Test12= 3.12D-14 1.67D-09 XBig12= 5.36D-02 3.64D-02.
 CoulSu:  requested number of processors reduced to:   7 ShMem   1 Linda.
 PrRfSu:  requested number of processors reduced to:   4 ShMem   1 Linda.
 CoulSu:  requested number of processors reduced to:   7 ShMem   1 Linda.
 PrRfSu:  requested number of processors reduced to:   4 ShMem   1 Linda.
 CoulSu:  requested number of processors reduced to:   7 ShMem   1 Linda.
 PrRfSu:  requested number of processors reduced to:   4 ShMem   1 Linda.
 CoulSu:  requested number of processors reduced to:   7 ShMem   1 Linda.
 PrRfSu:  requested number of processors reduced to:   4 ShMem   1 Linda.
 CoulSu:  requested number of processors reduced to:   7 ShMem   1 Linda.
 PrRfSu:  requested number of processors reduced to:   4 ShMem   1 Linda.
 CoulSu:  requested number of processors reduced to:   7 ShMem   1 Linda.
 PrRfSu:  requested number of processors reduced to:   4 ShMem   1 Linda.
 CoulSu:  requested number of processors reduced to:   7 ShMem   1 Linda.
 PrRfSu:  requested number of processors reduced to:   4 ShMem   1 Linda.
     54 vectors produced by pass  2 Test12= 3.12D-14 1.67D-09 XBig12= 8.77D-04 2.59D-03.
 CoulSu:  requested number of processors reduced to:   7 ShMem   1 Linda.
 PrRfSu:  requested number of processors reduced to:   4 ShMem   1 Linda.
 CoulSu:  requested number of processors reduced to:   7 ShMem   1 Linda.
 PrRfSu:  requested number of processors reduced to:   4 ShMem   1 Linda.
 PrRfSu:  requested number of processors reduced to:   4 ShMem   1 Linda.
 CoulSu:  requested number of processors reduced to:   7 ShMem   1 Linda.
 PrRfSu:  requested number of processors reduced to:   4 ShMem   1 Linda.
 CoulSu:  requested number of processors reduced to:   7 ShMem   1 Linda.
 PrRfSu:  requested number of processors reduced to:   4 ShMem   1 Linda.
 PrRfSu:  requested number of processors reduced to:   4 ShMem   1 Linda.
 CoulSu:  requested number of processors reduced to:   7 ShMem   1 Linda.
 PrRfSu:  requested number of processors reduced to:   4 ShMem   1 Linda.
     54 vectors produced by pass  3 Test12= 3.12D-14 1.67D-09 XBig12= 4.16D-06 2.57D-04.
 CoulSu:  requested number of processors reduced to:   7 ShMem   1 Linda.
 PrRfSu:  requested number of processors reduced to:   4 ShMem   1 Linda.
 PrRfSu:  requested number of processors reduced to:   4 ShMem   1 Linda.
 PrRfSu:  requested number of processors reduced to:   4 ShMem   1 Linda.
 PrRfSu:  requested number of processors reduced to:   4 ShMem   1 Linda.
 PrRfSu:  requested number of processors reduced to:   4 ShMem   1 Linda.
 PrRfSu:  requested number of processors reduced to:   4 ShMem   1 Linda.
 PrRfSu:  requested number of processors reduced to:   4 ShMem   1 Linda.
     54 vectors produced by pass  4 Test12= 3.12D-14 1.67D-09 XBig12= 1.11D-08 1.13D-05.
 PrRfSu:  requested number of processors reduced to:   4 ShMem   1 Linda.
 PrRfSu:  requested number of processors reduced to:   4 ShMem   1 Linda.
 PrRfSu:  requested number of processors reduced to:   4 ShMem   1 Linda.
 PrRfSu:  requested number of processors reduced to:   4 ShMem   1 Linda.
 PrRfSu:  requested number of processors reduced to:   4 ShMem   1 Linda.
 PrRfSu:  requested number of processors reduced to:   4 ShMem   1 Linda.
 PrRfSu:  requested number of processors reduced to:   4 ShMem   1 Linda.
     54 vectors produced by pass  5 Test12= 3.12D-14 1.67D-09 XBig12= 1.98D-11 3.10D-07.
 PrRfSu:  requested number of processors reduced to:   4 ShMem   1 Linda.
 PrRfSu:  requested number of processors reduced to:   4 ShMem   1 Linda.
 PrRfSu:  requested number of processors reduced to:   4 ShMem   1 Linda.
 PrRfSu:  requested number of processors reduced to:   4 ShMem   1 Linda.
 PrRfSu:  requested number of processors reduced to:   4 ShMem   1 Linda.
 PrRfSu:  requested number of processors reduced to:   4 ShMem   1 Linda.
 PrRfSu:  requested number of processors reduced to:   4 ShMem   1 Linda.
     33 vectors produced by pass  6 Test12= 3.12D-14 1.67D-09 XBig12= 1.39D-13 2.33D-08.
 PrRfSu:  requested number of processors reduced to:   4 ShMem   1 Linda.
 PrRfSu:  requested number of processors reduced to:   4 ShMem   1 Linda.
 PrRfSu:  requested number of processors reduced to:   4 ShMem   1 Linda.
 PrRfSu:  requested number of processors reduced to:   4 ShMem   1 Linda.
      6 vectors produced by pass  7 Test12= 3.12D-14 1.67D-09 XBig12= 5.18D-15 6.06D-09.
 PrRfSu:  requested number of processors reduced to:   5 ShMem   1 Linda.
      3 vectors produced by pass  8 Test12= 3.12D-14 1.67D-09 XBig12= 1.05D-15 3.55D-09.
      3 vectors produced by pass  9 Test12= 3.12D-14 1.67D-09 XBig12= 2.94D-15 4.22D-09.
      2 vectors produced by pass 10 Test12= 3.12D-14 1.67D-09 XBig12= 2.67D-15 5.01D-09.
 InvSVY:  IOpt=1 It=  1 EMax= 7.22D-16
 Solved reduced A of dimension   374 with    60 vectors.
 End of Minotr F.D. properties file   721 does not exist.
 End of Minotr F.D. properties file   722 does not exist.
 End of Minotr F.D. properties file   788 does not exist.

 **********************************************************************

            Population analysis using the SCF density.

 **********************************************************************

 Orbital symmetries:
       Occupied  (A) (A) (A) (A) (A) (A) (A) (A) (A) (A) (A) (A)
                 (A) (A) (A) (A) (A) (A) (A) (A) (A) (A) (A) (A)
                 (A) (A) (A) (A) (A) (A) (A) (A) (A) (A)
       Virtual   (A) (A) (A) (A) (A) (A) (A) (A) (A) (A) (A) (A)
                 (A) (A) (A) (A) (A) (A) (A) (A) (A) (A) (A) (A)
                 (A) (A) (A) (A) (A) (A) (A) (A) (A) (A) (A) (A)
                 (A) (A) (A) (A) (A) (A) (A) (A) (A) (A) (A) (A)
                 (A) (A) (A) (A) (A) (A) (A) (A) (A) (A) (A) (A)
                 (A) (A) (A) (A) (A) (A) (A) (A) (A) (A) (A) (A)
                 (A) (A) (A) (A) (A) (A) (A) (A) (A) (A) (A) (A)
                 (A) (A) (A) (A) (A) (A) (A) (A) (A) (A) (A) (A)
                 (A) (A) (A) (A) (A) (A) (A) (A) (A) (A) (A) (A)
                 (A) (A) (A) (A) (A) (A) (A) (A) (A) (A) (A) (A)
                 (A) (A) (A) (A) (A) (A) (A) (A) (A) (A) (A) (A)
                 (A) (A) (A) (A) (A) (A) (A) (A) (A) (A) (A) (A)
                 (A) (A) (A) (A) (A) (A) (A) (A) (A) (A) (A) (A)
                 (A) (A) (A) (A) (A) (A) (A) (A) (A) (A) (A) (A)
                 (A) (A) (A) (A) (A) (A) (A) (A) (A) (A) (A) (A)
                 (A) (A) (A) (A) (A) (A) (A) (A) (A) (A) (A) (A)
                 (A) (A) (A) (A) (A) (A) (A) (A) (A) (A) (A) (A)
                 (A) (A) (A) (A) (A) (A) (A) (A) (A) (A) (A) (A)
                 (A) (A) (A) (A) (A) (A) (A) (A) (A) (A) (A) (A)
                 (A) (A) (A) (A) (A) (A) (A) (A) (A) (A) (A) (A)
                 (A) (A) (A) (A) (A) (A) (A) (A) (A) (A) (A) (A)
                 (A) (A) (A) (A) (A) (A) (A) (A) (A) (A) (A) (A)
                 (A) (A) (A) (A) (A) (A) (A) (A) (A) (A) (A) (A)
                 (A) (A) (A) (A) (A) (A) (A) (A) (A) (A) (A) (A)
                 (A) (A) (A) (A) (A) (A) (A) (A) (A) (A) (A) (A)
                 (A) (A) (A) (A) (A) (A) (A) (A) (A) (A) (A) (A)
                 (A) (A) (A) (A) (A) (A) (A) (A) (A) (A) (A) (A)
                 (A) (A) (A) (A) (A) (A) (A) (A) (A) (A) (A) (A)
                 (A) (A) (A) (A) (A) (A) (A) (A) (A) (A) (A) (A)
                 (A) (A) (A) (A) (A) (A) (A) (A) (A) (A) (A) (A)
                 (A) (A) (A) (A) (A) (A) (A) (A) (A) (A) (A) (A)
                 (A) (A) (A) (A) (A) (A) (A) (A) (A) (A) (A) (A)
                 (A) (A) (A) (A) (A) (A) (A) (A) (A) (A) (A) (A)
                 (A) (A) (A) (A) (A) (A) (A) (A) (A) (A) (A) (A)
                 (A) (A) (A) (A) (A) (A) (A) (A) (A) (A) (A) (A)
                 (A) (A) (A) (A) (A) (A) (A) (A) (A) (A) (A) (A)
                 (A) (A) (A) (A) (A) (A) (A) (A) (A) (A) (A) (A)
                 (A) (A) (A) (A) (A) (A) (A) (A) (A) (A) (A) (A)
                 (A) (A) (A) (A) (A) (A) (A) (A) (A) (A) (A) (A)
                 (A) (A) (A) (A) (A) (A) (A) (A) (A) (A) (A) (A)
                 (A) (A) (A) (A) (A) (A) (A) (A) (A) (A) (A) (A)
                 (A) (A) (A) (A) (A) (A) (A) (A) (A) (A) (A) (A)
                 (A) (A) (A) (A) (A) (A) (A) (A) (A) (A) (A) (A)
                 (A) (A) (A) (A) (A) (A) (A) (A) (A) (A) (A) (A)
                 (A) (A) (A) (A) (A) (A) (A) (A) (A) (A) (A) (A)
                 (A) (A) (A) (A) (A) (A) (A) (A) (A) (A)
 The electronic state is 1-A.
 Alpha  occ. eigenvalues --  -24.68067 -19.16627 -19.16360 -19.07905 -10.34012
 Alpha  occ. eigenvalues --  -10.23777 -10.23746 -10.18514  -1.21581  -1.05880
 Alpha  occ. eigenvalues --   -1.02519  -0.98876  -0.75551  -0.71132  -0.69749
 Alpha  occ. eigenvalues --   -0.59355  -0.54410  -0.53586  -0.52173  -0.49247
 Alpha  occ. eigenvalues --   -0.47264  -0.46084  -0.45459  -0.45168  -0.41646
 Alpha  occ. eigenvalues --   -0.41132  -0.40367  -0.38450  -0.37093  -0.36178
 Alpha  occ. eigenvalues --   -0.34811  -0.30248  -0.27503  -0.26135
 Alpha virt. eigenvalues --   -0.01972  -0.00394   0.00401   0.00600   0.01960
 Alpha virt. eigenvalues --    0.02069   0.02885   0.03333   0.04106   0.04957
 Alpha virt. eigenvalues --    0.05186   0.05365   0.06178   0.06473   0.06724
 Alpha virt. eigenvalues --    0.07845   0.08232   0.08482   0.08571   0.09386
 Alpha virt. eigenvalues --    0.09479   0.09861   0.10147   0.10450   0.10736
 Alpha virt. eigenvalues --    0.10907   0.11656   0.11794   0.12669   0.13711
 Alpha virt. eigenvalues --    0.14190   0.14797   0.15268   0.15730   0.15883
 Alpha virt. eigenvalues --    0.16561   0.17534   0.18185   0.18634   0.18871
 Alpha virt. eigenvalues --    0.20053   0.20706   0.21205   0.21829   0.21978
 Alpha virt. eigenvalues --    0.22579   0.23822   0.24160   0.24425   0.25101
 Alpha virt. eigenvalues --    0.25819   0.25824   0.25979   0.26549   0.27203
 Alpha virt. eigenvalues --    0.27263   0.28334   0.28468   0.29188   0.29384
 Alpha virt. eigenvalues --    0.30179   0.30423   0.30889   0.31001   0.32022
 Alpha virt. eigenvalues --    0.32537   0.32858   0.33352   0.33817   0.34046
 Alpha virt. eigenvalues --    0.35004   0.35271   0.35777   0.36353   0.36546
 Alpha virt. eigenvalues --    0.37016   0.37380   0.37908   0.38457   0.39382
 Alpha virt. eigenvalues --    0.39646   0.40127   0.40273   0.41151   0.41378
 Alpha virt. eigenvalues --    0.42114   0.42407   0.43235   0.43685   0.44395
 Alpha virt. eigenvalues --    0.45026   0.45717   0.45940   0.46707   0.47353
 Alpha virt. eigenvalues --    0.48195   0.49624   0.49881   0.50251   0.50918
 Alpha virt. eigenvalues --    0.51549   0.52657   0.53199   0.53574   0.54899
 Alpha virt. eigenvalues --    0.55309   0.56159   0.57196   0.57253   0.58693
 Alpha virt. eigenvalues --    0.59198   0.60567   0.61468   0.61896   0.62644
 Alpha virt. eigenvalues --    0.64482   0.65580   0.65650   0.67283   0.67580
 Alpha virt. eigenvalues --    0.67679   0.68850   0.69422   0.70101   0.70378
 Alpha virt. eigenvalues --    0.71056   0.71750   0.72740   0.73691   0.74179
 Alpha virt. eigenvalues --    0.74734   0.75458   0.75786   0.77438   0.78226
 Alpha virt. eigenvalues --    0.78781   0.79306   0.79584   0.79952   0.80790
 Alpha virt. eigenvalues --    0.81743   0.82084   0.82443   0.83409   0.84113
 Alpha virt. eigenvalues --    0.85350   0.85467   0.86318   0.86877   0.88113
 Alpha virt. eigenvalues --    0.88646   0.89129   0.90061   0.90228   0.91455
 Alpha virt. eigenvalues --    0.92204   0.92692   0.92954   0.93448   0.94207
 Alpha virt. eigenvalues --    0.95067   0.95289   0.96717   0.97431   0.98554
 Alpha virt. eigenvalues --    0.99146   0.99514   1.00139   1.00723   1.01535
 Alpha virt. eigenvalues --    1.01967   1.02380   1.03680   1.03894   1.04404
 Alpha virt. eigenvalues --    1.05020   1.06268   1.06762   1.07629   1.08556
 Alpha virt. eigenvalues --    1.10141   1.10831   1.11283   1.12235   1.12441
 Alpha virt. eigenvalues --    1.13789   1.14910   1.15592   1.16101   1.17730
 Alpha virt. eigenvalues --    1.18282   1.18841   1.20898   1.21089   1.21773
 Alpha virt. eigenvalues --    1.22638   1.23303   1.24761   1.25345   1.25858
 Alpha virt. eigenvalues --    1.27168   1.27652   1.28326   1.29203   1.30109
 Alpha virt. eigenvalues --    1.30868   1.31526   1.31802   1.33532   1.33934
 Alpha virt. eigenvalues --    1.34744   1.35228   1.36778   1.37958   1.38195
 Alpha virt. eigenvalues --    1.38882   1.40214   1.40720   1.41692   1.42641
 Alpha virt. eigenvalues --    1.43775   1.44099   1.44925   1.45299   1.45770
 Alpha virt. eigenvalues --    1.47471   1.48939   1.49488   1.50454   1.51440
 Alpha virt. eigenvalues --    1.51644   1.52599   1.53745   1.54403   1.54458
 Alpha virt. eigenvalues --    1.56168   1.56594   1.57506   1.57751   1.58385
 Alpha virt. eigenvalues --    1.59021   1.60121   1.60523   1.61224   1.63905
 Alpha virt. eigenvalues --    1.64351   1.65462   1.65710   1.66407   1.67741
 Alpha virt. eigenvalues --    1.68162   1.69297   1.70323   1.71191   1.72003
 Alpha virt. eigenvalues --    1.73088   1.73679   1.74196   1.75173   1.77166
 Alpha virt. eigenvalues --    1.79050   1.79475   1.81104   1.81566   1.84458
 Alpha virt. eigenvalues --    1.85097   1.86914   1.87523   1.87944   1.89667
 Alpha virt. eigenvalues --    1.91345   1.91760   1.92764   1.93784   1.94068
 Alpha virt. eigenvalues --    1.95501   1.97120   1.99381   1.99513   2.00943
 Alpha virt. eigenvalues --    2.01731   2.02761   2.03132   2.04092   2.05218
 Alpha virt. eigenvalues --    2.05491   2.05970   2.09034   2.09932   2.11344
 Alpha virt. eigenvalues --    2.12450   2.14147   2.16530   2.18263   2.22801
 Alpha virt. eigenvalues --    2.24363   2.25549   2.28000   2.32010   2.34148
 Alpha virt. eigenvalues --    2.35836   2.37489   2.39068   2.41909   2.42679
 Alpha virt. eigenvalues --    2.44349   2.46443   2.46844   2.50487   2.51756
 Alpha virt. eigenvalues --    2.52970   2.54679   2.57331   2.58076   2.60221
 Alpha virt. eigenvalues --    2.63917   2.64881   2.66016   2.67697   2.70439
 Alpha virt. eigenvalues --    2.73267   2.75128   2.76041   2.77395   2.79442
 Alpha virt. eigenvalues --    2.80242   2.82675   2.85516   2.85881   2.88830
 Alpha virt. eigenvalues --    2.91040   2.91495   2.94610   2.96366   3.01698
 Alpha virt. eigenvalues --    3.02515   3.04440   3.04694   3.09423   3.10678
 Alpha virt. eigenvalues --    3.11019   3.13256   3.16186   3.18363   3.21079
 Alpha virt. eigenvalues --    3.22493   3.24533   3.27308   3.27618   3.29660
 Alpha virt. eigenvalues --    3.30050   3.31422   3.32146   3.33372   3.35208
 Alpha virt. eigenvalues --    3.35660   3.36544   3.39390   3.39824   3.40728
 Alpha virt. eigenvalues --    3.42713   3.44658   3.44743   3.46745   3.47660
 Alpha virt. eigenvalues --    3.49011   3.51507   3.52862   3.53020   3.54195
 Alpha virt. eigenvalues --    3.55275   3.56280   3.57713   3.59037   3.60301
 Alpha virt. eigenvalues --    3.61384   3.62243   3.64764   3.66923   3.67292
 Alpha virt. eigenvalues --    3.69072   3.70399   3.71934   3.73797   3.74219
 Alpha virt. eigenvalues --    3.76361   3.77240   3.80262   3.82016   3.83537
 Alpha virt. eigenvalues --    3.84691   3.86494   3.87765   3.88457   3.89478
 Alpha virt. eigenvalues --    3.90908   3.92285   3.93990   3.95193   3.95982
 Alpha virt. eigenvalues --    3.98473   3.98614   3.99130   4.01660   4.01979
 Alpha virt. eigenvalues --    4.04853   4.06431   4.07856   4.09085   4.11837
 Alpha virt. eigenvalues --    4.12892   4.14592   4.15376   4.17623   4.19123
 Alpha virt. eigenvalues --    4.19898   4.22959   4.23583   4.26101   4.26308
 Alpha virt. eigenvalues --    4.27597   4.28836   4.31890   4.33217   4.37929
 Alpha virt. eigenvalues --    4.39901   4.41592   4.42238   4.43375   4.45874
 Alpha virt. eigenvalues --    4.45966   4.46890   4.48107   4.50076   4.50856
 Alpha virt. eigenvalues --    4.51340   4.52287   4.54385   4.55484   4.56769
 Alpha virt. eigenvalues --    4.57516   4.61198   4.63133   4.65721   4.66735
 Alpha virt. eigenvalues --    4.69320   4.72923   4.73317   4.75568   4.76139
 Alpha virt. eigenvalues --    4.77220   4.78083   4.81706   4.82140   4.84161
 Alpha virt. eigenvalues --    4.84777   4.87455   4.89586   4.91067   4.94151
 Alpha virt. eigenvalues --    4.96961   4.97177   4.99654   5.00760   5.05079
 Alpha virt. eigenvalues --    5.05992   5.08263   5.09936   5.12026   5.14325
 Alpha virt. eigenvalues --    5.18867   5.19467   5.21114   5.23902   5.24585
 Alpha virt. eigenvalues --    5.26879   5.28938   5.31677   5.34106   5.37355
 Alpha virt. eigenvalues --    5.39353   5.41643   5.43595   5.49669   5.53055
 Alpha virt. eigenvalues --    5.57461   5.63247   5.65581   5.67034   5.69093
 Alpha virt. eigenvalues --    5.70888   5.71286   5.74560   5.77176   5.79579
 Alpha virt. eigenvalues --    5.82482   5.87885   5.96413   6.03667   6.15881
 Alpha virt. eigenvalues --    6.23589   6.31271   6.34624   6.36574   6.38331
 Alpha virt. eigenvalues --    6.39975   6.48728   6.54188   6.57945   6.61305
 Alpha virt. eigenvalues --    6.64901   6.66684   6.67805   6.71377   6.73793
 Alpha virt. eigenvalues --    6.76097   6.79665   6.81223   6.85041   6.86212
 Alpha virt. eigenvalues --    6.89945   6.93195   6.98892   7.00309   7.04544
 Alpha virt. eigenvalues --    7.08514   7.15164   7.16644   7.19333   7.23299
 Alpha virt. eigenvalues --    7.27118   7.30140   7.42086   7.43328   7.50025
 Alpha virt. eigenvalues --    7.56712   7.60640   7.74155   7.78788   7.83862
 Alpha virt. eigenvalues --    7.94791   8.13266   8.36345  14.89512  15.13031
 Alpha virt. eigenvalues --   15.36687  16.38256  17.13120  17.62847  17.91292
          Condensed to atoms (all electrons):
               1          2          3          4          5          6
     1  C    5.358999  -0.102105  -0.003918   0.007335   0.011463   0.016876
     2  O   -0.102105   9.105510  -0.006133  -0.052138   0.009188  -0.022513
     3  O   -0.003918  -0.006133   8.643007  -0.236334   0.005904  -0.018128
     4  O    0.007335  -0.052138  -0.236334   8.589783   0.010496   0.005278
     5  C    0.011463   0.009188   0.005904   0.010496   5.347091   0.354814
     6  H    0.016876  -0.022513  -0.018128   0.005278   0.354814   0.351731
     7  H    0.002774   0.001410  -0.003818  -0.000285   0.395772   0.004307
     8  H   -0.004274   0.006163   0.008742  -0.037361   0.414459  -0.009816
     9  H   -0.057467   0.021288   0.123896   0.058491  -0.020908  -0.014228
    10  H    0.079028  -0.020578   0.009191   0.066953   0.029754   0.016275
    11  C   -0.210293  -0.005023  -0.059723  -0.023695   0.000087  -0.003386
    12  H   -0.118861  -0.001859   0.033409   0.001036  -0.000526  -0.000701
    13  H   -0.026871  -0.007433  -0.092782  -0.000415   0.001306   0.001220
    14  H   -0.041478   0.028342   0.007552  -0.003443  -0.001434  -0.000987
    15  C   -0.041856  -0.030967  -0.059668   0.010051   0.000176   0.008566
    16  H    0.053498  -0.018481  -0.071370   0.007861   0.000325   0.001584
    17  H   -0.014523  -0.005357  -0.052852  -0.015806   0.002684   0.003177
    18  H   -0.061703   0.055180   0.045386  -0.004085  -0.004697  -0.010934
    19  F    0.501145  -0.000339  -0.063260  -0.003193  -0.000796  -0.000845
               7          8          9         10         11         12
     1  C    0.002774  -0.004274  -0.057467   0.079028  -0.210293  -0.118861
     2  O    0.001410   0.006163   0.021288  -0.020578  -0.005023  -0.001859
     3  O   -0.003818   0.008742   0.123896   0.009191  -0.059723   0.033409
     4  O   -0.000285  -0.037361   0.058491   0.066953  -0.023695   0.001036
     5  C    0.395772   0.414459  -0.020908   0.029754   0.000087  -0.000526
     6  H    0.004307  -0.009816  -0.014228   0.016275  -0.003386  -0.000701
     7  H    0.358271  -0.009044  -0.013471   0.002233  -0.000864   0.000010
     8  H   -0.009044   0.385219   0.010854   0.008008   0.001785  -0.000144
     9  H   -0.013471   0.010854   0.682432  -0.041025   0.011499   0.010483
    10  H    0.002233   0.008008  -0.041025   0.642959  -0.012109  -0.003078
    11  C   -0.000864   0.001785   0.011499  -0.012109   5.813902   0.412180
    12  H    0.000010  -0.000144   0.010483  -0.003078   0.412180   0.655681
    13  H   -0.000144   0.000202  -0.012554   0.001309   0.385453  -0.156410
    14  H   -0.000036   0.000112  -0.003225  -0.006174   0.388953  -0.047020
    15  C   -0.001751   0.001726  -0.024613   0.016263   0.037895  -0.008722
    16  H    0.000007  -0.000357   0.009085   0.003339  -0.007017  -0.001704
    17  H   -0.002642   0.000850  -0.013361   0.002029   0.016750  -0.002496
    18  H    0.000386   0.000808   0.042887  -0.018568   0.010977   0.005809
    19  F    0.000080   0.000099  -0.006665  -0.025372   0.019667   0.039674
              13         14         15         16         17         18
     1  C   -0.026871  -0.041478  -0.041856   0.053498  -0.014523  -0.061703
     2  O   -0.007433   0.028342  -0.030967  -0.018481  -0.005357   0.055180
     3  O   -0.092782   0.007552  -0.059668  -0.071370  -0.052852   0.045386
     4  O   -0.000415  -0.003443   0.010051   0.007861  -0.015806  -0.004085
     5  C    0.001306  -0.001434   0.000176   0.000325   0.002684  -0.004697
     6  H    0.001220  -0.000987   0.008566   0.001584   0.003177  -0.010934
     7  H   -0.000144  -0.000036  -0.001751   0.000007  -0.002642   0.000386
     8  H    0.000202   0.000112   0.001726  -0.000357   0.000850   0.000808
     9  H   -0.012554  -0.003225  -0.024613   0.009085  -0.013361   0.042887
    10  H    0.001309  -0.006174   0.016263   0.003339   0.002029  -0.018568
    11  C    0.385453   0.388953   0.037895  -0.007017   0.016750   0.010977
    12  H   -0.156410  -0.047020  -0.008722  -0.001704  -0.002496   0.005809
    13  H    0.673524  -0.011064   0.021585   0.005277   0.008938  -0.012129
    14  H   -0.011064   0.488457   0.016580  -0.009349   0.006327   0.001953
    15  C    0.021585   0.016580   5.525712   0.417040   0.416169   0.249459
    16  H    0.005277  -0.009349   0.417040   0.417705  -0.013280  -0.019108
    17  H    0.008938   0.006327   0.416169  -0.013280   0.481399  -0.036705
    18  H   -0.012129   0.001953   0.249459  -0.019108  -0.036705   0.461805
    19  F   -0.034511  -0.001603  -0.001045   0.001928   0.001173   0.005017
              19
     1  C    0.501145
     2  O   -0.000339
     3  O   -0.063260
     4  O   -0.003193
     5  C   -0.000796
     6  H   -0.000845
     7  H    0.000080
     8  H    0.000099
     9  H   -0.006665
    10  H   -0.025372
    11  C    0.019667
    12  H    0.039674
    13  H   -0.034511
    14  H   -0.001603
    15  C   -0.001045
    16  H    0.001928
    17  H    0.001173
    18  H    0.005017
    19  F    8.440228
 Mulliken charges:
               1
     1  C    0.652232
     2  O   -0.954154
     3  O   -0.209102
     4  O   -0.380530
     5  C   -0.555158
     6  H    0.317712
     7  H    0.266806
     8  H    0.221969
     9  H    0.236601
    10  H    0.249565
    11  C   -0.777037
    12  H    0.183237
    13  H    0.255499
    14  H    0.187536
    15  C   -0.552600
    16  H    0.223016
    17  H    0.217529
    18  H    0.288260
    19  F    0.128619
 Sum of Mulliken charges =   0.00000
 Mulliken charges with hydrogens summed into heavy atoms:
               1
     1  C    0.652232
     2  O   -0.954154
     3  O    0.027499
     4  O   -0.130964
     5  C    0.251329
    11  C   -0.150765
    15  C    0.176205
    19  F    0.128619
 APT charges:
               1
     1  C    0.541595
     2  O   -0.901290
     3  O   -0.198118
     4  O   -0.390303
     5  C   -1.534707
     6  H    0.222517
     7  H    0.641705
     8  H    0.844908
     9  H    0.357650
    10  H    0.391145
    11  C   -1.965340
    12  H    0.602558
    13  H    0.553684
    14  H    0.570661
    15  C   -1.482805
    16  H    0.598667
    17  H    0.618530
    18  H    0.380825
    19  F    0.148118
 Sum of APT charges =   0.00000
 APT charges with hydrogens summed into heavy atoms:
               1
     1  C    0.541595
     2  O   -0.901290
     3  O    0.159532
     4  O    0.000842
     5  C    0.174424
    11  C   -0.238437
    15  C    0.115217
    19  F    0.148118
 Electronic spatial extent (au):  <R**2>=           1147.0174
 Charge=              0.0000 electrons
 Dipole moment (field-independent basis, Debye):
    X=             -1.2102    Y=              3.7048    Z=              1.1353  Tot=              4.0594
 Quadrupole moment (field-independent basis, Debye-Ang):
   XX=            -40.7323   YY=            -49.0595   ZZ=            -54.2114
   XY=              0.9844   XZ=              0.4345   YZ=             -0.5262
 Traceless Quadrupole moment (field-independent basis, Debye-Ang):
   XX=              7.2688   YY=             -1.0584   ZZ=             -6.2104
   XY=              0.9844   XZ=              0.4345   YZ=             -0.5262
 Octapole moment (field-independent basis, Debye-Ang**2):
  XXX=             -5.7037  YYY=             -1.3442  ZZZ=             -8.0084  XYY=             -2.2894
  XXY=             -0.8731  XXZ=              7.1815  XZZ=             -1.1332  YZZ=              1.7890
  YYZ=             -3.0938  XYZ=              1.7004
 Hexadecapole moment (field-independent basis, Debye-Ang**3):
 XXXX=           -830.3038 YYYY=           -366.5020 ZZZZ=           -189.8275 XXXY=             -6.6877
 XXXZ=            -10.4143 YYYX=              1.2128 YYYZ=             -0.5050 ZZZX=             -3.8303
 ZZZY=              9.9786 XXYY=           -206.6020 XXZZ=           -180.9449 YYZZ=            -95.6801
 XXYZ=            -14.1232 YYXZ=             -1.2999 ZZXY=             -2.0001
 N-N= 4.523329082244D+02 E-N=-2.044456061604D+03  KE= 4.816484243887D+02
  Exact polarizability:   0.000   0.000   0.000   0.000   0.000   0.000
 Approx polarizability: 107.076   1.485 101.060  -0.771  -2.765  96.000
 PrsmSu:  requested number of processors reduced to:   4 ShMem   1 Linda.
 PrsmSu:  requested number of processors reduced to:   4 ShMem   1 Linda.
   1 Symmetry operations used in ECPInt.
 ECPInt:  NShTT=   20503 NPrTT=   53309 LenC2=   20274 LenP2D=   44094.
 LDataN:  DoStor=T MaxTD1= 8 Len=  415
 Calling FoFJK, ICntrl=    100147 FMM=F ISym2X=0 I1Cent= 0 IOpClX= 0 NMat=1 NMatS=1 NMatT=0.
 CoulSu:  requested number of processors reduced to:   4 ShMem   1 Linda.
 ***** Axes restored to original set *****
 -------------------------------------------------------------------
 Center     Atomic                   Forces (Hartrees/Bohr)
 Number     Number              X              Y              Z
 -------------------------------------------------------------------
      1        6          -0.045938782   -0.004670414    0.013141371
      2        8           0.019478573   -0.010020882    0.025753201
      3        8          -0.027070348    0.031436790   -0.006233773
      4        8           0.017632829   -0.005189505    0.015885528
      5        6           0.000529911   -0.009198700   -0.009999913
      6        1          -0.002752148   -0.000613258   -0.001968226
      7        1          -0.000640887   -0.001435544    0.007095233
      8        1           0.000559381    0.007420547    0.000853008
      9        1           0.019352036   -0.014574884    0.008393024
     10        1          -0.006412021    0.034627486   -0.023053250
     11        6           0.014424691    0.004064132    0.007437016
     12        1          -0.008729846    0.003338338   -0.004038168
[...]
 6,0.00778097,0.43558873,-0.00259165,-0.02346361,0.02464830,0.03573005,
 0.01703416,0.00179802,-0.06391954,-0.01173594,0.00031290,-0.05978188,0
 .21113371,0.00350469,0.02153045,-0.03419523,-0.06364982,-0.00344177,0.
 00169908,0.03337093,0.00865449,0.01654201,-0.02705531,-0.01804659,0.24
 578002,-0.00368252,-0.00049191,0.00221153,0.00875228,0.00009287,0.0001
 5505,0.00839136,0.00363012,-0.00027368,-0.16029271,0.04202724,0.041882
 62,0.49095141,0.00155741,-0.00188635,0.00126391,-0.00174025,0.00122026
 ,-0.00054654,-0.01124225,-0.00898640,-0.00100166,0.04813547,-0.1015063
 1,-0.00982871,0.04451690,0.56675071,0.00243233,0.00211818,-0.00453441,
 -0.01219030,-0.00135231,-0.00496959,-0.00282248,-0.00231588,0.00128368
 ,0.05523840,-0.01467579,-0.10795728,0.05199536,-0.03477066,0.56267181,
 -0.00007428,0.00007438,0.00069046,0.00007224,-0.00042205,-0.00046296,-
 0.00073373,-0.00041083,-0.00036720,-0.00377753,0.02518229,0.03049298,-
 0.06995838,-0.04478586,-0.05609789,0.07490977,-0.00017459,0.00036380,-
 0.00071280,0.00051636,-0.00009506,0.00103366,0.00146239,0.00059316,0.0
 0003163,0.00872003,-0.00691508,-0.01183122,-0.04085338,-0.14345568,-0.
 11223351,0.03868759,0.15227491,-0.00030809,-0.00091754,0.00070243,0.00
 186448,0.00027638,0.00028999,0.00102235,0.00142154,-0.00015171,0.00991
 410,-0.01051436,-0.00962120,-0.05095103,-0.11288922,-0.19533268,0.0483
 6212,0.13127790,0.21120145,0.00093793,0.00122315,-0.00204066,-0.003928
 41,-0.00073515,-0.00112912,-0.00035417,-0.00104650,0.00054620,-0.02886
 901,0.02157309,-0.01723433,-0.10660503,0.05781851,-0.08844759,-0.00243
 354,0.00332785,-0.00713450,0.12626096,-0.00049882,-0.00020835,0.000732
 46,0.00189931,0.00021054,0.00070369,0.00053142,0.00033967,0.00001960,0
 .01405904,-0.00683390,0.00620812,0.06100283,-0.11572054,0.09336192,-0.
 01040402,0.01192305,-0.01408577,-0.07529460,0.12176482,-0.00001308,-0.
 00019934,0.00043507,0.00144868,0.00017507,0.00085726,-0.00034482,-0.00
 013416,-0.00013094,0.01343793,-0.01253036,0.01610478,-0.09675274,0.099
 01282,-0.19213732,-0.01021219,0.01261117,-0.01543731,0.09694789,-0.102
 28720,0.19879179,0.00069019,-0.00107395,0.00073163,-0.00045474,0.00051
 962,-0.00080298,-0.00357657,-0.00229399,-0.00046704,-0.03121732,-0.017
 40111,0.01837077,-0.12242214,-0.10801072,0.04125560,-0.00277558,-0.007
 82822,0.00168354,0.01125196,0.01194916,-0.00471194,0.14423071,0.000019
 87,0.00011511,-0.00019502,-0.00022804,-0.00011281,0.00002203,0.0015749
 3,0.00129909,0.00005494,0.01382799,0.01709139,-0.00884645,-0.11637167,
 -0.21383951,0.06924090,-0.00908659,-0.01344682,0.00661680,-0.00825621,
 -0.01112566,0.00361384,0.11868680,0.22198408,-0.00039318,0.00033790,-0
 .00006117,0.00042665,0.00002607,0.00014949,0.00196327,0.00147847,0.000
 03428,0.01668035,0.00883589,-0.00625753,0.04258091,0.06408209,-0.07747
 144,-0.01394262,-0.01936109,0.00978644,0.01252436,0.01876743,-0.006393
 43,-0.05664593,-0.07047028,0.08034735,-0.01635678,0.04143300,-0.035634
 92,-0.02900428,-0.01383665,0.00952754,0.00357746,0.01383500,0.01139425
 ,-0.02412243,0.01982744,-0.01792599,-0.02172377,0.00605770,0.00845340,
 0.00256854,-0.00217693,-0.00212323,0.00112265,-0.00141664,0.00008539,0
 .00423903,-0.00037740,-0.00236782,0.02123579,0.00990215,0.03576074,-0.
 01882492,-0.02018679,-0.00919001,0.00513953,0.04384291,-0.02835611,0.0
 0748796,-0.00329075,-0.06601358,0.00256071,-0.00016804,0.02270355,-0.0
 0332307,0.00169411,-0.00129101,-0.00214968,0.00110942,-0.00041760,0.00
 050018,0.00641836,-0.00233744,-0.00330013,-0.04666938,0.09241344,-0.01
 321357,-0.00861309,0.01041575,0.00954724,0.00146883,-0.00225947,0.0017
 5097,-0.00000855,-0.03242923,0.00149548,-0.00033618,-0.02887247,0.0076
 8922,0.00099229,-0.00621844,0.00017937,0.00094755,0.00017949,-0.001243
 25,0.00011076,0.00059809,-0.00063356,-0.00043737,0.00041795,0.00720115
 ,-0.01356448,0.07876707,-0.03477068,-0.03574895,0.05586801,0.04197629,
 0.01462231,0.00005573,-0.02660835,0.00780752,-0.01140081,-0.05819540,-
 0.00149710,-0.00385713,-0.02473030,0.00999952,0.00055334,0.00272591,-0
 .00155107,-0.00259022,0.00296843,-0.00205482,0.00017080,0.00081117,0.0
 0007811,-0.00116434,0.04334321,0.01606214,-0.00167765,0.04572886,-0.00
 696050,0.00454630,-0.01068053,-0.00878516,-0.02561600,0.00256251,0.005
 29165,0.00084695,0.00006845,0.01844666,-0.03968554,0.01752884,0.009608
 80,-0.00641023,0.00235679,-0.00026270,0.00039919,0.00114183,0.00017892
 ,0.00020264,-0.00082636,-0.00137933,0.00058577,0.00003218,-0.00396296,
 -0.01744399,0.02251670,-0.00961930,0.08416949,0.00365623,-0.01695953,0
 .04472997,0.03321231,0.01031603,-0.03591087,-0.01570938,0.00499711,-0.
 00795095,-0.03785875,0.02482844,-0.10241159,0.00300746,-0.00675764,0.0
 2260133,0.00156852,-0.00201983,-0.00142988,0.00652117,-0.00318690,-0.0
 0253718,0.00117705,0.00041031,-0.00036340,0.01816308,0.02638797,-0.015
 47196,-0.01672861,-0.03964831,0.11312251,-0.17162449,-0.04537699,-0.03
 038977,-0.02962297,-0.01547986,0.00565764,-0.01575688,0.00425606,-0.00
 891486,-0.00189765,0.00053161,-0.00110773,0.00049040,-0.00016899,-0.00
 031566,-0.00001449,0.00002179,0.00003888,-0.00009351,0.00007589,0.0000
 0632,-0.00005517,-0.00001215,0.00004471,0.00071216,0.00144503,-0.00051
 632,0.00358516,-0.00151175,0.00252558,0.49201164,-0.04121448,-0.086263
 55,-0.01263913,-0.02474672,0.00050852,0.00268983,0.02738903,-0.0023966
 8,0.01389390,-0.00075861,0.00358589,-0.00380454,0.00002435,0.00025544,
 -0.00027591,-0.00000119,-0.00004792,0.00008586,-0.00016300,0.00003217,
 0.00003949,0.00012313,-0.00003165,-0.00004069,-0.00437435,-0.00559683,
 0.00255383,0.00470422,-0.00066465,0.00367641,-0.01763809,0.57140203,-0
 .02901132,-0.01348262,-0.07971536,0.03590587,0.01418432,0.00646100,-0.
 01535912,0.00314911,-0.00415769,0.00229402,-0.00315358,0.00394356,-0.0
 0027417,-0.00002364,0.00052806,-0.00000140,0.00001950,-0.00010244,0.00
 021662,-0.00008437,-0.00007806,-0.00004583,0.00000764,-0.00001803,0.00
 253936,0.00265029,-0.00133118,-0.00538651,0.00273887,-0.00510961,-0.03
 595134,-0.00480335,0.58701430,-0.01791919,0.02669875,-0.01032414,0.002
 42413,-0.00244509,0.00075887,-0.00584279,-0.00019952,-0.00225678,-0.00
 004134,-0.00096401,0.00088748,0.00009011,-0.00009814,0.00003114,-0.000
 00379,0.00002007,-0.00001412,0.00002809,-0.00000179,-0.00000593,-0.000
 04982,0.00000772,0.00001856,0.00142588,0.00164129,-0.00070981,-0.00097
 910,0.00013183,-0.00065318,-0.12293515,0.11017351,-0.04764263,0.133451
 06,-0.00523969,0.00723321,-0.00322951,0.00011768,0.00007492,-0.0002445
 9,-0.00278855,0.00120937,-0.00180893,-0.00002737,-0.00011786,0.0000928
 9,0.00003687,-0.00001177,-0.00003328,-0.00000612,-0.00000185,0.0000123
 8,-0.00000757,0.00000289,-0.00000202,0.00000028,0.00000634,0.00000426,
 -0.00000008,0.00023413,-0.00014308,0.00004808,0.00010220,-0.00006536,0
 .11234992,-0.20793450,0.07022207,-0.12153256,0.22387248,-0.00555005,0.
 00797623,-0.00448378,0.00159797,-0.00001364,-0.00015433,-0.00326252,-0
 .00025483,-0.00035345,-0.00018668,-0.00050998,0.00038777,0.00003334,-0
 .00005575,0.00000655,-0.00000722,0.00000831,-0.00000368,0.00001108,0.0
 0000126,-0.00000493,-0.00002379,0.00000973,0.00001538,0.00076419,0.000
 93391,-0.00028908,-0.00043818,0.00000680,-0.00027761,-0.04763821,0.069
 29516,-0.07396077,0.05396974,-0.07582399,0.07738850,-0.01103519,-0.010
 88203,0.02851262,-0.00921025,-0.00369789,-0.00175899,0.00222111,0.0009
 8278,-0.00063270,-0.00079824,0.00137075,-0.00154205,0.00017563,0.00002
 776,-0.00023864,-0.00000405,-0.00001372,0.00004993,-0.00010323,0.00004
 079,0.00002859,0.00002136,-0.00000841,0.00000855,-0.00126681,-0.001149
 53,0.00042454,0.00250162,-0.00103177,0.00199151,-0.10475916,-0.0515977
 1,0.09462040,0.00960102,0.00631971,-0.01442971,0.11340092,-0.00148011,
 -0.00579706,0.01103476,-0.00403629,0.00039418,-0.00062264,0.00082217,-
 0.00002491,-0.00055960,-0.00072005,0.00039734,-0.00069979,0.00013606,-
 0.00004721,-0.00014628,0.00000647,0.00000650,0.00002192,-0.00004741,0.
 00002966,0.00002282,-0.00001015,-0.00000669,0.00001039,-0.00020247,-0.
 00020412,0.00011088,0.00118337,-0.00008508,0.00097850,-0.05276271,-0.0
 9270483,0.08418518,-0.01281230,-0.00939840,0.01846081,0.05760094,0.096
 44713,-0.00320744,-0.00387853,0.00572600,-0.00305493,-0.00099600,0.001
 48866,0.00017155,-0.00053438,0.00069159,-0.00006746,0.00000785,-0.0001
 5433,0.00002237,-0.00001604,0.00002328,-0.00000510,0.00000031,-0.00000
 871,0.00001036,0.00000471,-0.00000251,-0.00000245,-0.00000331,0.000000
 94,0.00006967,0.00003903,0.00005673,-0.00002198,-0.00005049,0.00027343
 ,0.10036611,0.08700630,-0.21613422,0.00427883,0.00294551,-0.00755254,-
 0.10732543,-0.09518480,0.23041682,0.00666894,-0.02019976,-0.02158376,0
 .00083148,0.00212961,0.00085516,0.00081035,0.00087070,0.00128681,0.000
 17597,0.00003629,0.00002482,0.00001047,-0.00001536,-0.00001629,-0.0000
 2272,0.00000857,0.00002087,0.00000373,-0.00000191,-0.00000027,0.000009
 21,0.00000810,0.00000083,-0.00025071,-0.00031922,0.00006050,-0.0001620
 6,0.00019228,-0.00013591,-0.05146399,0.01693494,0.02194029,-0.00159049
 ,0.01065619,0.01399285,-0.00169661,0.01126220,0.00933306,0.05263850,0.
 00528830,-0.00869868,-0.00764195,-0.00057178,0.00101564,0.00169871,-0.
 00045248,-0.00008747,-0.00010857,-0.00008480,-0.00012755,0.00012615,0.
 00008393,-0.00005611,-0.00002353,-0.00001067,0.00001979,0.00000870,0.0
 0000182,0.00000692,0.00000247,-0.00001726,-0.00000063,0.00000263,0.000
 24269,0.00012898,-0.00014159,-0.00015132,0.00010976,-0.00006835,0.0135
 3900,-0.16503743,-0.13273960,0.00118100,-0.01575647,-0.01862242,-0.000
 06698,0.01089507,0.01053444,-0.01789820,0.17814092,0.00342904,-0.00571
 474,-0.00884532,0.00044220,0.00131537,0.00095037,-0.00044388,0.0011671
 0,0.00020313,0.00006068,0.00009342,-0.00004626,0.00002307,-0.00001047,
 -0.00002779,-0.00001695,0.00000132,0.00003355,-0.00001056,-0.00000409,
 -0.00000581,0.00000886,0.00001343,0.00000400,-0.00024345,-0.00019742,0
 .00001844,-0.00005273,-0.00001981,-0.00003389,0.01802656,-0.13318440,-
 0.19530048,-0.00010005,0.00751383,0.00922629,0.00086363,-0.01640346,-0
 .01578878,-0.01951833,0.14711031,0.20926046,0.00226659,0.00280928,0.01
 319709,0.00171098,0.00026149,-0.00148002,-0.08329713,0.00534801,-0.012
 20787,-0.00648293,-0.00191504,0.00428551,-0.00033507,-0.00170272,0.000
 50607,-0.00011899,-0.00005474,0.00002415,-0.00009862,-0.00000421,-0.00
 009270,-0.00059450,0.00016796,0.00016859,0.01331663,-0.00961538,-0.010
 64089,-0.00164742,0.00033477,-0.00135073,-0.00138933,0.00111943,-0.001
 50721,0.00006967,-0.00024112,0.00017247,-0.00057635,0.00052713,0.00021
 745,-0.00038699,0.00069489,-0.00038540,0.59017584,0.01165088,-0.033219
 79,0.00496480,0.00164865,0.00633827,-0.00628846,0.00357956,-0.17072860
 ,-0.05043180,0.01029230,0.00785921,-0.00290872,-0.00387166,0.00211622,
 0.00207993,0.00018286,-0.00044910,-0.00085006,0.00054360,-0.00013666,0
 .00014668,0.00051429,-0.00048461,-0.00047757,-0.01494857,-0.01884152,-
 0.00283995,-0.00088257,-0.00149436,0.00017252,-0.00027606,0.00241874,0
 .00069419,-0.00174344,-0.00078182,-0.00085026,0.00003092,0.00046569,0.
 00042705,0.00059446,-0.00042411,-0.00113661,0.00843453,0.47119411,0.01
 091662,-0.00990025,0.02062551,0.00340667,0.00565015,-0.00946262,-0.011
 20884,-0.05968594,-0.11115812,0.00642322,0.00280487,-0.00107376,-0.001
 53331,0.00157403,0.00171365,0.00045527,-0.00025008,-0.00056073,0.00005
 351,-0.00022358,-0.00016137,0.00021773,-0.00025686,-0.00045403,-0.0071
 1410,-0.00515493,-0.00011096,-0.00212167,0.00014214,-0.00058956,-0.001
 46423,0.00219540,-0.00095234,-0.00034554,-0.00004275,-0.00029996,0.000
 27522,-0.00022931,-0.00013415,-0.00125597,0.00047342,-0.00014266,0.014
 08324,-0.06219166,0.54382291,-0.00080832,0.00130818,-0.00112929,0.0002
 1034,-0.00023121,0.00025262,0.00865297,-0.00274885,-0.00275729,-0.0000
 7092,-0.00006089,0.00010607,-0.00002049,-0.00001475,0.00014734,0.00000
 642,-0.00001205,-0.00014922,0.00005467,0.00002820,0.00002966,-0.000021
 14,-0.00006846,-0.00003110,0.00122599,0.00128955,0.00021479,-0.0001623
 6,0.00018529,-0.00012969,-0.00012915,0.00052936,-0.00069459,0.00022073
 ,0.00028701,0.00028069,-0.00015585,0.00003114,-0.00007732,-0.00035011,
 0.00058663,0.00029888,-0.26335331,-0.10168235,0.02265606,0.27922403,-0
 .00408108,0.00205394,-0.00190958,0.00094287,-0.00056746,0.00110177,-0.
 02916136,-0.03024210,-0.00659571,-0.00349779,-0.00181136,0.00182330,0.
 00041923,-0.00084019,-0.00013201,-0.00004116,0.00004486,0.00014780,-0.
 00009912,0.00002258,-0.00004898,-0.00028494,0.00014152,0.00011329,0.00
 705072,0.00132424,-0.00204727,-0.00047783,0.00044685,-0.00055745,0.000
 09214,-0.00036132,0.00022523,0.00020073,0.00031715,-0.00001837,0.00050
 088,-0.00026883,-0.00032995,0.00028907,-0.00025415,0.00056953,-0.09437
 520,-0.09210370,0.01306350,0.11134579,0.11245181,0.00056118,0.00137185
 ,-0.00083492,-0.00057586,0.00007190,0.00066808,-0.01770025,-0.01530669
 ,0.00060518,-0.00203112,-0.00082255,0.00071164,0.00021545,-0.00053673,
 -0.00038345,-0.00012391,0.00008092,0.00020446,0.00001125,0.00003808,0.
 00003485,-0.00009073,0.00010747,0.00017684,0.00348366,0.00035901,-0.00
 110580,-0.00003332,-0.00001209,-0.00022911,-0.00014183,-0.00014189,0.0
 0055528,0.00007402,-0.00012147,-0.00017182,0.00009637,0.00003165,0.000
 06456,-0.00019518,0.00038747,-0.00051864,0.02560451,0.01383331,-0.0534
 8357,-0.02250570,-0.00547249,0.05266108,0.00007462,-0.00176461,0.00059
 932,0.00028536,0.00019602,-0.00022444,0.00374382,0.00305444,0.00272189
 ,0.00057118,0.00058261,-0.00035443,-0.00017522,0.00008169,0.00012292,-
 0.00000139,-0.00007489,0.00001209,0.00000953,-0.00003320,-0.00003667,0
 .00002289,0.00000036,-0.00000972,-0.00059224,-0.00078993,0.00049239,0.
 00003285,-0.00001886,0.00003033,0.00005746,-0.00001952,-0.00026183,0.0
 0014440,0.00020120,0.00014432,0.00009472,-0.00015771,-0.00017063,-0.00
 016310,0.00011030,0.00036153,-0.17707790,0.09640752,-0.08797293,-0.019
 05000,0.01517215,-0.01500885,0.18488227,-0.00354917,0.00559458,-0.0080
 1879,-0.00170904,-0.00130340,0.00245679,0.02376378,-0.03509416,0.01089
 713,-0.00167924,-0.00006283,-0.00046879,0.00041592,-0.00029027,-0.0002
 0761,-0.00003793,-0.00001597,0.00024120,-0.00023366,-0.00001120,-0.000
 07936,-0.00007019,0.00013648,0.00003885,0.00203677,0.00031608,0.000367
 41,0.00167658,-0.00014187,0.00089051,-0.00008070,-0.00015472,0.0001967
 4,0.00019273,0.00022016,0.00017733,0.00006869,-0.00009926,-0.00013337,
 0.00012942,0.00005028,0.00033435,0.09144054,-0.11704761,0.06652965,-0.
 00862711,0.00961387,-0.00661513,-0.10745539,0.14173164,-0.00092080,0.0
 0198391,-0.00400328,-0.00085146,-0.00064612,0.00175041,0.01485754,-0.0
 1650338,0.01018815,0.00037870,0.00015704,-0.00031670,-0.00016520,0.000
 14910,0.00025878,-0.00005213,0.00002080,-0.00023954,0.00006152,0.00005
 614,0.00007703,0.00002614,-0.00010780,-0.00006508,-0.00040141,0.000024
 12,0.00073423,0.00013020,0.00002850,0.00003771,-0.00003059,-0.00035863
 ,-0.00020428,0.00005503,0.00012737,0.00016157,0.00000058,0.00007082,0.
 00004932,0.00022536,0.00019075,0.00030874,-0.09070766,0.07196997,-0.11
 231058,0.00317035,-0.00202408,0.00220997,0.09544768,-0.06933261,0.1144
 9665,0.00088834,-0.00001737,0.00156456,-0.00074439,-0.00013849,-0.0004
 2545,0.00300987,0.00423120,0.00112282,-0.00003714,0.00053661,-0.000140
 07,-0.00009215,-0.00018843,-0.00035047,-0.00023205,-0.00011451,0.00014
 711,-0.00000704,0.00003149,0.00003416,0.00002121,0.00005435,0.00005109
 ,-0.00049972,-0.00038110,-0.00058855,0.00069049,-0.00031926,0.00041954
 ,-0.00020731,0.00010349,0.00062938,0.00006111,-0.00010292,-0.00023101,
 0.00013934,-0.00005413,-0.00012525,-0.00055612,-0.00001103,-0.00035440
 ,-0.06937640,-0.00983657,0.05809023,-0.00574053,-0.00468180,0.02843088
 ,0.00704815,0.00238183,-0.02199397,0.06586753,0.00055037,0.00292453,-0
 .00443788,-0.00109001,0.00070275,0.00157403,0.00841959,-0.00972834,-0.
 03921234,-0.00053672,-0.00072637,0.00064040,-0.00000810,-0.00019216,0.
 00001212,-0.00021503,0.00004794,-0.00000032,0.00001562,0.00002787,0.00
 002770,-0.00004313,0.00001399,0.00002428,0.00240749,0.00158376,-0.0008
 1528,-0.00058687,-0.00012493,-0.00059164,0.00009991,-0.00049819,0.0002
 3840,0.00010048,0.00002775,0.00003954,-0.00007693,-0.00001963,-0.00003
 916,0.00018525,0.00009919,0.00004625,-0.01021543,-0.05540892,0.0392772
 8,-0.00177529,0.00001860,0.01283083,-0.00565242,-0.00074330,0.01564199
 ,0.00847046,0.06211765,-0.00203680,0.00461401,-0.00386585,-0.00144841,
 -0.00117901,0.00243563,0.00295404,-0.01529496,-0.01508475,-0.00200558,
 -0.00083641,0.00048961,0.00055252,-0.00053052,-0.00072820,-0.00015629,
 0.00009380,0.00043186,-0.00004284,0.00003602,0.00000849,-0.00004333,0.
 00018580,0.00022706,0.00319755,0.00147133,-0.00081222,0.00063414,-0.00
 013462,0.00016961,0.00013803,-0.00041685,0.00000115,0.00010919,0.00009
 175,0.00015989,-0.00009894,0.00007597,0.00004595,0.00010053,0.00016104
 ,0.00027979,0.05918568,0.03324425,-0.27777997,0.00034887,0.00196234,-0
 .00109573,0.00406994,0.00336591,-0.01289124,-0.06595018,-0.02633456,0.
 30758260,-0.06695896,-0.01317980,-0.00061494,0.00137306,0.01683245,0.0
 3946721,-0.00060903,0.02768834,0.00845866,-0.00277370,0.00073324,-0.00
 005901,0.00117612,-0.00022750,-0.00025658,-0.00013236,0.00008946,0.000
 13079,-0.00014539,0.00009188,-0.00001909,-0.00013077,-0.00001726,0.000
 08684,0.00104941,-0.00083484,0.00016793,0.00289168,-0.00051861,0.00029
 347,0.00309243,-0.02058781,-0.02201001,0.00184548,-0.00007097,0.000800
 72,0.00145002,0.00071385,-0.00041141,-0.00450572,-0.00246402,-0.002388
 69,-0.00280478,-0.00063836,-0.00356119,0.00026704,0.00068668,-0.000070
 58,0.00009260,0.00133618,0.00077011,-0.00023317,-0.00004925,0.00049188
 ,0.06505607,-0.02072913,-0.09065683,-0.03558011,0.01457971,0.02061216,
 -0.01119197,0.01564387,-0.04734118,-0.01767762,0.00483207,0.00189823,0
 .00071123,-0.00023037,0.00019654,0.00031999,-0.00014355,0.00004529,0.0
 0015465,0.00009123,-0.00010889,-0.00004447,0.00020136,0.00001206,-0.00
 010397,-0.00492537,-0.00477272,-0.00012138,-0.00361202,0.00025750,-0.0
 0280279,0.00089596,-0.01651051,-0.02422438,-0.00055127,0.00070206,-0.0
 0075983,0.00158175,0.00002045,0.00020084,-0.00486264,-0.00002397,-0.00
 149388,0.00698581,0.00072856,0.00622494,-0.00037017,0.00001370,-0.0000
 8347,0.00016025,-0.00269848,-0.00144788,0.00003617,-0.00012220,-0.0005
 7527,-0.00958365,0.13774823,-0.01890741,-0.03644143,-0.09874908,0.0470
 2726,-0.01677608,-0.06443162,0.00284137,-0.00770298,0.00876461,0.00551
 034,-0.00206093,0.00524789,-0.00041876,-0.00010663,0.00067345,-0.00030
 287,0.00028167,0.00005821,0.00037889,-0.00016828,-0.00001849,-0.000003
 74,0.00003421,-0.00007561,0.00093168,-0.00103943,-0.00228696,-0.011939
 08,0.00224859,-0.00861896,-0.00033329,-0.02577078,-0.02143887,0.001869
 30,0.00050493,0.00020600,-0.00084548,-0.00115782,0.00093796,-0.0051353
 9,-0.00135007,0.00042485,0.00092772,0.00044239,0.00251231,-0.00003114,
 0.00012913,-0.00006888,0.00003708,-0.00064021,-0.00024189,-0.00033040,
 0.00107837,0.00042631,-0.02127609,0.08849536,0.17667880\\0.00000609,-0
 .00000844,-0.00000930,-0.00001193,-0.00000144,-0.00000482,-0.00001220,
 0.00000066,0.00001498,0.00001830,0.00002104,0.00000651,-0.00000375,0.0
 0000597,0.00000259,0.00000247,-0.00000015,0.00000579,-0.00000180,0.000
 00646,0.00000708,-0.00000071,0.00000229,0.00000258,-0.00000536,-0.0000
 0997,-0.00000593,0.00000327,-0.00000482,-0.00000409,0.00000071,-0.0000
 0242,-0.00000646,0.00000049,-0.00000568,-0.00000913,-0.00000041,-0.000
 00160,-0.00000537,0.00000367,-0.00000604,-0.00000325,-0.00000079,0.000
 00219,0.00000255,0.00000209,-0.00000125,0.00000347,0.00000134,0.000002
 54,0.00000816,0.00000437,-0.00000263,0.00000467,-0.00000586,0.00000329
 ,-0.00001003\\\@


 WAR ES EIN GOTT DER DIESE ZEICHEN SCHRIEB?
          - LUDWIG BOLTZMANN, QUOTING GOETHE, ABOUT MAXWELL'S EQUATIONS.
 Job cpu time:       1 days 11 hours 11 minutes 33.1 seconds.
 File lengths (MBytes):  RWF=    364 Int=      0 D2E=      0 Chk=     25 Scr=      1
 Normal termination of Gaussian 09 at Fri Mar 27 05:18:36 2015.
