 Entering Gaussian System, Link 0=g09
 Initial command:
 /opt/gridware/applications/gaussian/g09/l1.exe "/lustre/SCRATCH5/gau/mlawal/854266.sched01/Gau-16458.inp" -scrdir="/lustre/SCRATCH5/gau/mlawal/854266.sched01/"
 Entering Link 1 = /opt/gridware/applications/gaussian/g09/l1.exe PID=     16459.
  
 Copyright (c) 1988,1990,1992,1993,1995,1998,2003,2009,2013,
            Gaussian, Inc.  All Rights Reserved.
  
 This is part of the Gaussian(R) 09 program.  It is based on
 the Gaussian(R) 03 system (copyright 2003, Gaussian, Inc.),
 the Gaussian(R) 98 system (copyright 1998, Gaussian, Inc.),
 the Gaussian(R) 94 system (copyright 1995, Gaussian, Inc.),
 the Gaussian 92(TM) system (copyright 1992, Gaussian, Inc.),
 the Gaussian 90(TM) system (copyright 1990, Gaussian, Inc.),
 the Gaussian 88(TM) system (copyright 1988, Gaussian, Inc.),
 the Gaussian 86(TM) system (copyright 1986, Carnegie Mellon
 University), and the Gaussian 82(TM) system (copyright 1983,
 Carnegie Mellon University). Gaussian is a federally registered
 trademark of Gaussian, Inc.
  
 This software contains proprietary and confidential information,
 including trade secrets, belonging to Gaussian, Inc.
  
 This software is provided under written license and may be
 used, copied, transmitted, or stored only in accord with that
 written license.
  
 The following legend is applicable only to US Government
 contracts under FAR:
  
                    RESTRICTED RIGHTS LEGEND
  
 Use, reproduction and disclosure by the US Government is
 subject to restrictions as set forth in subparagraphs (a)
 and (c) of the Commercial Computer Software - Restricted
 Rights clause in FAR 52.227-19.
  
 Gaussian, Inc.
 340 Quinnipiac St., Bldg. 40, Wallingford CT 06492
  
  
 ---------------------------------------------------------------
 Warning -- This program may not be used in any manner that
 competes with the business of Gaussian, Inc. or will provide
 assistance to any competitor of Gaussian, Inc.  The licensee
 of this program is prohibited from giving any competitor of
 Gaussian, Inc. access to this program.  By using this program,
 the user acknowledges that Gaussian, Inc. is engaged in the
 business of creating and licensing software in the field of
 computational chemistry and represents and warrants to the
 licensee that it is not a competitor of Gaussian, Inc. and that
 it will not use this program in any manner prohibited above.
 ---------------------------------------------------------------
  

 Cite this work as:
 Gaussian 09, Revision D.01,
 M. J. Frisch, G. W. Trucks, H. B. Schlegel, G. E. Scuseria, 
 M. A. Robb, J. R. Cheeseman, G. Scalmani, V. Barone, B. Mennucci, 
 G. A. Petersson, H. Nakatsuji, M. Caricato, X. Li, H. P. Hratchian, 
 A. F. Izmaylov, J. Bloino, G. Zheng, J. L. Sonnenberg, M. Hada, 
 M. Ehara, K. Toyota, R. Fukuda, J. Hasegawa, M. Ishida, T. Nakajima, 
 Y. Honda, O. Kitao, H. Nakai, T. Vreven, J. A. Montgomery, Jr., 
 J. E. Peralta, F. Ogliaro, M. Bearpark, J. J. Heyd, E. Brothers, 
 K. N. Kudin, V. N. Staroverov, T. Keith, R. Kobayashi, J. Normand, 
 K. Raghavachari, A. Rendell, J. C. Burant, S. S. Iyengar, J. Tomasi, 
 M. Cossi, N. Rega, J. M. Millam, M. Klene, J. E. Knox, J. B. Cross, 
 V. Bakken, C. Adamo, J. Jaramillo, R. Gomperts, R. E. Stratmann, 
 O. Yazyev, A. J. Austin, R. Cammi, C. Pomelli, J. W. Ochterski, 
 R. L. Martin, K. Morokuma, V. G. Zakrzewski, G. A. Voth, 
 P. Salvador, J. J. Dannenberg, S. Dapprich, A. D. Daniels, 
 O. Farkas, J. B. Foresman, J. V. Ortiz, J. Cioslowski, 
 and D. J. Fox, Gaussian, Inc., Wallingford CT, 2013.
 
 ******************************************
 Gaussian 09:  EM64L-G09RevD.01 24-Apr-2013
                27-Mar-2015 
 ******************************************
 %nprocshared=8
 Will use up to    8 processors via shared memory.
 %nprocl=1
 Will use up to    1 processors via Linda.
 ----------------------------------------------------------------------
 # opt=(calcfc,ts,noeigentest) freq=noraman b3lyp/aug-cc-pvtz geom=conn
 ectivity
 ----------------------------------------------------------------------
 1/5=1,10=4,11=1,14=-1,18=20,26=3,38=1,57=2/1,3;
 2/9=110,12=2,17=6,18=5,40=1/2;
 3/5=16,6=1,7=10,11=2,16=1,25=1,30=1,71=2,74=-5,140=1/1,2,3;
 4//1;
 5/5=2,38=5/2;
 8/6=4,10=90,11=11/1;
 11/6=1,8=1,9=11,15=111,16=1/1,2,10;
 10/6=1,13=1/2;
 6/7=2,8=2,9=2,10=2,28=1/1;
 7/10=1,18=20,25=1/1,2,3,16;
 1/5=1,10=4,11=1,14=-1,18=20,26=3/3(2);
 2/9=110/2;
 99//99;
 2/9=110/2;
 3/5=16,6=1,7=10,11=2,16=1,25=1,30=1,71=1,74=-5/1,2,3;
 4/5=5,16=3,69=1/1;
 5/5=2,38=5/2;
 7//1,2,3,16;
 1/5=1,11=1,14=-1,18=20,26=3/3(-5);
 2/9=110/2;
 6/7=2,8=2,9=2,10=2,19=2,28=1/1;
 99/9=1/99;
 ------------------
 Ts624Cl-aug-ccpvtz
 ------------------
 Symbolic Z-matrix:
 Charge =  0 Multiplicity = 1
 C                     0.88456   0.11663   0.41891 
 C                    -0.39856   2.08642  -0.60959 
 H                    -1.16612   2.27151  -1.36713 
 H                    -0.77958   2.23626   0.40602 
 H                     0.47888   2.71442  -0.79914 
 C                     2.12077   0.93679   0.59068 
 H                     2.88275   0.36133   1.14581 
 H                     2.57087   1.21375  -0.37438 
 H                     1.92442   1.84967   1.16978 
 O                     0.01831   0.71086  -0.79507 
 O                    -1.76363  -0.8697   -0.10176 
 C                    -3.04071  -0.26804   0.23386 
 H                    -3.56304  -0.12891  -0.71933 
 H                    -3.57601  -0.99358   0.85919 
 H                    -2.90073   0.67793   0.76431 
 H                    -1.12805  -0.88883   0.81811 
 H                    -1.03451  -0.03214  -0.7197 
 Cl                    1.32383  -1.44391  -0.5023 
 O                     0.04404  -0.08688   1.34089 
 
 Add virtual bond connecting atoms H16        and O11        Dist= 2.11D+00.
 Add virtual bond connecting atoms H17        and O11        Dist= 2.40D+00.
 Add virtual bond connecting atoms H17        and O10        Dist= 2.44D+00.
 Add virtual bond connecting atoms C1         and O10        Dist= 3.03D+00.
 Add virtual bond connecting atoms O19        and H16        Dist= 2.86D+00.

 GradGradGradGradGradGradGradGradGradGradGradGradGradGradGradGradGradGrad
 Berny optimization.
 Initialization pass.
                           ----------------------------
                           !    Initial Parameters    !
                           ! (Angstroms and Degrees)  !
 --------------------------                            --------------------------
 ! Name  Definition              Value          Derivative Info.                !
 --------------------------------------------------------------------------------
 ! R1    R(1,6)                  1.4934         calculate D2E/DX2 analytically  !
 ! R2    R(1,10)                 1.6054         calculate D2E/DX2 analytically  !
 ! R3    R(1,18)                 1.8646         calculate D2E/DX2 analytically  !
 ! R4    R(1,19)                 1.2641         calculate D2E/DX2 analytically  !
 ! R5    R(2,3)                  1.0942         calculate D2E/DX2 analytically  !
 ! R6    R(2,4)                  1.095          calculate D2E/DX2 analytically  !
 ! R7    R(2,5)                  1.0955         calculate D2E/DX2 analytically  !
 ! R8    R(2,10)                 1.4493         calculate D2E/DX2 analytically  !
 ! R9    R(6,7)                  1.1045         calculate D2E/DX2 analytically  !
 ! R10   R(6,8)                  1.1003         calculate D2E/DX2 analytically  !
 ! R11   R(6,9)                  1.0988         calculate D2E/DX2 analytically  !
 ! R12   R(10,17)                1.2908         calculate D2E/DX2 analytically  !
 ! R13   R(11,12)                1.4511         calculate D2E/DX2 analytically  !
 ! R14   R(11,16)                1.1182         calculate D2E/DX2 analytically  !
 ! R15   R(11,17)                1.2708         calculate D2E/DX2 analytically  !
 ! R16   R(12,13)                1.0958         calculate D2E/DX2 analytically  !
 ! R17   R(12,14)                1.0973         calculate D2E/DX2 analytically  !
 ! R18   R(12,15)                1.0935         calculate D2E/DX2 analytically  !
 ! R19   R(16,19)                1.5133         calculate D2E/DX2 analytically  !
 ! A1    A(6,1,10)             109.29           calculate D2E/DX2 analytically  !
 ! A2    A(6,1,18)             108.7494         calculate D2E/DX2 analytically  !
 ! A3    A(6,1,19)             123.7047         calculate D2E/DX2 analytically  !
 ! A4    A(10,1,18)             93.6298         calculate D2E/DX2 analytically  !
 ! A5    A(10,1,19)            104.6163         calculate D2E/DX2 analytically  !
 ! A6    A(18,1,19)            112.4725         calculate D2E/DX2 analytically  !
 ! A7    A(3,2,4)              112.0175         calculate D2E/DX2 analytically  !
 ! A8    A(3,2,5)              110.1863         calculate D2E/DX2 analytically  !
 ! A9    A(3,2,10)             105.8855         calculate D2E/DX2 analytically  !
 ! A10   A(4,2,5)              111.1443         calculate D2E/DX2 analytically  !
 ! A11   A(4,2,10)             110.4062         calculate D2E/DX2 analytically  !
 ! A12   A(5,2,10)             106.9508         calculate D2E/DX2 analytically  !
 ! A13   A(1,6,7)              110.0441         calculate D2E/DX2 analytically  !
 ! A14   A(1,6,8)              112.0838         calculate D2E/DX2 analytically  !
 ! A15   A(1,6,9)              111.652          calculate D2E/DX2 analytically  !
 ! A16   A(7,6,8)              106.8439         calculate D2E/DX2 analytically  !
 ! A17   A(7,6,9)              106.9335         calculate D2E/DX2 analytically  !
 ! A18   A(8,6,9)              109.0408         calculate D2E/DX2 analytically  !
 ! A19   A(1,10,2)             114.1896         calculate D2E/DX2 analytically  !
 ! A20   A(1,10,17)            100.5379         calculate D2E/DX2 analytically  !
 ! A21   A(2,10,17)            107.7134         calculate D2E/DX2 analytically  !
 ! A22   A(12,11,16)           108.4848         calculate D2E/DX2 analytically  !
 ! A23   A(12,11,17)           110.1294         calculate D2E/DX2 analytically  !
 ! A24   A(16,11,17)            94.8855         calculate D2E/DX2 analytically  !
 ! A25   A(11,12,13)           105.722          calculate D2E/DX2 analytically  !
 ! A26   A(11,12,14)           106.6785         calculate D2E/DX2 analytically  !
 ! A27   A(11,12,15)           110.9905         calculate D2E/DX2 analytically  !
 ! A28   A(13,12,14)           110.3134         calculate D2E/DX2 analytically  !
 ! A29   A(13,12,15)           111.9091         calculate D2E/DX2 analytically  !
 ! A30   A(14,12,15)           110.9771         calculate D2E/DX2 analytically  !
 ! A31   A(11,16,19)           135.6682         calculate D2E/DX2 analytically  !
 ! A32   A(10,17,11)           151.1314         calculate D2E/DX2 analytically  !
 ! A33   A(1,19,16)            110.3856         calculate D2E/DX2 analytically  !
 ! D1    D(10,1,6,7)          -159.762          calculate D2E/DX2 analytically  !
 ! D2    D(10,1,6,8)           -41.0181         calculate D2E/DX2 analytically  !
 ! D3    D(10,1,6,9)            81.6562         calculate D2E/DX2 analytically  !
 ! D4    D(18,1,6,7)           -58.8302         calculate D2E/DX2 analytically  !
 ! D5    D(18,1,6,8)            59.9137         calculate D2E/DX2 analytically  !
 ! D6    D(18,1,6,9)          -177.412          calculate D2E/DX2 analytically  !
 ! D7    D(19,1,6,7)            76.5385         calculate D2E/DX2 analytically  !
 ! D8    D(19,1,6,8)          -164.7176         calculate D2E/DX2 analytically  !
 ! D9    D(19,1,6,9)           -42.0433         calculate D2E/DX2 analytically  !
 ! D10   D(6,1,10,2)           -59.7896         calculate D2E/DX2 analytically  !
 ! D11   D(6,1,10,17)         -174.8027         calculate D2E/DX2 analytically  !
 ! D12   D(18,1,10,2)         -171.101          calculate D2E/DX2 analytically  !
 ! D13   D(18,1,10,17)          73.8859         calculate D2E/DX2 analytically  !
 ! D14   D(19,1,10,2)           74.5458         calculate D2E/DX2 analytically  !
 ! D15   D(19,1,10,17)         -40.4674         calculate D2E/DX2 analytically  !
 ! D16   D(6,1,19,16)          176.7496         calculate D2E/DX2 analytically  !
 ! D17   D(10,1,19,16)          50.9937         calculate D2E/DX2 analytically  !
 ! D18   D(18,1,19,16)         -49.2991         calculate D2E/DX2 analytically  !
 ! D19   D(3,2,10,1)          -166.3283         calculate D2E/DX2 analytically  !
 ! D20   D(3,2,10,17)          -55.5997         calculate D2E/DX2 analytically  !
 ! D21   D(4,2,10,1)           -44.879          calculate D2E/DX2 analytically  !
 ! D22   D(4,2,10,17)           65.8496         calculate D2E/DX2 analytically  !
 ! D23   D(5,2,10,1)            76.1679         calculate D2E/DX2 analytically  !
 ! D24   D(5,2,10,17)         -173.1035         calculate D2E/DX2 analytically  !
 ! D25   D(1,10,17,11)          13.1394         calculate D2E/DX2 analytically  !
 ! D26   D(2,10,17,11)        -106.6587         calculate D2E/DX2 analytically  !
 ! D27   D(16,11,12,13)        171.4295         calculate D2E/DX2 analytically  !
 ! D28   D(16,11,12,14)        -71.1302         calculate D2E/DX2 analytically  !
 ! D29   D(16,11,12,15)         49.8827         calculate D2E/DX2 analytically  !
 ! D30   D(17,11,12,13)         68.8279         calculate D2E/DX2 analytically  !
 ! D31   D(17,11,12,14)       -173.7318         calculate D2E/DX2 analytically  !
 ! D32   D(17,11,12,15)        -52.7189         calculate D2E/DX2 analytically  !
 ! D33   D(12,11,16,19)       -103.5454         calculate D2E/DX2 analytically  !
 ! D34   D(17,11,16,19)          9.581          calculate D2E/DX2 analytically  !
 ! D35   D(12,11,17,10)        114.9612         calculate D2E/DX2 analytically  !
 ! D36   D(16,11,17,10)          3.2308         calculate D2E/DX2 analytically  !
 ! D37   D(11,16,19,1)         -43.6502         calculate D2E/DX2 analytically  !
 --------------------------------------------------------------------------------
 Trust Radius=3.00D-01 FncErr=1.00D-07 GrdErr=1.00D-06
 Number of steps in this run=     99 maximum allowed number of steps=    114.
 Search for a saddle point of order  1.
 GradGradGradGradGradGradGradGradGradGradGradGradGradGradGradGradGradGrad

                          Input orientation:                          
 ---------------------------------------------------------------------
 Center     Atomic      Atomic             Coordinates (Angstroms)
 Number     Number       Type             X           Y           Z
 ---------------------------------------------------------------------
      1          6           0        0.884558    0.116628    0.418907
      2          6           0       -0.398563    2.086422   -0.609586
      3          1           0       -1.166118    2.271506   -1.367134
      4          1           0       -0.779578    2.236265    0.406015
      5          1           0        0.478877    2.714415   -0.799143
      6          6           0        2.120771    0.936787    0.590683
      7          1           0        2.882752    0.361331    1.145809
      8          1           0        2.570868    1.213746   -0.374381
      9          1           0        1.924419    1.849674    1.169780
     10          8           0        0.018310    0.710864   -0.795072
     11          8           0       -1.763632   -0.869703   -0.101762
     12          6           0       -3.040711   -0.268041    0.233857
     13          1           0       -3.563040   -0.128910   -0.719331
     14          1           0       -3.576005   -0.993577    0.859193
     15          1           0       -2.900725    0.677932    0.764309
     16          1           0       -1.128054   -0.888828    0.818105
     17          1           0       -1.034514   -0.032144   -0.719698
     18         17           0        1.323828   -1.443907   -0.502301
     19          8           0        0.044036   -0.086882    1.340889
 ---------------------------------------------------------------------
                    Distance matrix (angstroms):
                    1          2          3          4          5
     1  C    0.000000
     2  C    2.565986   0.000000
     3  H    3.469685   1.094201   0.000000
     4  H    2.694880   1.095021   1.815134   0.000000
     5  H    2.897709   1.095540   1.795770   1.806860   0.000000
     6  C    1.493449   3.018170   4.051933   3.183515   2.790590
     7  H    2.140338   4.101753   5.133907   4.180351   3.885673
     8  H    2.162548   3.103934   4.008675   3.588879   2.609379
     9  H    2.156054   2.935718   4.020609   2.836263   2.591144
    10  O    1.605381   1.449258   2.041012   2.099067   2.055810
    11  O    2.873474   3.295447   3.438805   3.297459   4.284984
    12  C    3.948411   3.638109   3.539289   3.378448   4.727540
    13  H    4.597500   3.864409   3.453532   3.822057   4.942465
    14  H    4.617687   4.662600   4.628699   4.296191   5.739456
    15  H    3.842230   3.183119   3.176695   2.656321   4.244214
    16  H    2.284931   3.379729   3.842451   3.171350   4.263928
    17  H    2.236379   2.214696   2.396518   2.545172   3.136917
    18  Cl   1.864632   3.929550   4.555443   4.335092   4.253669
    19  O    1.264098   2.953557   3.789440   2.636160   3.551913
                    6          7          8          9         10
     6  C    0.000000
     7  H    1.104504   0.000000
     8  H    1.100292   1.770554   0.000000
     9  H    1.098758   1.770351   1.790736   0.000000
    10  O    2.528181   3.477675   2.635417   2.964925   0.000000
    11  O    4.339524   4.965960   4.816946   4.755371   2.480764
    12  C    5.312234   6.026208   5.835706   5.478429   3.372619
    13  H    5.929381   6.728099   6.288604   6.131537   3.679270
    14  H    6.020935   6.605563   6.646655   6.199613   4.308226
    15  H    5.031160   5.804686   5.614449   4.981907   3.309610
    16  H    3.733558   4.213888   4.418695   4.115903   2.544701
    17  H    3.551302   4.356594   3.830178   3.983296   1.290806
    18  Cl   2.738145   2.899206   2.938468   3.742224   2.536362
    19  O    2.433831   2.880496   3.319437   2.704694   2.280217
                   11         12         13         14         15
    11  O    0.000000
    12  C    1.451058   0.000000
    13  H    2.041577   1.095788   0.000000
    14  H    2.055110   1.097264   1.799876   0.000000
    15  H    2.106712   1.093545   1.814068   1.805256   0.000000
    16  H    1.118249   2.094034   2.978312   2.450536   2.366431
    17  H    1.270812   2.233773   2.530377   3.142678   2.487816
    18  Cl   3.165841   4.579715   5.065353   5.105372   4.894216
    19  O    2.441662   3.282378   4.154187   3.762821   3.096611
                   16         17         18         19
    16  H    0.000000
    17  H    1.762809   0.000000
    18  Cl   2.839597   2.757193   0.000000
    19  O    1.513346   2.326432   2.622353   0.000000
 Stoichiometry    C4H11ClO3
 Framework group  C1[X(C4H11ClO3)]
 Deg. of freedom    51
 Full point group                 C1      NOp   1
 Largest Abelian subgroup         C1      NOp   1
 Largest concise Abelian subgroup C1      NOp   1
                         Standard orientation:                         
 ---------------------------------------------------------------------
 Center     Atomic      Atomic             Coordinates (Angstroms)
 Number     Number       Type             X           Y           Z
 ---------------------------------------------------------------------
      1          6           0        0.884558    0.116628    0.418907
      2          6           0       -0.398563    2.086422   -0.609586
      3          1           0       -1.166118    2.271506   -1.367134
      4          1           0       -0.779578    2.236265    0.406015
      5          1           0        0.478877    2.714415   -0.799143
      6          6           0        2.120771    0.936787    0.590683
      7          1           0        2.882752    0.361331    1.145809
      8          1           0        2.570868    1.213746   -0.374381
      9          1           0        1.924419    1.849674    1.169780
     10          8           0        0.018310    0.710864   -0.795072
     11          8           0       -1.763632   -0.869703   -0.101762
     12          6           0       -3.040711   -0.268041    0.233857
     13          1           0       -3.563040   -0.128910   -0.719331
     14          1           0       -3.576005   -0.993577    0.859193
     15          1           0       -2.900725    0.677932    0.764309
     16          1           0       -1.128054   -0.888828    0.818105
     17          1           0       -1.034514   -0.032144   -0.719698
     18         17           0        1.323828   -1.443907   -0.502301
     19          8           0        0.044036   -0.086882    1.340889
 ---------------------------------------------------------------------
 Rotational constants (GHZ):      2.0335794      1.2248437      0.9612350
 Standard basis: Aug-CC-pVTZ (5D, 7F)
 There are   719 symmetry adapted cartesian basis functions of A   symmetry.
 There are   625 symmetry adapted basis functions of A   symmetry.
   625 basis functions,   915 primitive gaussians,   719 cartesian basis functions
    38 alpha electrons       38 beta electrons
       nuclear repulsion energy       523.1875724889 Hartrees.
 NAtoms=   19 NActive=   19 NUniq=   19 SFac= 1.00D+00 NAtFMM=   60 NAOKFM=F Big=F
 Integral buffers will be    131072 words long.
 Raffenetti 2 integral format.
 Two-electron integral symmetry is turned on.
 One-electron integrals computed using PRISM.
 PrsmSu:  requested number of processors reduced to:   3 ShMem   1 Linda.
 NBasis=   625 RedAO= T EigKep=  6.38D-06  NBF=   625
 NBsUse=   625 1.00D-06 EigRej= -1.00D+00 NBFU=   625
 ExpMin= 2.53D-02 ExpMax= 4.56D+05 ExpMxC= 1.44D+03 IAcc=3 IRadAn=         5 AccDes= 0.00D+00
 Harris functional with IExCor=  402 and IRadAn=       5 diagonalized for initial guess.
 HarFok:  IExCor=  402 AccDes= 0.00D+00 IRadAn=         5 IDoV= 1 UseB2=F ITyADJ=14
 ICtDFT=  3500011 ScaDFX=  1.000000  1.000000  1.000000  1.000000
 FoFCou: FMM=F IPFlag=           0 FMFlag=      100000 FMFlg1=           0
         NFxFlg=           0 DoJE=T BraDBF=F KetDBF=T FulRan=T
         wScrn=  0.000000 ICntrl=     500 IOpCl=  0 I1Cent=   200000004 NGrid=           0
         NMat0=    1 NMatS0=      1 NMatT0=    0 NMatD0=    1 NMtDS0=    0 NMtDT0=    0
 Petite list used in FoFCou.
 Requested convergence on RMS density matrix=1.00D-08 within 128 cycles.
 Requested convergence on MAX density matrix=1.00D-06.
 Requested convergence on             energy=1.00D-06.
 No special actions if energy rises.
 SCF Done:  E(RB3LYP) =  -845.053299526     A.U. after   12 cycles
            NFock= 12  Conv=0.92D-08     -V/T= 2.0045
 DoSCS=F DFT=T ScalE2(SS,OS)=  1.000000  1.000000
 Range of M.O.s used for correlation:     1   625
 NBasis=   625 NAE=    38 NBE=    38 NFC=     0 NFV=     0
 NROrb=    625 NOA=    38 NOB=    38 NVA=   587 NVB=   587

 **** Warning!!: The largest alpha MO coefficient is  0.69395730D+02

 PrsmSu:  requested number of processors reduced to:   3 ShMem   1 Linda.
 PrsmSu:  requested number of processors reduced to:   1 ShMem   1 Linda.
 Symmetrizing basis deriv contribution to polar:
 IMax=3 JMax=2 DiffMx= 0.00D+00
 G2DrvN: will do     1 centers at a time, making   20 passes.
 Estimated number of processors is:    5
 Calling FoFCou, ICntrl=  3107 FMM=F I1Cent=   0 AccDes= 0.00D+00.
 CoulSu:  requested number of processors reduced to:   6 ShMem   1 Linda.
 Calling FoFCou, ICntrl=  3107 FMM=F I1Cent=   0 AccDes= 0.00D+00.
 CoulSu:  requested number of processors reduced to:   5 ShMem   1 Linda.
 Calling FoFCou, ICntrl=  3107 FMM=F I1Cent=   0 AccDes= 0.00D+00.
 CoulSu:  requested number of processors reduced to:   5 ShMem   1 Linda.
 Calling FoFCou, ICntrl=  3107 FMM=F I1Cent=   0 AccDes= 0.00D+00.
 CoulSu:  requested number of processors reduced to:   5 ShMem   1 Linda.
 Calling FoFCou, ICntrl=  3107 FMM=F I1Cent=   0 AccDes= 0.00D+00.
 CoulSu:  requested number of processors reduced to:   5 ShMem   1 Linda.
 Calling FoFCou, ICntrl=  3107 FMM=F I1Cent=   0 AccDes= 0.00D+00.
 CoulSu:  requested number of processors reduced to:   5 ShMem   1 Linda.
 Calling FoFCou, ICntrl=  3107 FMM=F I1Cent=   0 AccDes= 0.00D+00.
 CoulSu:  requested number of processors reduced to:   5 ShMem   1 Linda.
 Calling FoFCou, ICntrl=  3107 FMM=F I1Cent=   0 AccDes= 0.00D+00.
 CoulSu:  requested number of processors reduced to:   5 ShMem   1 Linda.
 Calling FoFCou, ICntrl=  3107 FMM=F I1Cent=   0 AccDes= 0.00D+00.
 CoulSu:  requested number of processors reduced to:   5 ShMem   1 Linda.
 Calling FoFCou, ICntrl=  3107 FMM=F I1Cent=   0 AccDes= 0.00D+00.
 CoulSu:  requested number of processors reduced to:   5 ShMem   1 Linda.
 Calling FoFCou, ICntrl=  3107 FMM=F I1Cent=   0 AccDes= 0.00D+00.
 CoulSu:  requested number of processors reduced to:   5 ShMem   1 Linda.
 Calling FoFCou, ICntrl=  3107 FMM=F I1Cent=   0 AccDes= 0.00D+00.
 CoulSu:  requested number of processors reduced to:   5 ShMem   1 Linda.
 Calling FoFCou, ICntrl=  3107 FMM=F I1Cent=   0 AccDes= 0.00D+00.
 CoulSu:  requested number of processors reduced to:   5 ShMem   1 Linda.
 Calling FoFCou, ICntrl=  3107 FMM=F I1Cent=   0 AccDes= 0.00D+00.
 CoulSu:  requested number of processors reduced to:   5 ShMem   1 Linda.
 Calling FoFCou, ICntrl=  3107 FMM=F I1Cent=   0 AccDes= 0.00D+00.
 CoulSu:  requested number of processors reduced to:   5 ShMem   1 Linda.
 Calling FoFCou, ICntrl=  3107 FMM=F I1Cent=   0 AccDes= 0.00D+00.
 CoulSu:  requested number of processors reduced to:   5 ShMem   1 Linda.
 Calling FoFCou, ICntrl=  3107 FMM=F I1Cent=   0 AccDes= 0.00D+00.
 CoulSu:  requested number of processors reduced to:   5 ShMem   1 Linda.
 Calling FoFCou, ICntrl=  3107 FMM=F I1Cent=   0 AccDes= 0.00D+00.
 CoulSu:  requested number of processors reduced to:   5 ShMem   1 Linda.
 Calling FoFCou, ICntrl=  3107 FMM=F I1Cent=   0 AccDes= 0.00D+00.
 CoulSu:  requested number of processors reduced to:   5 ShMem   1 Linda.
 Calling FoFCou, ICntrl=  3107 FMM=F I1Cent=   0 AccDes= 0.00D+00.
 CoulSu:  requested number of processors reduced to:   5 ShMem   1 Linda.
 End of G2Drv F.D. properties file   721 does not exist.
 End of G2Drv F.D. properties file   722 does not exist.
 End of G2Drv F.D. properties file   788 does not exist.
          IDoAtm=1111111111111111111
          Differentiating once with respect to nuclear coordinates.
          There are    60 degrees of freedom in the 1st order CPHF.  IDoFFX=6 NUNeed=     0.
     57 vectors produced by pass  0 Test12= 3.72D-14 1.67D-09 XBig12= 1.93D-01 9.23D-02.
 AX will form     5 AO Fock derivatives at one time.
     57 vectors produced by pass  1 Test12= 3.72D-14 1.67D-09 XBig12= 6.93D-02 3.62D-02.
     54 vectors produced by pass  2 Test12= 3.72D-14 1.67D-09 XBig12= 9.27D-04 3.41D-03.
     54 vectors produced by pass  3 Test12= 3.72D-14 1.67D-09 XBig12= 4.48D-06 2.15D-04.
     54 vectors produced by pass  4 Test12= 3.72D-14 1.67D-09 XBig12= 1.58D-08 1.43D-05.
     54 vectors produced by pass  5 Test12= 3.72D-14 1.67D-09 XBig12= 3.41D-11 6.60D-07.
     41 vectors produced by pass  6 Test12= 3.72D-14 1.67D-09 XBig12= 1.64D-13 2.35D-08.
     13 vectors produced by pass  7 Test12= 3.72D-14 1.67D-09 XBig12= 6.25D-15 4.78D-09.
     10 vectors produced by pass  8 Test12= 3.72D-14 1.67D-09 XBig12= 1.11D-14 6.69D-09.
      8 vectors produced by pass  9 Test12= 3.72D-14 1.67D-09 XBig12= 7.12D-15 4.72D-09.
      7 vectors produced by pass 10 Test12= 3.72D-14 1.67D-09 XBig12= 7.33D-15 5.10D-09.
      7 vectors produced by pass 11 Test12= 3.72D-14 1.67D-09 XBig12= 7.42D-15 5.58D-09.
      6 vectors produced by pass 12 Test12= 3.72D-14 1.67D-09 XBig12= 4.21D-15 3.97D-09.
      6 vectors produced by pass 13 Test12= 3.72D-14 1.67D-09 XBig12= 8.11D-15 5.19D-09.
      6 vectors produced by pass 14 Test12= 3.72D-14 1.67D-09 XBig12= 3.40D-15 3.53D-09.
      5 vectors produced by pass 15 Test12= 3.72D-14 1.67D-09 XBig12= 5.86D-15 4.90D-09.
      2 vectors produced by pass 16 Test12= 3.72D-14 1.67D-09 XBig12= 3.22D-15 3.33D-09.
 InvSVY:  IOpt=1 It=  1 EMax= 6.11D-16
 Solved reduced A of dimension   441 with    60 vectors.
 End of Minotr F.D. properties file   721 does not exist.
 End of Minotr F.D. properties file   722 does not exist.
 End of Minotr F.D. properties file   788 does not exist.

 **********************************************************************

            Population analysis using the SCF density.

 **********************************************************************

 Orbital symmetries:
       Occupied  (A) (A) (A) (A) (A) (A) (A) (A) (A) (A) (A) (A)
                 (A) (A) (A) (A) (A) (A) (A) (A) (A) (A) (A) (A)
                 (A) (A) (A) (A) (A) (A) (A) (A) (A) (A) (A) (A)
                 (A) (A)
       Virtual   (A) (A) (A) (A) (A) (A) (A) (A) (A) (A) (A) (A)
                 (A) (A) (A) (A) (A) (A) (A) (A) (A) (A) (A) (A)
                 (A) (A) (A) (A) (A) (A) (A) (A) (A) (A) (A) (A)
                 (A) (A) (A) (A) (A) (A) (A) (A) (A) (A) (A) (A)
                 (A) (A) (A) (A) (A) (A) (A) (A) (A) (A) (A) (A)
                 (A) (A) (A) (A) (A) (A) (A) (A) (A) (A) (A) (A)
                 (A) (A) (A) (A) (A) (A) (A) (A) (A) (A) (A) (A)
                 (A) (A) (A) (A) (A) (A) (A) (A) (A) (A) (A) (A)
                 (A) (A) (A) (A) (A) (A) (A) (A) (A) (A) (A) (A)
                 (A) (A) (A) (A) (A) (A) (A) (A) (A) (A) (A) (A)
                 (A) (A) (A) (A) (A) (A) (A) (A) (A) (A) (A) (A)
                 (A) (A) (A) (A) (A) (A) (A) (A) (A) (A) (A) (A)
                 (A) (A) (A) (A) (A) (A) (A) (A) (A) (A) (A) (A)
                 (A) (A) (A) (A) (A) (A) (A) (A) (A) (A) (A) (A)
                 (A) (A) (A) (A) (A) (A) (A) (A) (A) (A) (A) (A)
                 (A) (A) (A) (A) (A) (A) (A) (A) (A) (A) (A) (A)
                 (A) (A) (A) (A) (A) (A) (A) (A) (A) (A) (A) (A)
                 (A) (A) (A) (A) (A) (A) (A) (A) (A) (A) (A) (A)
                 (A) (A) (A) (A) (A) (A) (A) (A) (A) (A) (A) (A)
                 (A) (A) (A) (A) (A) (A) (A) (A) (A) (A) (A) (A)
                 (A) (A) (A) (A) (A) (A) (A) (A) (A) (A) (A) (A)
                 (A) (A) (A) (A) (A) (A) (A) (A) (A) (A) (A) (A)
                 (A) (A) (A) (A) (A) (A) (A) (A) (A) (A) (A) (A)
                 (A) (A) (A) (A) (A) (A) (A) (A) (A) (A) (A) (A)
                 (A) (A) (A) (A) (A) (A) (A) (A) (A) (A) (A) (A)
                 (A) (A) (A) (A) (A) (A) (A) (A) (A) (A) (A) (A)
                 (A) (A) (A) (A) (A) (A) (A) (A) (A) (A) (A) (A)
                 (A) (A) (A) (A) (A) (A) (A) (A) (A) (A) (A) (A)
                 (A) (A) (A) (A) (A) (A) (A) (A) (A) (A) (A) (A)
                 (A) (A) (A) (A) (A) (A) (A) (A) (A) (A) (A) (A)
                 (A) (A) (A) (A) (A) (A) (A) (A) (A) (A) (A) (A)
                 (A) (A) (A) (A) (A) (A) (A) (A) (A) (A) (A) (A)
                 (A) (A) (A) (A) (A) (A) (A) (A) (A) (A) (A) (A)
                 (A) (A) (A) (A) (A) (A) (A) (A) (A) (A) (A) (A)
                 (A) (A) (A) (A) (A) (A) (A) (A) (A) (A) (A) (A)
                 (A) (A) (A) (A) (A) (A) (A) (A) (A) (A) (A) (A)
                 (A) (A) (A) (A) (A) (A) (A) (A) (A) (A) (A) (A)
                 (A) (A) (A) (A) (A) (A) (A) (A) (A) (A) (A) (A)
                 (A) (A) (A) (A) (A) (A) (A) (A) (A) (A) (A) (A)
                 (A) (A) (A) (A) (A) (A) (A) (A) (A) (A) (A) (A)
                 (A) (A) (A) (A) (A) (A) (A) (A) (A) (A) (A) (A)
                 (A) (A) (A) (A) (A) (A) (A) (A) (A) (A) (A) (A)
                 (A) (A) (A) (A) (A) (A) (A) (A) (A) (A) (A) (A)
                 (A) (A) (A) (A) (A) (A) (A) (A) (A) (A) (A) (A)
                 (A) (A) (A) (A) (A) (A) (A) (A) (A) (A) (A) (A)
                 (A) (A) (A) (A) (A) (A) (A) (A) (A) (A) (A) (A)
                 (A) (A) (A) (A) (A) (A) (A) (A) (A) (A) (A) (A)
                 (A) (A) (A) (A) (A) (A) (A) (A) (A) (A) (A) (A)
                 (A) (A) (A) (A) (A) (A) (A) (A) (A) (A) (A)
 The electronic state is 1-A.
 Alpha  occ. eigenvalues -- -101.51715 -19.17869 -19.17364 -19.09326 -10.32525
 Alpha  occ. eigenvalues --  -10.24588 -10.24098 -10.18437  -9.42307  -7.18517
 Alpha  occ. eigenvalues --   -7.17769  -7.17752  -1.08277  -1.04017  -1.00050
 Alpha  occ. eigenvalues --   -0.81172  -0.74377  -0.71563  -0.70274  -0.57434
 Alpha  occ. eigenvalues --   -0.54906  -0.53800  -0.49842  -0.48202  -0.47070
 Alpha  occ. eigenvalues --   -0.46111  -0.44771  -0.43621  -0.41847  -0.40683
 Alpha  occ. eigenvalues --   -0.38664  -0.37385  -0.35956  -0.30987  -0.29634
 Alpha  occ. eigenvalues --   -0.28675  -0.26908  -0.26307
 Alpha virt. eigenvalues --   -0.02219  -0.00525   0.00086   0.00402   0.01579
 Alpha virt. eigenvalues --    0.01902   0.02057   0.02718   0.03479   0.04013
 Alpha virt. eigenvalues --    0.04915   0.05106   0.05242   0.06073   0.06311
 Alpha virt. eigenvalues --    0.06490   0.07499   0.07723   0.08031   0.08379
 Alpha virt. eigenvalues --    0.09132   0.09297   0.09424   0.10007   0.10166
 Alpha virt. eigenvalues --    0.10604   0.10656   0.11261   0.11528   0.12265
 Alpha virt. eigenvalues --    0.12466   0.12975   0.13318   0.14057   0.14577
 Alpha virt. eigenvalues --    0.15275   0.15948   0.16132   0.16452   0.17342
 Alpha virt. eigenvalues --    0.18157   0.18494   0.19662   0.19855   0.20401
 Alpha virt. eigenvalues --    0.20450   0.21109   0.22011   0.22304   0.22840
 Alpha virt. eigenvalues --    0.23568   0.24513   0.24873   0.25008   0.25176
 Alpha virt. eigenvalues --    0.25992   0.26143   0.26790   0.27182   0.27762
 Alpha virt. eigenvalues --    0.27787   0.28596   0.28837   0.29285   0.29549
 Alpha virt. eigenvalues --    0.30384   0.30606   0.30793   0.31246   0.31800
 Alpha virt. eigenvalues --    0.32352   0.33126   0.33395   0.33536   0.33782
 Alpha virt. eigenvalues --    0.34571   0.34869   0.35403   0.35848   0.36143
 Alpha virt. eigenvalues --    0.36647   0.37233   0.37814   0.38697   0.38954
 Alpha virt. eigenvalues --    0.39634   0.40171   0.40668   0.41349   0.41599
 Alpha virt. eigenvalues --    0.41757   0.42453   0.42874   0.43620   0.43835
 Alpha virt. eigenvalues --    0.44193   0.45031   0.45605   0.45984   0.46190
 Alpha virt. eigenvalues --    0.47458   0.47691   0.48550   0.49086   0.49435
 Alpha virt. eigenvalues --    0.50405   0.51146   0.51417   0.52409   0.52485
 Alpha virt. eigenvalues --    0.53016   0.53996   0.54493   0.55829   0.56563
 Alpha virt. eigenvalues --    0.57910   0.57987   0.59170   0.59477   0.60345
 Alpha virt. eigenvalues --    0.60970   0.62005   0.62242   0.63896   0.65056
 Alpha virt. eigenvalues --    0.65575   0.66039   0.66735   0.67184   0.68306
 Alpha virt. eigenvalues --    0.68664   0.69184   0.69441   0.70098   0.70779
 Alpha virt. eigenvalues --    0.72128   0.72859   0.73083   0.73920   0.74567
 Alpha virt. eigenvalues --    0.75064   0.75550   0.76277   0.76937   0.77571
 Alpha virt. eigenvalues --    0.78367   0.79157   0.79346   0.79791   0.80306
 Alpha virt. eigenvalues --    0.80896   0.81587   0.81882   0.82723   0.82983
 Alpha virt. eigenvalues --    0.83299   0.83774   0.84470   0.85638   0.86094
 Alpha virt. eigenvalues --    0.86611   0.86984   0.87576   0.87739   0.89081
 Alpha virt. eigenvalues --    0.89770   0.90345   0.91896   0.92457   0.93123
 Alpha virt. eigenvalues --    0.93979   0.94358   0.94596   0.95541   0.95978
 Alpha virt. eigenvalues --    0.96645   0.97535   0.98276   0.98964   0.99590
 Alpha virt. eigenvalues --    0.99801   1.00035   1.00772   1.02472   1.02652
 Alpha virt. eigenvalues --    1.03725   1.04435   1.04873   1.05803   1.05989
 Alpha virt. eigenvalues --    1.06541   1.06983   1.07376   1.09173   1.09293
 Alpha virt. eigenvalues --    1.10751   1.11371   1.12465   1.12809   1.14074
 Alpha virt. eigenvalues --    1.14289   1.14600   1.15561   1.16980   1.18031
 Alpha virt. eigenvalues --    1.18674   1.19624   1.20612   1.20863   1.22282
 Alpha virt. eigenvalues --    1.22452   1.23337   1.24305   1.25642   1.26416
 Alpha virt. eigenvalues --    1.26867   1.28066   1.28290   1.29521   1.29863
 Alpha virt. eigenvalues --    1.30409   1.31424   1.32197   1.33109   1.34438
 Alpha virt. eigenvalues --    1.34955   1.35755   1.36955   1.37452   1.39247
 Alpha virt. eigenvalues --    1.40299   1.40903   1.41546   1.42107   1.42965
 Alpha virt. eigenvalues --    1.43883   1.44505   1.45260   1.45624   1.46516
 Alpha virt. eigenvalues --    1.47220   1.48196   1.48759   1.49189   1.49835
 Alpha virt. eigenvalues --    1.51136   1.51725   1.52284   1.53114   1.54330
 Alpha virt. eigenvalues --    1.54854   1.55732   1.55894   1.56718   1.57354
 Alpha virt. eigenvalues --    1.57971   1.58431   1.58947   1.59961   1.60288
 Alpha virt. eigenvalues --    1.61179   1.61451   1.62960   1.63329   1.64461
 Alpha virt. eigenvalues --    1.65296   1.66139   1.67019   1.68087   1.68716
 Alpha virt. eigenvalues --    1.69534   1.71053   1.71836   1.72762   1.73270
 Alpha virt. eigenvalues --    1.74288   1.74667   1.76241   1.76453   1.77540
 Alpha virt. eigenvalues --    1.78138   1.79610   1.79773   1.82020   1.84104
 Alpha virt. eigenvalues --    1.85297   1.85699   1.87625   1.88024   1.89123
 Alpha virt. eigenvalues --    1.90302   1.91044   1.92799   1.94835   1.95730
 Alpha virt. eigenvalues --    1.96063   1.96509   1.97997   1.98673   1.99432
 Alpha virt. eigenvalues --    2.00156   2.01015   2.01845   2.02817   2.04562
 Alpha virt. eigenvalues --    2.05113   2.06229   2.07490   2.09652   2.10292
 Alpha virt. eigenvalues --    2.10994   2.12493   2.14287   2.16698   2.20265
 Alpha virt. eigenvalues --    2.20568   2.23406   2.25926   2.27306   2.30835
 Alpha virt. eigenvalues --    2.33006   2.33711   2.36432   2.37344   2.38466
 Alpha virt. eigenvalues --    2.39539   2.40771   2.43413   2.44005   2.47426
 Alpha virt. eigenvalues --    2.48794   2.49604   2.51075   2.52843   2.53258
 Alpha virt. eigenvalues --    2.54363   2.55472   2.57149   2.60094   2.62346
 Alpha virt. eigenvalues --    2.62552   2.66457   2.67709   2.68856   2.69436
 Alpha virt. eigenvalues --    2.71605   2.72749   2.73640   2.75739   2.79025
 Alpha virt. eigenvalues --    2.79957   2.81800   2.82266   2.83932   2.86856
 Alpha virt. eigenvalues --    2.87197   2.88524   2.89640   2.92839   2.93587
 Alpha virt. eigenvalues --    2.94648   2.95917   2.97382   3.00381   3.01744
 Alpha virt. eigenvalues --    3.03064   3.03975   3.05905   3.06863   3.09005
 Alpha virt. eigenvalues --    3.10191   3.12362   3.14099   3.16655   3.17189
 Alpha virt. eigenvalues --    3.18197   3.20659   3.20707   3.23504   3.25765
 Alpha virt. eigenvalues --    3.26463   3.28724   3.30246   3.33154   3.33577
 Alpha virt. eigenvalues --    3.33693   3.35341   3.36073   3.38030   3.38436
 Alpha virt. eigenvalues --    3.39605   3.40330   3.40793   3.42828   3.43859
 Alpha virt. eigenvalues --    3.45150   3.46745   3.47748   3.49211   3.50981
 Alpha virt. eigenvalues --    3.52691   3.53114   3.55321   3.55780   3.57331
 Alpha virt. eigenvalues --    3.58203   3.59426   3.60461   3.61899   3.63244
 Alpha virt. eigenvalues --    3.64140   3.65870   3.67108   3.69187   3.70451
 Alpha virt. eigenvalues --    3.71998   3.74279   3.75594   3.78213   3.78637
 Alpha virt. eigenvalues --    3.79368   3.82791   3.84119   3.84810   3.87031
 Alpha virt. eigenvalues --    3.87717   3.89366   3.89651   3.91209   3.92298
 Alpha virt. eigenvalues --    3.93226   3.94323   3.96040   3.97627   3.98519
 Alpha virt. eigenvalues --    4.00568   4.02192   4.04539   4.04742   4.07550
 Alpha virt. eigenvalues --    4.08605   4.09304   4.09828   4.12657   4.13036
 Alpha virt. eigenvalues --    4.14405   4.16564   4.19081   4.20362   4.21273
 Alpha virt. eigenvalues --    4.22690   4.22960   4.25725   4.27470   4.29997
 Alpha virt. eigenvalues --    4.33542   4.34094   4.35502   4.37131   4.37737
 Alpha virt. eigenvalues --    4.40540   4.41624   4.42596   4.43647   4.46405
 Alpha virt. eigenvalues --    4.47970   4.48946   4.49493   4.51269   4.52127
 Alpha virt. eigenvalues --    4.52581   4.53986   4.54730   4.58309   4.59092
 Alpha virt. eigenvalues --    4.59224   4.60756   4.63118   4.63561   4.66957
 Alpha virt. eigenvalues --    4.68658   4.72385   4.73720   4.74596   4.76643
 Alpha virt. eigenvalues --    4.77725   4.78389   4.80552   4.84186   4.84737
 Alpha virt. eigenvalues --    4.86338   4.89663   4.89744   4.91276   4.95269
 Alpha virt. eigenvalues --    4.96157   4.97129   5.00949   5.02175   5.04570
 Alpha virt. eigenvalues --    5.05876   5.08347   5.09449   5.12694   5.14714
 Alpha virt. eigenvalues --    5.16243   5.20137   5.21714   5.23337   5.25208
 Alpha virt. eigenvalues --    5.27318   5.29743   5.30769   5.33642   5.35346
 Alpha virt. eigenvalues --    5.38922   5.40125   5.44064   5.44706   5.52548
 Alpha virt. eigenvalues --    5.54594   5.61394   5.63168   5.65727   5.67551
 Alpha virt. eigenvalues --    5.69093   5.70336   5.75125   5.77376   5.78861
 Alpha virt. eigenvalues --    5.81559   5.82719   5.86954   6.01076   6.07082
 Alpha virt. eigenvalues --    6.14466   6.25017   6.31913   6.35379   6.37938
 Alpha virt. eigenvalues --    6.41247   6.41635   6.48448   6.58593   6.59212
 Alpha virt. eigenvalues --    6.65583   6.67570   6.69575   6.71901   6.73108
 Alpha virt. eigenvalues --    6.77581   6.79286   6.81685   6.83680   6.86050
 Alpha virt. eigenvalues --    6.89798   6.92960   6.96950   7.01758   7.03230
 Alpha virt. eigenvalues --    7.09003   7.11347   7.17505   7.19693   7.20974
 Alpha virt. eigenvalues --    7.25134   7.28991   7.30283   7.40054   7.46024
 Alpha virt. eigenvalues --    7.50935   7.57776   7.63875   7.73912   7.79655
 Alpha virt. eigenvalues --    7.83150   7.90640   7.99766   8.12801   8.35105
 Alpha virt. eigenvalues --   14.98930  15.70160  15.87667  16.89548  17.16889
 Alpha virt. eigenvalues --   17.72695  18.36669
          Condensed to atoms (all electrons):
               1          2          3          4          5          6
     1  C    4.639678  -0.029547  -0.014978  -0.011034   0.011253  -0.151710
     2  C   -0.029547   5.412648   0.408392   0.333206   0.417464  -0.001543
     3  H   -0.014978   0.408392   0.423263  -0.012033  -0.016860   0.002581
     4  H   -0.011034   0.333206  -0.012033   0.354399  -0.005832   0.008479
     5  H    0.011253   0.417464  -0.016860  -0.005832   0.399080   0.008209
     6  C   -0.151710  -0.001543   0.002581   0.008479   0.008209   5.855900
     7  H   -0.058468  -0.000658  -0.000484  -0.000797   0.003372   0.445523
     8  H   -0.046172   0.006228   0.001230  -0.000664   0.001017   0.424269
     9  H    0.016700   0.000782   0.002436   0.004270  -0.012232   0.354593
    10  O    0.035425   0.006861   0.013273  -0.000783  -0.036538  -0.097599
    11  O   -0.015394   0.030691  -0.011252  -0.003997   0.008766  -0.007768
    12  C    0.007028  -0.004745   0.002714   0.001881  -0.000634   0.001114
    13  H    0.000990   0.001619  -0.000660   0.000353   0.000231  -0.000034
    14  H    0.000186  -0.000283   0.001568  -0.000603  -0.000388   0.000061
    15  H    0.000792   0.002865  -0.000773  -0.001278   0.001367   0.000346
    16  H   -0.028038   0.008007  -0.000195   0.000488  -0.000130  -0.009413
    17  H   -0.032153  -0.012099  -0.006573   0.020610   0.002360   0.000078
    18  Cl   0.166626  -0.010971  -0.000904   0.003634  -0.005387   0.000199
    19  O   -0.055516   0.044410   0.013597  -0.005461  -0.007380   0.001554
               7          8          9         10         11         12
     1  C   -0.058468  -0.046172   0.016700   0.035425  -0.015394   0.007028
     2  C   -0.000658   0.006228   0.000782   0.006861   0.030691  -0.004745
     3  H   -0.000484   0.001230   0.002436   0.013273  -0.011252   0.002714
     4  H   -0.000797  -0.000664   0.004270  -0.000783  -0.003997   0.001881
     5  H    0.003372   0.001017  -0.012232  -0.036538   0.008766  -0.000634
     6  C    0.445523   0.424269   0.354593  -0.097599  -0.007768   0.001114
     7  H    0.484185  -0.005949  -0.051803  -0.002817   0.000462   0.000208
     8  H   -0.005949   0.460805  -0.027709  -0.020747  -0.001436   0.000011
     9  H   -0.051803  -0.027709   0.479177   0.001139   0.000733  -0.000428
    10  O   -0.002817  -0.020747   0.001139   8.580636  -0.222630   0.003205
    11  O    0.000462  -0.001436   0.000733  -0.222630   8.571335   0.035134
    12  C    0.000208   0.000011  -0.000428   0.003205   0.035134   5.317458
    13  H    0.000033  -0.000044  -0.000091  -0.003041  -0.000704   0.381347
    14  H   -0.000021  -0.000012  -0.000007   0.006859  -0.032341   0.417909
    15  H    0.000021   0.000183   0.000023  -0.011999   0.009215   0.358184
    16  H   -0.000883  -0.000360  -0.002918   0.041919   0.056155   0.009053
    17  H   -0.001934  -0.002391   0.001362   0.125704   0.023925   0.009745
    18  Cl  -0.050377  -0.011533   0.028595  -0.074435   0.002483   0.005968
    19  O   -0.018212   0.009307   0.017873  -0.053227  -0.069969   0.012769
              13         14         15         16         17         18
     1  C    0.000990   0.000186   0.000792  -0.028038  -0.032153   0.166626
     2  C    0.001619  -0.000283   0.002865   0.008007  -0.012099  -0.010971
     3  H   -0.000660   0.001568  -0.000773  -0.000195  -0.006573  -0.000904
     4  H    0.000353  -0.000603  -0.001278   0.000488   0.020610   0.003634
     5  H    0.000231  -0.000388   0.001367  -0.000130   0.002360  -0.005387
     6  C   -0.000034   0.000061   0.000346  -0.009413   0.000078   0.000199
     7  H    0.000033  -0.000021   0.000021  -0.000883  -0.001934  -0.050377
     8  H   -0.000044  -0.000012   0.000183  -0.000360  -0.002391  -0.011533
     9  H   -0.000091  -0.000007   0.000023  -0.002918   0.001362   0.028595
    10  O   -0.003041   0.006859  -0.011999   0.041919   0.125704  -0.074435
    11  O   -0.000704  -0.032341   0.009215   0.056155   0.023925   0.002483
    12  C    0.381347   0.417909   0.358184   0.009053   0.009745   0.005968
    13  H    0.346362   0.001821   0.000298   0.002775  -0.000288  -0.001055
    14  H    0.001821   0.377919  -0.015894   0.016723   0.006075  -0.000315
    15  H    0.000298  -0.015894   0.354131  -0.004766  -0.010822   0.001996
    16  H    0.002775   0.016723  -0.004766   0.569932   0.026136  -0.011635
    17  H   -0.000288   0.006075  -0.010822   0.026136   0.634685  -0.002561
    18  Cl  -0.001055  -0.000315   0.001996  -0.011635  -0.002561  17.541050
    19  O    0.001193  -0.001595   0.003912   0.102445  -0.034471  -0.045636
              19
     1  C   -0.055516
     2  C    0.044410
     3  H    0.013597
     4  H   -0.005461
     5  H   -0.007380
     6  C    0.001554
     7  H   -0.018212
     8  H    0.009307
     9  H    0.017873
    10  O   -0.053227
    11  O   -0.069969
    12  C    0.012769
    13  H    0.001193
    14  H   -0.001595
    15  H    0.003912
    16  H    0.102445
    17  H   -0.034471
    18  Cl  -0.045636
    19  O    9.126195
 Mulliken charges:
               1
     1  C    1.564331
     2  C   -0.613326
     3  H    0.195655
     4  H    0.315161
     5  H    0.232262
     6  C   -0.834840
     7  H    0.258601
     8  H    0.213967
     9  H    0.187504
    10  O   -0.291206
    11  O   -0.373409
    12  C   -0.557921
    13  H    0.268896
    14  H    0.222338
    15  H    0.312198
    16  H    0.224705
    17  H    0.252613
    18  Cl  -0.535743
    19  O   -1.041786
 Sum of Mulliken charges =   0.00000
 Mulliken charges with hydrogens summed into heavy atoms:
               1
     1  C    1.564331
     2  C    0.129752
     6  C   -0.174768
    10  O   -0.291206
    11  O    0.103908
    12  C    0.245511
    18  Cl  -0.535743
    19  O   -1.041786
 APT charges:
               1
     1  C    0.899405
     2  C   -1.581420
     3  H    0.617704
     4  H    0.418658
     5  H    0.622865
     6  C   -1.874411
     7  H    0.630819
     8  H    0.546518
     9  H    0.617959
    10  O   -0.269678
    11  O   -0.329812
    12  C   -1.642272
    13  H    0.689249
    14  H    0.819698
    15  H    0.311850
    16  H    0.384258
    17  H    0.335549
    18  Cl  -0.318101
    19  O   -0.878838
 Sum of APT charges =   0.00000
 APT charges with hydrogens summed into heavy atoms:
               1
     1  C    0.899405
     2  C    0.077807
     6  C   -0.079115
    10  O   -0.269678
    11  O    0.389996
    12  C    0.178525
    18  Cl  -0.318101
    19  O   -0.878838
 Electronic spatial extent (au):  <R**2>=           1338.2642
 Charge=              0.0000 electrons
 Dipole moment (field-independent basis, Debye):
    X=             -2.8853    Y=              3.7783    Z=             -0.3528  Tot=              4.7671
 Quadrupole moment (field-independent basis, Debye-Ang):
   XX=            -47.8632   YY=            -56.5724   ZZ=            -61.5080
   XY=              2.8778   XZ=              1.1629   YZ=             -2.2915
 Traceless Quadrupole moment (field-independent basis, Debye-Ang):
   XX=              7.4513   YY=             -1.2578   ZZ=             -6.1935
   XY=              2.8778   XZ=              1.1629   YZ=             -2.2915
 Octapole moment (field-independent basis, Debye-Ang**2):
  XXX=            -25.6987  YYY=              7.8401  ZZZ=             -7.5258  XYY=             -3.7625
  XXY=              3.8382  XXZ=              6.1275  XZZ=             -5.7780  YZZ=             -0.4125
  YYZ=             -0.2686  XYZ=              3.1317
 Hexadecapole moment (field-independent basis, Debye-Ang**3):
 XXXX=           -911.9570 YYYY=           -527.0161 ZZZZ=           -246.3913 XXXY=             21.3788
 XXXZ=              3.2720 YYYX=              2.9878 YYYZ=             -4.8133 ZZZX=              2.1396
 ZZZY=             -2.7725 XXYY=           -257.7931 XXZZ=           -191.5065 YYZZ=           -122.4755
 XXYZ=             -9.4659 YYXZ=             -4.8606 ZZXY=              2.1953
 N-N= 5.231875724889D+02 E-N=-3.041922770352D+03  KE= 8.412585152958D+02
  Exact polarizability:   0.000   0.000   0.000   0.000   0.000   0.000
 Approx polarizability: 128.112  -3.503 132.162  -4.508   6.638 123.932
 PrsmSu:  requested number of processors reduced to:   3 ShMem   1 Linda.
 PrsmSu:  requested number of processors reduced to:   4 ShMem   1 Linda.
 Calling FoFJK, ICntrl=    100147 FMM=F ISym2X=0 I1Cent= 0 IOpClX= 0 NMat=1 NMatS=1 NMatT=0.
 CoulSu:  requested number of processors reduced to:   4 ShMem   1 Linda.
 ***** Axes restored to original set *****
 -------------------------------------------------------------------
 Center     Atomic                   Forces (Hartrees/Bohr)
 Number     Number              X              Y              Z
 -------------------------------------------------------------------
      1        6          -0.033880601   -0.010076261    0.000827805
      2        6           0.008118242   -0.007160267   -0.004496196
      3        1           0.002363594    0.002970501    0.004686138
      4        1           0.000087221    0.001355910   -0.003625041
      5        1          -0.006809234    0.001423255    0.001577066
      6        6           0.019205130    0.010150457    0.004578736
      7        1          -0.009669891    0.002678745   -0.004163407
      8        1          -0.004974490   -0.003274424    0.005740151
      9        1          -0.002269936   -0.004960613   -0.002839699
     10        8          -0.021495212    0.011181702   -0.018641156
     11        8           0.011229944    0.012307352    0.015967566
     12        6           0.003167170   -0.012693281   -0.004961580
     13        1          -0.001318441    0.001884701    0.007352183
     14        1          -0.000889479    0.007177068   -0.003045327
     15        1          -0.002035358   -0.002058114   -0.001377764
     16        1          -0.005788030    0.016356472   -0.037534355
     17        1           0.014842815   -0.009113491    0.021114838
     18       17           0.013838302   -0.016304715   -0.005264986
     19        8           0.016278254   -0.001844996    0.024105026
 -------------------------------------------------------------------
 Cartesian Forces:  Max     0.037534355 RMS     0.011693807
 FormGI is forming the generalized inverse of G from B-inverse, IUseBI=4.

 GradGradGradGradGradGradGradGradGradGradGradGradGradGradGradGradGradGrad
 Berny optimization.
 Internal  Forces:  Max     0.024058228 RMS     0.006768822
 Search for a saddle point.
 Step number   1 out of a maximum of   99
 All quantities printed in internal units (Hartrees-Bohrs-Radians)
 Swapping is turned off.
 Second derivative matrix not updated -- analytic derivatives used.
 ITU=  0
     Eigenvalues ---   -0.05506   0.00040   0.00157   0.00231   0.00271
     Eigenvalues ---    0.00345   0.00526   0.01126   0.02161   0.02787
     Eigenvalues ---    0.03135   0.04218   0.04363   0.05310   0.05886
     Eigenvalues ---    0.06197   0.06277   0.06330   0.06363   0.07113
     Eigenvalues ---    0.07906   0.10129   0.11203   0.11875   0.12250
     Eigenvalues ---    0.13139   0.13384   0.13555   0.14131   0.14372
     Eigenvalues ---    0.16713   0.17603   0.18181   0.18345   0.18500
     Eigenvalues ---    0.18654   0.19128   0.20505   0.30698   0.31161
     Eigenvalues ---    0.31470   0.31852   0.31967   0.32222   0.32314
     Eigenvalues ---    0.32532   0.32546   0.32628   0.34522   0.35061
     Eigenvalues ---    0.55465
 Eigenvectors required to have negative eigenvalues:
                          R12       R15       R19       R2        R14
   1                    0.57987  -0.57124  -0.40109  -0.25676   0.23612
                          R4        A31       D16       A32       A3
   1                    0.08510   0.08474   0.06444  -0.06111  -0.06098
 RFO step:  Lambda0=6.529615250D-04 Lambda=-2.69838227D-02.
 Linear search not attempted -- option 19 set.
 Maximum step size (   0.300) exceeded in Quadratic search.
    -- Step size scaled by   0.718
 Iteration  1 RMS(Cart)=  0.03496518 RMS(Int)=  0.00182876
 Iteration  2 RMS(Cart)=  0.00236568 RMS(Int)=  0.00057644
 Iteration  3 RMS(Cart)=  0.00000429 RMS(Int)=  0.00057643
 Iteration  4 RMS(Cart)=  0.00000000 RMS(Int)=  0.00057643
 Variable       Old X    -DE/DX   Delta X   Delta X   Delta X     New X
                                 (Linear)    (Quad)   (Total)
    R1        2.82221   0.00480   0.00000   0.01750   0.01750   2.83971
    R2        3.03373   0.01205   0.00000   0.02978   0.02976   3.06349
    R3        3.52364   0.01951   0.00000   0.07687   0.07687   3.60051
    R4        2.38880  -0.00473   0.00000  -0.01263  -0.01241   2.37639
    R5        2.06774  -0.00440   0.00000  -0.00667  -0.00667   2.06107
    R6        2.06929  -0.00320   0.00000  -0.00366  -0.00366   2.06563
    R7        2.07027  -0.00491   0.00000  -0.00843  -0.00843   2.06184
    R8        2.73870  -0.00263   0.00000  -0.02113  -0.02113   2.71758
    R9        2.08721  -0.01016   0.00000  -0.02226  -0.02226   2.06496
   R10        2.07925  -0.00789   0.00000  -0.01733  -0.01733   2.06192
   R11        2.07635  -0.00522   0.00000  -0.01105  -0.01105   2.06530
   R12        2.43927  -0.01627   0.00000   0.00343   0.00264   2.44191
   R13        2.74210  -0.00188   0.00000  -0.01060  -0.01060   2.73150
   R14        2.11318  -0.02406   0.00000  -0.10216  -0.10178   2.01140
   R15        2.40149  -0.01536   0.00000  -0.16259  -0.16328   2.23821
   R16        2.07074  -0.00553   0.00000  -0.01195  -0.01195   2.05879
   R17        2.07353  -0.00605   0.00000  -0.01315  -0.01315   2.06038
   R18        2.06650  -0.00271   0.00000  -0.00500  -0.00500   2.06150
   R19        2.85981  -0.00175   0.00000   0.00897   0.00976   2.86956
    A1        1.90747  -0.00226   0.00000  -0.00866  -0.00940   1.89808
    A2        1.89804  -0.00415   0.00000  -0.02089  -0.02097   1.87707
    A3        2.15905  -0.00901   0.00000  -0.03304  -0.03272   2.12633
    A4        1.63415   0.00607   0.00000   0.02180   0.02177   1.65592
    A5        1.82590   0.00720   0.00000   0.04242   0.04308   1.86898
    A6        1.96302   0.00662   0.00000   0.01655   0.01454   1.97755
    A7        1.95507  -0.00383   0.00000  -0.02310  -0.02318   1.93190
    A8        1.92311  -0.00425   0.00000  -0.01611  -0.01651   1.90660
    A9        1.84805   0.00475   0.00000   0.01950   0.01927   1.86732
   A10        1.93983  -0.00359   0.00000  -0.01646  -0.01670   1.92313
   A11        1.92695   0.00073   0.00000   0.00983   0.00967   1.93662
   A12        1.86664   0.00711   0.00000   0.03067   0.03037   1.89701
   A13        1.92063  -0.00422   0.00000  -0.02125  -0.02142   1.89921
   A14        1.95623  -0.00176   0.00000  -0.00572  -0.00578   1.95045
   A15        1.94869  -0.00329   0.00000  -0.02243  -0.02262   1.92608
   A16        1.86478   0.00341   0.00000   0.01973   0.01970   1.88448
   A17        1.86634   0.00349   0.00000   0.01719   0.01687   1.88322
   A18        1.90312   0.00293   0.00000   0.01554   0.01547   1.91859
   A19        1.99298   0.00340   0.00000  -0.00330  -0.00253   1.99045
   A20        1.75472  -0.01161   0.00000  -0.05186  -0.05170   1.70302
   A21        1.87995   0.00644   0.00000   0.02848   0.02729   1.90724
   A22        1.89342   0.00208   0.00000   0.02667   0.02697   1.92039
   A23        1.92212   0.00600   0.00000   0.05091   0.05043   1.97256
   A24        1.65606  -0.00337   0.00000  -0.04556  -0.04609   1.60998
   A25        1.84520   0.00702   0.00000   0.02325   0.02310   1.86830
   A26        1.86189   0.00657   0.00000   0.01842   0.01827   1.88016
   A27        1.93715  -0.00020   0.00000  -0.00123  -0.00125   1.93590
   A28        1.92533  -0.00454   0.00000  -0.00974  -0.01005   1.91528
   A29        1.95318  -0.00416   0.00000  -0.01585  -0.01588   1.93730
   A30        1.93692  -0.00372   0.00000  -0.01168  -0.01170   1.92521
   A31        2.36786   0.01623   0.00000   0.10690   0.10823   2.47609
   A32        2.63774   0.00827   0.00000   0.06768   0.06674   2.70448
   A33        1.92659  -0.01976   0.00000  -0.09328  -0.09333   1.83326
    D1       -2.78837  -0.00179   0.00000  -0.00868  -0.00842  -2.79679
    D2       -0.71590  -0.00144   0.00000  -0.00168  -0.00151  -0.71741
    D3        1.42517  -0.00133   0.00000  -0.00212  -0.00201   1.42316
    D4       -1.02678   0.00243   0.00000   0.00371   0.00370  -1.02308
    D5        1.04569   0.00278   0.00000   0.01071   0.01061   1.05630
    D6       -3.09642   0.00290   0.00000   0.01027   0.01011  -3.08632
    D7        1.33585  -0.00232   0.00000  -0.03395  -0.03396   1.30189
    D8       -2.87486  -0.00197   0.00000  -0.02696  -0.02705  -2.90192
    D9       -0.73379  -0.00185   0.00000  -0.02740  -0.02755  -0.76135
   D10       -1.04352   0.00316   0.00000   0.01796   0.01831  -1.02522
   D11       -3.05088   0.00096   0.00000   0.01616   0.01698  -3.03390
   D12       -2.98628   0.00566   0.00000   0.03355   0.03425  -2.95202
   D13        1.28955   0.00347   0.00000   0.03175   0.03293   1.32248
   D14        1.30107  -0.00456   0.00000   0.00134   0.00188   1.30295
   D15       -0.70629  -0.00675   0.00000  -0.00046   0.00056  -0.70573
   D16        3.08486  -0.00585   0.00000  -0.05782  -0.05693   3.02793
   D17        0.89001  -0.00263   0.00000  -0.06166  -0.05975   0.83026
   D18       -0.86043  -0.01514   0.00000  -0.11186  -0.11142  -0.97185
   D19       -2.90298   0.00493   0.00000   0.02733   0.02765  -2.87533
   D20       -0.97040  -0.00350   0.00000  -0.01998  -0.02002  -0.99041
   D21       -0.78329   0.00363   0.00000   0.01690   0.01701  -0.76627
   D22        1.14929  -0.00481   0.00000  -0.03041  -0.03065   1.11864
   D23        1.32938   0.00408   0.00000   0.02156   0.02166   1.35104
   D24       -3.02123  -0.00436   0.00000  -0.02575  -0.02601  -3.04723
   D25        0.22933   0.00074   0.00000   0.00040   0.00118   0.23050
   D26       -1.86155  -0.00013   0.00000   0.01741   0.01836  -1.84319
   D27        2.99201  -0.00098   0.00000  -0.01559  -0.01560   2.97641
   D28       -1.24146   0.00032   0.00000  -0.00679  -0.00655  -1.24801
   D29        0.87062  -0.00020   0.00000  -0.01017  -0.01006   0.86056
   D30        1.20127  -0.00060   0.00000   0.00302   0.00279   1.20406
   D31       -3.03219   0.00070   0.00000   0.01182   0.01183  -3.02036
   D32       -0.92012   0.00018   0.00000   0.00844   0.00833  -0.91179
   D33       -1.80721  -0.00191   0.00000  -0.02633  -0.02673  -1.83394
   D34        0.16722   0.00372   0.00000   0.01674   0.01504   0.18226
   D35        2.00645   0.00196   0.00000   0.01285   0.01236   2.01881
   D36        0.05639  -0.00030   0.00000  -0.00885  -0.00801   0.04837
   D37       -0.76184  -0.00112   0.00000   0.02813   0.02676  -0.73508
         Item               Value     Threshold  Converged?
 Maximum Force            0.024058     0.000450     NO 
 RMS     Force            0.006769     0.000300     NO 
 Maximum Displacement     0.121838     0.001800     NO 
 RMS     Displacement     0.035079     0.001200     NO 
 Predicted change in Energy=-1.366686D-02
 GradGradGradGradGradGradGradGradGradGradGradGradGradGradGradGradGradGrad

                          Input orientation:                          
 ---------------------------------------------------------------------
 Center     Atomic      Atomic             Coordinates (Angstroms)
 Number     Number       Type             X           Y           Z
 ---------------------------------------------------------------------
      1          6           0        0.868246    0.103927    0.423332
      2          6           0       -0.388568    2.085043   -0.621412
      3          1           0       -1.175402    2.292494   -1.347649
      4          1           0       -0.746864    2.259152    0.396500
      5          1           0        0.471937    2.722008   -0.831801
      6          6           0        2.110417    0.932490    0.592521
      7          1           0        2.849276    0.350449    1.148730
      8          1           0        2.549704    1.203586   -0.368768
      9          1           0        1.890158    1.834470    1.169036
     10          8           0       -0.000898    0.712099   -0.802542
     11          8           0       -1.735762   -0.820979   -0.105596
     12          6           0       -3.031231   -0.275639    0.231578
     13          1           0       -3.571439   -0.134069   -0.703872
     14          1           0       -3.549911   -1.009595    0.848868
     15          1           0       -2.928629    0.667375    0.770338
     16          1           0       -1.107573   -0.826240    0.753631
     17          1           0       -1.038922   -0.045622   -0.667785
     18         17           0        1.360783   -1.487562   -0.501208
     19          8           0        0.072159   -0.099808    1.375238
 ---------------------------------------------------------------------
                    Distance matrix (angstroms):
                    1          2          3          4          5
     1  C    0.000000
     2  C    2.568246   0.000000
     3  H    3.478892   1.090671   0.000000
     4  H    2.693380   1.093085   1.796333   0.000000
     5  H    2.930319   1.091080   1.778849   1.791210   0.000000
     6  C    1.502708   3.007812   4.050984   3.156344   2.813482
     7  H    2.124018   4.077480   5.118737   4.140195   3.898530
     8  H    2.159624   3.078025   4.002542   3.545027   2.614789
     9  H    2.143632   2.908794   3.992636   2.780477   2.608146
    10  O    1.621127   1.438079   2.043098   2.094646   2.064985
    11  O    2.813552   3.244373   3.398589   3.273717   4.237223
    12  C    3.922596   3.644733   3.540249   3.416240   4.731685
    13  H    4.586723   3.880970   3.470397   3.862195   4.952013
    14  H    4.576147   4.661823   4.622421   4.329713   5.738011
    15  H    3.854108   3.224696   3.193852   2.726465   4.283948
    16  H    2.208657   3.298981   3.761181   3.126867   4.195057
    17  H    2.202315   2.228193   2.438776   2.555384   3.157431
    18  Cl   1.905310   3.979721   4.630067   4.391574   4.315069
    19  O    1.257532   2.995405   3.833227   2.682055   3.604648
                    6          7          8          9         10
     6  C    0.000000
     7  H    1.092727   0.000000
     8  H    1.091120   1.766461   0.000000
     9  H    1.092909   1.767099   1.788256   0.000000
    10  O    2.540163   3.473002   2.633494   2.953461   0.000000
    11  O    4.284287   4.895728   4.746930   4.671551   2.417812
    12  C    5.293997   5.984439   5.804770   5.436125   3.350813
    13  H    5.924666   6.700184   6.274552   6.100161   3.670762
    14  H    5.989718   6.548987   6.601978   6.146996   4.276316
    15  H    5.049148   5.798949   5.621141   4.974111   3.323787
    16  H    3.670769   4.146968   4.330779   4.029680   2.452119
    17  H    3.530356   4.309836   3.811584   3.935501   1.292205
    18  Cl   2.759502   2.883780   2.945056   3.755776   2.604513
    19  O    2.415115   2.822483   3.298275   2.662530   2.325351
                   11         12         13         14         15
    11  O    0.000000
    12  C    1.445448   0.000000
    13  H    2.049265   1.089464   0.000000
    14  H    2.058570   1.090306   1.782697   0.000000
    15  H    2.098902   1.090901   1.796890   1.790080   0.000000
    16  H    1.064388   2.067889   2.945174   2.451062   2.355295
    17  H    1.184407   2.197966   2.534318   3.087806   2.479427
    18  Cl   3.192089   4.614707   5.118577   5.115278   4.965848
    19  O    2.445718   3.312085   4.195197   3.771495   3.155821
                   16         17         18         19
    16  H    0.000000
    17  H    1.623115   0.000000
    18  Cl   2.846884   2.804554   0.000000
    19  O    1.518508   2.326238   2.665983   0.000000
 Stoichiometry    C4H11ClO3
 Framework group  C1[X(C4H11ClO3)]
 Deg. of freedom    51
 Full point group                 C1      NOp   1
 Largest Abelian subgroup         C1      NOp   1
 Largest concise Abelian subgroup C1      NOp   1
                         Standard orientation:                         
 ---------------------------------------------------------------------
 Center     Atomic      Atomic             Coordinates (Angstroms)
 Number     Number       Type             X           Y           Z
 ---------------------------------------------------------------------
      1          6           0        0.853970    0.138298    0.420800
      2          6           0       -0.466496    2.079372   -0.620587
      3          1           0       -1.260269    2.262359   -1.345848
      4          1           0       -0.829166    2.240872    0.397855
      5          1           0        0.373020    2.743716   -0.831099
      6          6           0        2.069215    1.005928    0.589710
      7          1           0        2.826832    0.447190    1.144581
      8          1           0        2.498673    1.291932   -0.371700
      9          1           0        1.820832    1.899802    1.167419
     10          8           0       -0.035360    0.719702   -0.803583
     11          8           0       -1.719694   -0.868734   -0.106658
     12          6           0       -3.031583   -0.365401    0.232343
     13          1           0       -3.576959   -0.240165   -0.702438
     14          1           0       -3.525952   -1.116201    0.849325
     15          1           0       -2.958617    0.579837    0.772033
     16          1           0       -1.090809   -0.854842    0.751965
     17          1           0       -1.048524   -0.070924   -0.668665
     18         17           0        1.396168   -1.435670   -0.505943
     19          8           0        0.065735   -0.091764    1.373241
 ---------------------------------------------------------------------
 Rotational constants (GHZ):      2.0031709      1.2183714      0.9565792
 Standard basis: Aug-CC-pVTZ (5D, 7F)
 There are   719 symmetry adapted cartesian basis functions of A   symmetry.
 There are   625 symmetry adapted basis functions of A   symmetry.
   625 basis functions,   915 primitive gaussians,   719 cartesian basis functions
    38 alpha electrons       38 beta electrons
       nuclear repulsion energy       521.9236565344 Hartrees.
 NAtoms=   19 NActive=   19 NUniq=   19 SFac= 1.00D+00 NAtFMM=   60 NAOKFM=F Big=F
 Integral buffers will be    131072 words long.
 Raffenetti 2 integral format.
 Two-electron integral symmetry is turned on.
 One-electron integrals computed using PRISM.
 PrsmSu:  requested number of processors reduced to:   3 ShMem   1 Linda.
 NBasis=   625 RedAO= T EigKep=  6.44D-06  NBF=   625
 NBsUse=   625 1.00D-06 EigRej= -1.00D+00 NBFU=   625
 Initial guess from the checkpoint file:  "/lustre/SCRATCH5/gau/mlawal/854266.sched01/Gau-16459.chk"
 B after Tr=     0.000000    0.000000    0.000000
         Rot=    0.999883    0.000559   -0.000038   -0.015291 Ang=   1.75 deg.
 ExpMin= 2.53D-02 ExpMax= 4.56D+05 ExpMxC= 1.44D+03 IAcc=3 IRadAn=         5 AccDes= 0.00D+00
 Harris functional with IExCor=  402 and IRadAn=       5 diagonalized for initial guess.
 HarFok:  IExCor=  402 AccDes= 0.00D+00 IRadAn=         5 IDoV= 1 UseB2=F ITyADJ=14
 ICtDFT=  3500011 ScaDFX=  1.000000  1.000000  1.000000  1.000000
 FoFCou: FMM=F IPFlag=           0 FMFlag=      100000 FMFlg1=           0
         NFxFlg=           0 DoJE=T BraDBF=F KetDBF=T FulRan=T
         wScrn=  0.000000 ICntrl=     500 IOpCl=  0 I1Cent=   200000004 NGrid=           0
         NMat0=    1 NMatS0=      1 NMatT0=    0 NMatD0=    1 NMtDS0=    0 NMtDT0=    0
 Petite list used in FoFCou.
 Requested convergence on RMS density matrix=1.00D-08 within 128 cycles.
 Requested convergence on MAX density matrix=1.00D-06.
 Requested convergence on             energy=1.00D-06.
 No special actions if energy rises.
 SCF Done:  E(RB3LYP) =  -845.066589930     A.U. after   10 cycles
            NFock= 10  Conv=0.76D-08     -V/T= 2.0044
 PrsmSu:  requested number of processors reduced to:   3 ShMem   1 Linda.
 Calling FoFJK, ICntrl=      2127 FMM=F ISym2X=0 I1Cent= 0 IOpClX= 0 NMat=1 NMatS=1 NMatT=0.
 ***** Axes restored to original set *****
 -------------------------------------------------------------------
 Center     Atomic                   Forces (Hartrees/Bohr)
 Number     Number              X              Y              Z
 -------------------------------------------------------------------
      1        6          -0.014803772   -0.001954815    0.001904254
      2        6           0.004149739   -0.003261117   -0.001583428
      3        1           0.000662778    0.001297818    0.001698849
      4        1          -0.000262604    0.000722414   -0.001271910
      5        1          -0.002455610    0.000840058    0.000718871
      6        6           0.007213724    0.004168606    0.001268586
      7        1          -0.003487033    0.000790623   -0.000892961
      8        1          -0.001588323   -0.001318417    0.001797680
      9        1          -0.001062809   -0.001577658   -0.001152200
     10        8          -0.008179097    0.005128182   -0.009650520
     11        8          -0.000293738    0.002595656    0.004945275
     12        6           0.001385495   -0.005323339   -0.002004903
     13        1          -0.000543007    0.000854991    0.002527970
     14        1          -0.000512411    0.002537688   -0.000904980
     15        1          -0.000806071   -0.000680420   -0.000465934
     16        1          -0.001749114    0.008387100   -0.012349795
     17        1           0.007336233   -0.002448905    0.007701821
     18       17           0.006638446   -0.007245463   -0.002518568
     19        8           0.008357173   -0.003513002    0.010231893
 -------------------------------------------------------------------
 Cartesian Forces:  Max     0.014803772 RMS     0.004722975

 GradGradGradGradGradGradGradGradGradGradGradGradGradGradGradGradGradGrad
 Berny optimization.
 FormGI is forming the generalized inverse of G from B-inverse, IUseBI=4.
 Internal  Forces:  Max     0.008989572 RMS     0.002613716
 Search for a saddle point.
 Step number   2 out of a maximum of   99
 All quantities printed in internal units (Hartrees-Bohrs-Radians)
 Swapping is turned off.
 Update second derivatives using D2CorX and points    1    2
 ITU=  0  0
     Eigenvalues ---   -0.05381   0.00122   0.00162   0.00229   0.00276
     Eigenvalues ---    0.00351   0.00577   0.01162   0.02195   0.02849
     Eigenvalues ---    0.03107   0.04218   0.04362   0.05323   0.05865
     Eigenvalues ---    0.06197   0.06280   0.06328   0.06362   0.07138
     Eigenvalues ---    0.08121   0.10091   0.11230   0.11854   0.12294
     Eigenvalues ---    0.13125   0.13373   0.13741   0.14059   0.14367
     Eigenvalues ---    0.16771   0.17577   0.18197   0.18366   0.18519
     Eigenvalues ---    0.18647   0.19329   0.21006   0.30697   0.31163
     Eigenvalues ---    0.31463   0.31853   0.31961   0.32220   0.32313
     Eigenvalues ---    0.32532   0.32551   0.32629   0.34524   0.35065
     Eigenvalues ---    0.55499
 Eigenvectors required to have negative eigenvalues:
                          R12       R15       R19       R14       R2
   1                   -0.57862   0.54632   0.42259  -0.25788   0.25542
                          R4        A31       A32       D16       A3
   1                   -0.08584  -0.08412   0.06986  -0.06956   0.06315
 RFO step:  Lambda0=2.350713214D-04 Lambda=-5.98755705D-03.
 Linear search not attempted -- option 19 set.
 Iteration  1 RMS(Cart)=  0.04230241 RMS(Int)=  0.00419723
 Iteration  2 RMS(Cart)=  0.00492033 RMS(Int)=  0.00116784
 Iteration  3 RMS(Cart)=  0.00006004 RMS(Int)=  0.00116723
 Iteration  4 RMS(Cart)=  0.00000012 RMS(Int)=  0.00116723
 Variable       Old X    -DE/DX   Delta X   Delta X   Delta X     New X
                                 (Linear)    (Quad)   (Total)
    R1        2.83971   0.00215   0.00000   0.01068   0.01068   2.85039
    R2        3.06349   0.00617   0.00000   0.03453   0.03336   3.09684
    R3        3.60051   0.00899   0.00000   0.03890   0.03890   3.63941
    R4        2.37639  -0.00100   0.00000  -0.00193  -0.00255   2.37384
    R5        2.06107  -0.00136   0.00000  -0.00281  -0.00281   2.05826
    R6        2.06563  -0.00098   0.00000  -0.00140  -0.00140   2.06423
    R7        2.06184  -0.00159   0.00000  -0.00502  -0.00502   2.05682
    R8        2.71758  -0.00100   0.00000  -0.01055  -0.01055   2.70702
    R9        2.06496  -0.00324   0.00000  -0.01050  -0.01050   2.05446
   R10        2.06192  -0.00255   0.00000  -0.00926  -0.00926   2.05266
   R11        2.06530  -0.00169   0.00000  -0.00553  -0.00553   2.05976
   R12        2.44191  -0.00487   0.00000  -0.04197  -0.04217   2.39975
   R13        2.73150  -0.00077   0.00000  -0.01849  -0.01849   2.71301
   R14        2.01140  -0.00605   0.00000   0.01637   0.01758   2.02898
   R15        2.23821  -0.00282   0.00000  -0.02796  -0.02765   2.21056
   R16        2.05879  -0.00180   0.00000  -0.00426  -0.00426   2.05452
   R17        2.06038  -0.00197   0.00000  -0.00503  -0.00503   2.05535
   R18        2.06150  -0.00090   0.00000   0.00001   0.00001   2.06152
   R19        2.86956   0.00069   0.00000  -0.14349  -0.14261   2.72696
    A1        1.89808  -0.00174   0.00000  -0.01252  -0.01199   1.88608
    A2        1.87707  -0.00197   0.00000  -0.01120  -0.01170   1.86537
    A3        2.12633  -0.00340   0.00000  -0.02740  -0.02538   2.10096
    A4        1.65592   0.00269   0.00000   0.02109   0.02188   1.67781
    A5        1.86898   0.00377   0.00000   0.03584   0.03327   1.90225
    A6        1.97755   0.00216   0.00000   0.00661   0.00494   1.98249
    A7        1.93190  -0.00176   0.00000  -0.01978  -0.01980   1.91209
    A8        1.90660  -0.00177   0.00000  -0.00890  -0.00906   1.89754
    A9        1.86732   0.00188   0.00000   0.01168   0.01159   1.87892
   A10        1.92313  -0.00156   0.00000  -0.00915  -0.00927   1.91386
   A11        1.93662   0.00047   0.00000   0.00804   0.00797   1.94459
   A12        1.89701   0.00288   0.00000   0.01912   0.01898   1.91599
   A13        1.89921  -0.00182   0.00000  -0.01902  -0.01914   1.88007
   A14        1.95045  -0.00061   0.00000  -0.00328  -0.00330   1.94715
   A15        1.92608  -0.00150   0.00000  -0.01439  -0.01450   1.91158
   A16        1.88448   0.00146   0.00000   0.01690   0.01689   1.90136
   A17        1.88322   0.00139   0.00000   0.00903   0.00881   1.89203
   A18        1.91859   0.00119   0.00000   0.01156   0.01154   1.93013
   A19        1.99045   0.00085   0.00000  -0.00615  -0.00681   1.98364
   A20        1.70302  -0.00462   0.00000  -0.02301  -0.02374   1.67928
   A21        1.90724   0.00255   0.00000   0.00583   0.00499   1.91224
   A22        1.92039   0.00139   0.00000   0.04124   0.04334   1.96372
   A23        1.97256   0.00306   0.00000   0.05730   0.05611   2.02866
   A24        1.60998  -0.00221   0.00000  -0.07602  -0.07587   1.53411
   A25        1.86830   0.00255   0.00000   0.01967   0.01953   1.88783
   A26        1.88016   0.00242   0.00000   0.01468   0.01455   1.89471
   A27        1.93590  -0.00001   0.00000   0.00732   0.00727   1.94316
   A28        1.91528  -0.00165   0.00000  -0.00772  -0.00794   1.90734
   A29        1.93730  -0.00165   0.00000  -0.01863  -0.01869   1.91862
   A30        1.92521  -0.00145   0.00000  -0.01352  -0.01358   1.91163
   A31        2.47609   0.00697   0.00000   0.14295   0.14454   2.62062
   A32        2.70448   0.00330   0.00000   0.03141   0.03051   2.73500
   A33        1.83326  -0.00742   0.00000  -0.03174  -0.03677   1.79649
    D1       -2.79679  -0.00072   0.00000  -0.05003  -0.05077  -2.84756
    D2       -0.71741  -0.00047   0.00000  -0.04341  -0.04420  -0.76161
    D3        1.42316  -0.00044   0.00000  -0.04111  -0.04196   1.38120
    D4       -1.02308   0.00081   0.00000  -0.03580  -0.03560  -1.05868
    D5        1.05630   0.00106   0.00000  -0.02918  -0.02903   1.02726
    D6       -3.08632   0.00109   0.00000  -0.02688  -0.02679  -3.11311
    D7        1.30189  -0.00156   0.00000  -0.06626  -0.06556   1.23633
    D8       -2.90192  -0.00131   0.00000  -0.05964  -0.05899  -2.96091
    D9       -0.76135  -0.00128   0.00000  -0.05734  -0.05675  -0.81809
   D10       -1.02522   0.00148   0.00000   0.04528   0.04544  -0.97978
   D11       -3.03390   0.00081   0.00000   0.05352   0.05491  -2.97899
   D12       -2.95202   0.00293   0.00000   0.05177   0.05221  -2.89981
   D13        1.32248   0.00226   0.00000   0.06001   0.06169   1.38417
   D14        1.30295  -0.00135   0.00000   0.02773   0.02870   1.33165
   D15       -0.70573  -0.00202   0.00000   0.03597   0.03818  -0.66755
   D16        3.02793  -0.00301   0.00000  -0.10449  -0.10306   2.92487
   D17        0.83026  -0.00141   0.00000  -0.09920  -0.09717   0.73309
   D18       -0.97185  -0.00738   0.00000  -0.14500  -0.14292  -1.11476
   D19       -2.87533   0.00218   0.00000   0.01218   0.01304  -2.86229
   D20       -0.99041  -0.00149   0.00000  -0.01540  -0.01614  -1.00656
   D21       -0.76627   0.00149   0.00000   0.00008   0.00085  -0.76543
   D22        1.11864  -0.00218   0.00000  -0.02749  -0.02834   1.09031
   D23        1.35104   0.00173   0.00000   0.00629   0.00707   1.35811
   D24       -3.04723  -0.00194   0.00000  -0.02129  -0.02211  -3.06935
   D25        0.23050   0.00019   0.00000   0.01118   0.00867   0.23918
   D26       -1.84319   0.00054   0.00000   0.02689   0.02565  -1.81753
   D27        2.97641  -0.00067   0.00000  -0.03077  -0.03007   2.94634
   D28       -1.24801  -0.00002   0.00000  -0.02190  -0.02106  -1.26907
   D29        0.86056  -0.00026   0.00000  -0.02477  -0.02400   0.83655
   D30        1.20406  -0.00018   0.00000   0.01164   0.01081   1.21487
[...]
 3296,-0.00027996,0.00228038,-0.00581915,0.00990769,-0.05526599,-0.0312
 7123,-0.00313802,0.00250383,0.00505897,-0.01724573,0.06840164,-0.00231
 265,0.00190508,-0.00258773,0.07411333,-0.03698684,-0.27166289,0.007191
 78,-0.00205719,-0.01791330,-0.08226793,0.04727282,0.29118507,-0.000100
 18,0.00045863,-0.00080495,-0.23208867,-0.11724823,0.04747021,-0.017906
 21,-0.01105123,0.00575915,-0.00683061,-0.00402131,0.00082793,0.2436705
 0,-0.00371518,0.00106679,-0.00283090,-0.10899903,-0.11490686,0.0294093
 1,0.00454890,0.00540700,-0.00210428,0.00364673,0.00518635,0.00002123,0
 .12368277,0.14173202,0.00161070,0.00087808,-0.00022705,0.04759750,0.02
 982153,-0.06392417,-0.01833481,-0.01179750,0.00563451,0.02569545,0.015
 49299,-0.00502369,-0.04980141,-0.03050355,0.06036991,-0.13841275,-0.05
 665293,-0.01593201,-0.00120264,-0.00138337,-0.00139717,0.00004092,-0.0
 0019216,0.00005892,-0.00030918,0.00017861,0.00003021,-0.00033785,0.000
 06542,-0.00020803,0.51115333,-0.06617267,-0.11355143,-0.01431068,-0.00
 009588,0.00321313,0.00082067,0.00009908,-0.00036063,-0.00033542,0.0003
 6878,-0.00034097,-0.00025671,0.00033234,0.00000086,0.00009599,-0.04749
 126,0.53438295,-0.01922763,-0.01331555,-0.07308477,-0.00159626,-0.0008
 2962,-0.00126796,-0.00016394,-0.00013129,-0.00020855,0.00050597,0.0005
 7702,-0.00009464,-0.00112170,0.00053011,0.00039786,-0.03172319,-0.0213
 9466,0.58562585,-0.01856253,0.01465057,-0.01570731,0.00038630,-0.00147
 966,0.00028471,0.00007073,0.00012220,-0.00003354,0.00008404,0.00012041
 ,0.00002274,0.00010583,0.00018525,0.00006010,-0.15534651,0.08592877,-0
 .10088033,0.16860391,-0.01238402,0.00877914,-0.01089812,0.00016065,-0.
 00157216,0.00031284,0.00021005,0.00041278,0.00008117,-0.00019751,0.000
 09006,0.00014180,0.00040256,0.00032170,-0.00024750,0.08889237,-0.11402
 728,0.08273104,-0.09330421,0.12299869,-0.00477183,0.00323252,-0.005215
 72,0.00042193,-0.00061576,-0.00006351,0.00004409,0.00014023,0.00008131
 ,-0.00020399,0.00001787,0.00012276,0.00020600,-0.00014552,-0.00006619,
 -0.10131278,0.08059836,-0.13770893,0.11198893,-0.08727748,0.14692298,-
 0.01084596,-0.00301223,0.02591704,-0.00078563,-0.00014904,0.00029908,0
 .00012860,0.00014636,-0.00004014,0.00017262,-0.00003535,-0.00008450,-0
 .00020073,0.00055048,-0.00016280,-0.10284861,-0.03094053,0.10386609,0.
 01143369,0.00462244,-0.01779583,0.11120753,-0.00523446,-0.00412632,0.0
 1958247,0.00039312,0.00057430,-0.00039685,-0.00017611,-0.00011514,0.00
 010699,-0.00005740,-0.00001393,0.00007676,0.00003673,-0.00018692,0.000
 18426,-0.02974845,-0.06380406,0.05256818,-0.00815089,-0.00424314,0.012
 64386,0.03480765,0.06532853,-0.00332041,-0.00246126,0.00390474,-0.0001
 0994,0.00033511,-0.00017213,-0.00013940,-0.00010930,0.00006627,-0.0000
 9438,-0.00004159,0.00001838,-0.00013998,-0.00020435,0.00013977,0.10908
 395,0.05738830,-0.24793319,0.00883016,0.00332101,-0.01458486,-0.116336
 92,-0.06105628,0.26580330,0.00736832,-0.02140262,-0.01180500,-0.000641
 51,0.00045208,-0.00160203,-0.00020335,-0.00001619,0.00011102,-0.000598
 00,0.00020785,-0.00006049,-0.00053435,0.00011784,-0.00024146,-0.073039
 54,0.06451447,0.04054042,-0.00586264,0.01604950,0.01133866,-0.00464410
 ,0.01210630,0.00466076,0.07657962,0.00831419,-0.01786084,-0.00994118,0
 .00056791,-0.00043134,0.00034439,0.00011391,0.00036445,0.00027858,-0.0
 0015345,0.00005425,0.00033103,0.00053756,0.00013654,0.00013784,0.06245
 882,-0.22281218,-0.10362228,0.00408553,-0.01245045,-0.00779997,-0.0022
 7264,0.00878262,0.00403092,-0.07098572,0.24348919,0.00212683,-0.006018
 25,-0.00486338,-0.00047909,-0.00100398,-0.00017869,0.00023472,0.000425
 25,0.00015504,-0.00034243,0.00004192,0.00025986,0.00007450,0.00035369,
 -0.00082849,0.03948489,-0.10411631,-0.10928193,-0.00460079,0.01565677,
 0.01033408,0.00633856,-0.02222326,-0.01061706,-0.04168402,0.11614572,0
 .11420649,-0.04223896,-0.05144736,0.03742591,-0.08521515,0.01654241,-0
 .00925298,-0.00340007,0.03222768,0.00538288,-0.00056843,0.01448359,0.0
 0154540,0.01394822,-0.02463801,-0.00563476,-0.01915496,0.01802693,-0.0
 2326676,-0.00467659,-0.00550580,-0.00224534,0.00159366,0.00119102,0.00
 027943,0.00101715,-0.00017800,-0.00025988,0.17779126,-0.02903238,-0.03
 608847,-0.02569591,0.01797037,-0.18664241,-0.02745113,0.00851035,-0.02
 456465,-0.00000623,0.00947444,-0.02400497,-0.00971926,0.00576965,-0.03
 875178,-0.00366529,-0.00449789,0.00603635,-0.00568607,-0.00199756,-0.0
 0078626,-0.00107005,0.00137046,0.00019108,0.00001231,0.00102381,0.0004
 7329,0.00099946,-0.00539254,0.37953273,0.02135012,-0.05287202,-0.01165
 910,-0.01116661,-0.01983497,-0.08167038,-0.00384445,0.02693050,0.00640
 606,0.00539050,-0.03316503,0.00374490,-0.00230198,0.00450926,0.0036702
 6,-0.01278035,0.01045233,-0.00986817,-0.00187279,-0.00276244,0.0003080
 4,-0.00089374,-0.00036632,0.00080754,0.00117868,0.00032030,0.00000393,
 -0.00907686,0.01387699,0.16461432,0.01388177,-0.00460066,-0.01959151,-
 0.00831477,0.00890832,0.00189984,0.00060352,-0.00110599,0.00085073,0.0
 0015571,-0.00118352,-0.00148292,0.00065352,-0.00360223,-0.00063806,-0.
 00220381,0.00005153,0.00252167,0.00004690,-0.00008525,-0.00009100,-0.0
 0059123,-0.00072962,0.00015045,0.00028452,0.00006659,0.00010420,-0.044
 79656,-0.05138357,0.02004200,0.46273829,0.00301535,-0.01056110,0.01219
 279,-0.00335030,0.00816112,0.00003984,0.00051896,-0.00025232,0.0003002
 4,0.00060818,-0.00080089,-0.00068382,0.00034148,-0.00188812,-0.0002339
 9,-0.00068281,0.00155094,-0.00180208,-0.00054898,-0.00039832,-0.000362
 90,0.00057285,0.00007835,-0.00002431,0.00012269,0.00002173,0.00014951,
 -0.05596944,-0.02376701,0.01090467,-0.01812406,0.19170244,0.00390422,0
 .01254708,-0.04472850,0.00535872,-0.00433491,0.00038059,-0.00036209,-0
 .00062923,-0.00016905,-0.00045412,0.00087948,0.00034129,-0.00033155,0.
 00228368,0.00005686,-0.00081836,-0.00313676,0.00592268,0.00103063,0.00
 061618,0.00047921,-0.00153189,-0.00108160,0.00002734,0.00000623,0.0001
 4477,-0.00012469,0.04587210,0.02342630,0.01149133,0.01200808,-0.009902
 99,0.27827671,-0.00404504,0.00050520,0.00260526,0.00080792,-0.00445547
 ,-0.00022452,-0.00018914,0.00027405,-0.00033451,-0.00008056,0.00026904
 ,0.00060148,-0.00014493,0.00059762,0.00012625,0.00053322,-0.00006628,-
 0.00026157,0.00007592,0.00007597,0.00001085,0.00013391,0.00016476,-0.0
 0001151,-0.00002579,0.00010125,0.00000268,0.00918068,0.00609924,-0.001
 61744,-0.17724436,0.03998862,0.02328714,0.46809406,0.00168958,-0.00082
 420,0.00038336,-0.00184568,0.00204252,0.00084049,0.00009116,-0.0001333
 3,0.00023966,-0.00019517,-0.00044929,-0.00050753,0.00019659,-0.0008440
 8,-0.00027986,-0.00021840,0.00019747,0.00005843,-0.00005553,-0.0000467
 9,-0.00003855,-0.00000326,-0.00006476,0.00001593,0.00000129,-0.0000514
 3,-0.00000183,-0.00809643,-0.00942683,0.00195387,0.05039823,-0.0902643
 7,-0.00218061,0.04792846,0.56740993,0.00163698,0.00102374,-0.00518786,
 0.00071381,0.00151105,0.00061219,0.00005641,-0.00000512,0.00019273,-0.
 00022174,-0.00016825,-0.00047515,0.00011660,0.00011007,-0.00021438,-0.
 00022350,-0.00009617,0.00051425,0.00006021,-0.00001683,0.00003368,-0.0
 0017245,-0.00011087,0.00006539,-0.00000344,-0.00001017,-0.00002820,0.0
 0097885,0.00154769,0.00111706,0.03664027,-0.00563656,-0.09918503,0.038
 71600,-0.02146897,0.59107501,0.00096151,0.00047480,-0.00234377,-0.0001
 6572,0.00047889,-0.00009734,0.00004219,-0.00016991,0.00011096,-0.00000
 712,-0.00001879,-0.00004387,0.00005870,-0.00007394,0.00003609,-0.00010
 124,-0.00006296,0.00025035,0.00002600,0.00000234,0.00001434,-0.0000816
 9,-0.00005134,0.00002230,0.00000924,0.00000162,-0.00001036,-0.00025621
 ,-0.00080504,0.00076732,-0.03306043,0.00945930,-0.02698741,-0.11042386
 ,0.01439201,-0.10796474,0.13373719,-0.00032559,0.00009149,0.00044155,-
 0.00002422,-0.00005726,-0.00023527,-0.00003664,-0.00005408,0.00010963,
 0.00002681,0.00005259,0.00001057,0.00004179,0.00000901,0.00005190,0.00
 006494,-0.00001749,-0.00005825,0.00000195,0.00000359,0.00000092,0.0000
 1671,0.00002619,-0.00000338,-0.00000439,0.00000089,-0.00000930,0.00027
 143,0.00011693,0.00005897,0.01224367,-0.00135582,0.01015904,0.01460297
 ,-0.05592138,0.02750109,-0.02389171,0.05382075,0.00012969,-0.00004892,
 0.00018950,-0.00009233,0.00010386,-0.00012945,-0.00002231,-0.00004541,
 0.00007161,0.00001485,0.00001927,-0.00001104,0.00002439,-0.00003332,0.
 00003491,-0.00001274,-0.00000330,-0.00004599,-0.00000244,-0.00000423,-
 0.00000228,0.00000905,0.00001082,-0.00000801,0.00000111,-0.00000052,-0
 .00000445,-0.00038780,-0.00028966,-0.00005332,0.00824413,-0.00297829,0
 .01502108,-0.11854320,0.03182728,-0.25117153,0.12331224,-0.03245707,0.
 26170109,0.00077968,-0.00066004,0.00093726,-0.00071901,0.00052708,0.00
 001665,0.00002276,-0.00005551,0.00007368,0.00001950,-0.00007746,-0.000
 06094,0.00005704,-0.00030999,-0.00000490,-0.00008663,0.00011526,-0.000
 07669,-0.00004368,-0.00002195,-0.00002230,0.00002272,-0.00000412,0.000
 00071,0.00001655,-0.00000820,0.00001374,-0.00327793,-0.00306577,0.0002
 9945,-0.03151184,-0.01902897,0.02534533,-0.09277558,-0.07757968,0.0569
 0718,0.00968584,0.01182683,-0.00837243,0.11371223,-0.00001671,0.000015
 21,-0.00006495,0.00020840,-0.00055603,-0.00013786,-0.00000341,0.000073
 68,-0.00014281,0.00004742,0.00011053,0.00021285,-0.00009824,0.00014234
 ,0.00008656,0.00000237,-0.00002536,-0.00000412,0.00000365,0.00001115,0
 .00000820,0.00000194,-0.00000343,-0.00000234,0.00000709,0.00000454,0.0
 0001510,0.00124841,0.00142320,-0.00039363,0.01077260,0.01427272,-0.011
 75747,-0.08557912,-0.18961116,0.10940088,-0.00106522,-0.00176958,0.000
 82495,0.08559751,0.19554045,-0.00038867,0.00021764,0.00000658,0.000158
 19,-0.00032723,-0.00019952,-0.00000027,-0.00002094,-0.00001786,0.00001
 630,0.00007492,0.00012756,-0.00002774,0.00008392,0.00009734,0.00005431
 ,-0.00003289,-0.00001361,0.00000993,0.00000867,0.00000817,0.00000695,0
 .00001111,-0.00000211,-0.00000420,0.00000027,-0.00000126,0.00101908,0.
 00096831,-0.00025185,0.00966817,0.00330375,-0.00310676,0.06227211,0.10
 487864,-0.13421841,0.01154507,0.02014342,-0.01376905,-0.07407851,-0.11
 441259,0.13940084,-0.00019710,0.00023892,0.00060135,-0.00019990,0.0004
 4868,0.00036782,0.00002772,-0.00005137,-0.00001234,-0.00012880,-0.0002
 8726,-0.00011349,0.00004295,-0.00010133,-0.00011972,-0.00000628,-0.000
 00207,0.00000370,-0.00000161,-0.00001036,-0.00000133,-0.00000632,0.000
 00089,-0.00000519,-0.00001724,-0.00003142,-0.00001985,-0.00085098,-0.0
 0082117,-0.00014416,-0.01294358,0.03447578,0.02159602,-0.05395492,-0.0
 2895117,-0.01757041,0.00039879,-0.01436014,-0.00641247,0.00058631,-0.0
 1062838,-0.00818693,0.06166023,-0.00015718,-0.00004578,-0.00032462,0.0
 0005256,-0.00066206,-0.00006994,-0.00004851,0.00001928,-0.00007173,-0.
 00008347,0.00007438,0.00017827,-0.00007345,0.00009221,0.00007748,0.000
 01868,-0.00002045,-0.00000028,0.00001139,0.00000719,0.00000192,-0.0000
 0079,0.00000929,-0.00000667,0.00000436,0.00002718,0.00000525,0.0013349
 2,0.00099020,-0.00034421,0.01145186,-0.00569345,-0.00590999,-0.0231141
 6,-0.23899010,-0.10954959,-0.00082317,0.00582778,0.00294477,-0.0036269
 1,-0.01777706,-0.01226314,0.01771299,0.25742529,-0.00009832,-0.0005705
 4,0.00110809,0.00014366,-0.00068637,-0.00017699,0.00003277,0.00013385,
 -0.00029555,0.00013154,0.00012997,0.00035347,-0.00015677,0.00013709,0.
 00010419,0.00000789,0.00006645,-0.00012102,-0.00002099,0.00000264,-0.0
 0001084,0.00004379,0.00001855,-0.00001057,0.00001270,0.00001667,0.0000
 3360,0.00023485,0.00099098,-0.00048407,0.00738724,-0.00681638,-0.00182
 446,-0.01368952,-0.10965608,-0.11919069,-0.00320531,-0.02383599,-0.011
 74673,0.00109431,0.01578814,0.01114981,0.00926687,0.12495741,0.1218967
 3,-0.03033636,-0.01667454,0.05828812,-0.00117762,-0.00135302,-0.001675
 26,-0.00017495,0.00138511,-0.00038390,0.00062099,-0.00003456,0.0006883
 3,-0.00009453,-0.00045421,0.00015854,0.00334528,0.00270423,-0.00617574
 ,-0.00086226,-0.00037261,-0.00043162,0.00189326,0.00126155,-0.00030386
 ,-0.00020852,-0.00027017,0.00000244,-0.02355625,-0.00159917,-0.0111618
 8,-0.07286008,-0.00565578,-0.01858266,-0.02749124,0.00525877,-0.007995
 63,0.00191609,-0.00082556,0.00125184,0.00098085,-0.00038382,-0.0009720
 6,0.00295106,-0.00150699,-0.00177148,0.06503944,-0.01101103,-0.0041548
 7,0.01500135,-0.00002206,-0.00149491,0.00013755,-0.00006651,0.00037546
 ,-0.00009837,-0.00000021,-0.00030919,0.00011191,0.00006458,0.00014307,
 -0.00012253,-0.00000224,0.00109454,-0.00064196,-0.00022402,-0.00004419
 ,-0.00015807,0.00009055,0.00049926,-0.00005670,0.00006446,-0.00000605,
 -0.00009342,-0.00426641,0.00112269,-0.00539498,0.00050722,-0.03284122,
 -0.00740903,0.00629093,-0.00200994,0.01139603,0.00295146,-0.00109027,-
 0.00105984,-0.00091098,0.00041961,-0.00052362,0.00080970,-0.00034635,0
 .00045007,-0.01819878,0.05411033,0.00139527,-0.00044054,0.04601646,-0.
 00141874,0.00021334,-0.00082564,-0.00008466,0.00077903,-0.00025858,0.0
 0051163,-0.00023293,0.00032862,-0.00004679,-0.00069200,0.00002835,0.00
 270598,0.00203348,-0.00625034,-0.00061336,-0.00038701,-0.00023660,0.00
 172470,0.00130050,0.00003670,-0.00019437,-0.00019041,-0.00000007,-0.01
 552058,-0.00145576,-0.00794764,-0.05756163,-0.00438606,-0.13358511,-0.
 00098944,0.00209307,0.02069108,0.00658283,-0.00241845,-0.00086623,0.00
 143626,0.00030841,-0.00030712,0.00206732,-0.00202938,-0.00083836,0.010
 45181,-0.02555093,0.15681309,-0.01968585,0.01921615,-0.03905881,0.0177
 2361,-0.00946478,-0.00064425,-0.00064843,0.00121293,-0.00108728,-0.000
 97677,0.00287040,0.00186905,-0.00057219,0.00745169,0.00084630,0.001303
 82,-0.00276465,0.00316428,0.00108797,0.00051513,0.00060893,-0.00096188
 ,-0.00030893,0.00006854,-0.00030175,0.00001827,-0.00033409,-0.00398428
 ,0.02028170,0.00445511,-0.02996876,0.01598518,-0.02202099,-0.02277676,
 0.00058161,0.00776311,0.00115127,-0.00101518,0.00031274,0.00305538,-0.
 00001293,-0.00160248,0.00270230,-0.00203029,-0.00086441,0.03756975,0.0
 0896156,0.01431244,0.03730163,-0.00369349,0.02718833,-0.02980694,-0.00
 461760,-0.02189063,0.00157025,-0.00068747,0.00036916,-0.00006592,-0.00
 103099,0.00192254,0.00093105,0.00099328,0.00219086,0.00000426,0.002349
 66,-0.00402080,0.00404719,0.00138107,0.00093191,0.00085300,-0.00102261
 ,-0.00032654,0.00004228,-0.00036760,-0.00013182,-0.00031206,0.04512507
 ,-0.01489606,0.00738887,0.00137409,-0.06213018,0.01368736,-0.00494651,
 0.01961385,-0.01107796,0.00073428,-0.00017285,0.00078199,0.00702009,-0
 .00223719,-0.00217899,0.00235608,-0.00144911,-0.00163389,0.01969772,0.
 00148774,0.02428480,-0.04730586,0.06750332,-0.01410822,-0.01494419,0.0
 1934849,-0.00662456,0.00225313,-0.00018351,0.00047182,0.00072181,0.000
 51422,-0.00014611,-0.00164518,-0.00062190,0.00026571,-0.00225847,-0.00
 024970,-0.00162536,0.00309931,-0.00337696,-0.00103335,-0.00070696,-0.0
 0047682,0.00063545,0.00027640,0.00002344,0.00020349,-0.00008801,0.0001
 3538,-0.01143908,-0.00278009,-0.03211109,0.00182704,0.01382794,-0.0372
 3402,0.00835204,-0.00614146,-0.00202202,-0.00152938,0.00004839,0.00029
 445,-0.00266473,0.00033277,0.00113818,-0.00066475,0.00139246,0.0003262
 9,-0.00671216,0.01820634,-0.03111279,0.02008932,-0.01653256,0.09202110
 ,-0.02087181,-0.01312233,-0.00692001,-0.00248330,-0.00146509,-0.001950
 84,-0.00025844,0.00120878,0.00024179,-0.00016034,0.00010012,0.00030017
 ,0.00017148,0.00031808,-0.00014671,0.00299988,-0.00771911,-0.00457641,
 0.00087594,-0.00045878,0.00065904,0.00074909,0.00054055,-0.00081791,-0
 .00029195,-0.00212273,-0.00097458,-0.00764135,0.02478069,-0.00176898,-
 0.00380229,0.00026495,-0.00106697,0.00101279,0.00002684,-0.00012358,-0
 .00016961,0.00006011,-0.00004228,-0.00010644,-0.00001072,0.00008486,-0
 .00011123,0.00005533,0.00007295,0.00372948,0.00052708,0.00227079,0.000
 32702,0.00011108,0.00045939,0.03806017,-0.02664814,-0.02518419,0.01481
 409,0.00371875,0.00212840,0.00232582,0.00050014,-0.00150634,-0.0002169
 9,-0.00011605,0.00004039,-0.00019944,-0.00026881,0.00014540,-0.0001072
 0,0.00889929,-0.02614440,-0.01520544,0.00048164,0.00008339,-0.00035184
 ,0.00056381,-0.00077650,-0.00048300,-0.00400709,-0.00239837,-0.0015109
 2,0.01488747,-0.02751536,0.00222874,0.00494019,0.00154312,0.00283524,-
 0.00052907,0.00014106,0.00049226,0.00027531,-0.00010962,0.00000544,0.0
 0011844,0.00000354,-0.00010633,-0.00021007,0.00012597,0.00004037,-0.00
 766451,-0.00166771,-0.00559058,-0.00153154,-0.00288664,-0.00034961,-0.
 01881310,0.07741826,-0.01609508,0.00441665,-0.01738552,-0.00082997,0.0
 0099147,0.00072149,0.00006736,-0.00000559,0.00004497,-0.00035701,0.000
 76033,-0.00000220,0.00001420,0.00001078,-0.00009870,0.00452789,-0.0155
 1842,-0.00534857,0.00120791,-0.00027156,0.00014280,-0.00076957,-0.0008
 3033,0.00071453,-0.00198038,-0.00158921,0.00055249,-0.00226689,0.00346
 324,0.00764131,0.00326924,-0.00004891,0.00372509,-0.00044028,-0.000003
 11,0.00046040,0.00028528,-0.00005979,0.00002620,-0.00001507,0.00000111
 ,-0.00005819,-0.00017261,0.00013035,-0.00005312,-0.00728560,-0.0014417
 5,-0.00554064,0.00085857,-0.00024034,-0.00146233,-0.01259335,0.0282011
 8,0.04637099,-0.24355095,-0.08150263,0.13357574,0.00155536,0.00144854,
 0.00258993,0.00055247,-0.00165590,-0.00031422,-0.00019901,-0.00181576,
 -0.00076364,0.00010200,0.00072913,-0.00083828,-0.02632648,-0.01682597,
 0.03821773,0.00255860,0.00140946,0.00158325,-0.00636895,-0.00604124,-0
 .00181679,0.00109333,-0.00024331,0.00032255,0.03608673,0.00331439,0.00
 314605,-0.06106654,-0.00199299,-0.06625244,0.00931369,-0.00361921,-0.0
 0931394,-0.00372094,0.00132623,0.00058796,-0.00041775,-0.00009083,0.00
 042588,0.00004859,0.00082283,0.00137823,0.03871561,0.01443470,0.032970
 55,-0.02234610,-0.01747030,0.01424343,-0.01202909,0.02540335,0.0325753
 7,0.28599943,-0.07227338,-0.11179801,0.05339998,-0.00091300,0.00463776
 ,0.00102696,0.00027433,-0.00066240,0.00003881,-0.00043403,0.00046830,-
 0.00078258,-0.00009669,0.00000362,0.00012653,-0.02206066,-0.00135118,0
 .02217963,-0.00121157,-0.00007101,0.00032326,-0.00530680,-0.00182888,-
 0.00069668,0.00211186,0.00278782,0.00149665,0.01015506,-0.00344266,0.0
 3650911,-0.01989940,0.01262237,-0.02023654,0.00179250,-0.00076717,-0.0
 0484233,-0.00180792,0.00059913,0.00040219,0.00014436,-0.00003715,0.000
 17510,-0.00058829,0.00038561,0.00046707,0.02468635,-0.01528802,0.01236
 142,-0.01266045,-0.01106588,0.00528800,0.01571825,0.00655958,-0.017966
 09,0.08236948,0.11824818,0.18303985,0.08547035,-0.27878467,0.00081111,
 -0.01030336,-0.00711379,-0.00071553,0.00290586,0.00081038,-0.00082730,
 0.00201780,0.00191062,-0.00002581,0.00132324,0.00009840,0.01007945,0.0
 0464645,0.00214398,0.00126961,-0.00029999,-0.00006726,-0.00105287,-0.0
 0071439,0.00172054,-0.00047769,0.00149124,0.00024734,-0.01338755,0.032
 53420,-0.05575914,-0.02524797,-0.00784243,0.00423544,0.00013819,-0.002
 01272,-0.00306849,-0.00074460,0.00055204,0.00046926,-0.00082901,-0.000
 06321,0.00001727,-0.00047984,0.00088164,-0.00021979,-0.00738923,-0.002
 75205,-0.03614522,0.01126390,0.00825764,-0.00495041,0.02689263,-0.0268
 2179,-0.03045098,-0.18231735,-0.08927051,0.40490653\\0.00000105,0.0000
 0862,0.00000607,-0.00000593,-0.00000422,-0.00001005,-0.00000845,-0.000
 01234,-0.00001102,-0.00000813,0.00000029,-0.00001121,-0.00000999,-0.00
 000148,-0.00001299,-0.00000126,0.00001603,-0.00000210,0.,0.00002229,0.
 00000111,-0.00000350,0.00001109,-0.00000383,-0.00000674,0.00001697,-0.
 00000821,0.00000258,-0.00000473,-0.00000042,0.00000014,-0.00001357,-0.
 00000192,0.00000427,-0.00001238,0.00000628,0.00000361,-0.00002027,0.00
 000413,0.00000765,-0.00001013,0.00000972,-0.00000023,-0.00000825,-0.00
 000082,0.00000615,0.00000521,0.00001714,0.00000112,-0.00000638,0.00000
 530,0.00000816,0.00000390,0.00001160,0.00000949,0.00000935,0.00000120\
 \\@


 LAWS OF PROGRAMMING DEFINITION:  A WORKING PROGRAM
                                  IS ONE THAT HAS
                                  ONLY UNOBSERVED
                                  BUGS.
 Job cpu time:       2 days 19 hours 50 minutes 12.5 seconds.
 File lengths (MBytes):  RWF=    404 Int=      0 D2E=      0 Chk=     28 Scr=      1
 Normal termination of Gaussian 09 at Sat Mar 28 12:40:30 2015.
