 Entering Link 1 = C:\G09W\l1.exe PID=      5816.
  
 Copyright (c) 1988,1990,1992,1993,1995,1998,2003,2009, Gaussian, Inc.
                  All Rights Reserved.
  
 This is part of the Gaussian(R) 09 program.  It is based on
 the Gaussian(R) 03 system (copyright 2003, Gaussian, Inc.),
 the Gaussian(R) 98 system (copyright 1998, Gaussian, Inc.),
 the Gaussian(R) 94 system (copyright 1995, Gaussian, Inc.),
 the Gaussian 92(TM) system (copyright 1992, Gaussian, Inc.),
 the Gaussian 90(TM) system (copyright 1990, Gaussian, Inc.),
 the Gaussian 88(TM) system (copyright 1988, Gaussian, Inc.),
 the Gaussian 86(TM) system (copyright 1986, Carnegie Mellon
 University), and the Gaussian 82(TM) system (copyright 1983,
 Carnegie Mellon University). Gaussian is a federally registered
 trademark of Gaussian, Inc.
  
 This software contains proprietary and confidential information,
 including trade secrets, belonging to Gaussian, Inc.
  
 This software is provided under written license and may be
 used, copied, transmitted, or stored only in accord with that
 written license.
  
 The following legend is applicable only to US Government
 contracts under FAR:
  
                    RESTRICTED RIGHTS LEGEND
  
 Use, reproduction and disclosure by the US Government is
 subject to restrictions as set forth in subparagraphs (a)
 and (c) of the Commercial Computer Software - Restricted
 Rights clause in FAR 52.227-19.
  
 Gaussian, Inc.
 340 Quinnipiac St., Bldg. 40, Wallingford CT 06492
  
  
 ---------------------------------------------------------------
 Warning -- This program may not be used in any manner that
 competes with the business of Gaussian, Inc. or will provide
 assistance to any competitor of Gaussian, Inc.  The licensee
 of this program is prohibited from giving any competitor of
 Gaussian, Inc. access to this program.  By using this program,
 the user acknowledges that Gaussian, Inc. is engaged in the
 business of creating and licensing software in the field of
 computational chemistry and represents and warrants to the
 licensee that it is not a competitor of Gaussian, Inc. and that
 it will not use this program in any manner prohibited above.
 ---------------------------------------------------------------
  

 Cite this work as:
 Gaussian 09, Revision A.02,
 M. J. Frisch, G. W. Trucks, H. B. Schlegel, G. E. Scuseria, 
 M. A. Robb, J. R. Cheeseman, G. Scalmani, V. Barone, B. Mennucci, 
 G. A. Petersson, H. Nakatsuji, M. Caricato, X. Li, H. P. Hratchian, 
 A. F. Izmaylov, J. Bloino, G. Zheng, J. L. Sonnenberg, M. Hada, 
 M. Ehara, K. Toyota, R. Fukuda, J. Hasegawa, M. Ishida, T. Nakajima, 
 Y. Honda, O. Kitao, H. Nakai, T. Vreven, J. A. Montgomery, Jr., 
 J. E. Peralta, F. Ogliaro, M. Bearpark, J. J. Heyd, E. Brothers, 
 K. N. Kudin, V. N. Staroverov, R. Kobayashi, J. Normand, 
 K. Raghavachari, A. Rendell, J. C. Burant, S. S. Iyengar, J. Tomasi, 
 M. Cossi, N. Rega, J. M. Millam, M. Klene, J. E. Knox, J. B. Cross, 
 V. Bakken, C. Adamo, J. Jaramillo, R. Gomperts, R. E. Stratmann, 
 O. Yazyev, A. J. Austin, R. Cammi, C. Pomelli, J. W. Ochterski, 
 R. L. Martin, K. Morokuma, V. G. Zakrzewski, G. A. Voth, 
 P. Salvador, J. J. Dannenberg, S. Dapprich, A. D. Daniels, 
 O. Farkas, J. B. Foresman, J. V. Ortiz, J. Cioslowski, 
 and D. J. Fox, Gaussian, Inc., Wallingford CT, 2009.
 
 ******************************************
 Gaussian 09:  IA32W-G09RevA.02 11-Jun-2009
                29-Jan-2015 
 ******************************************
 ----------------------------------------------------------------------
 # opt=(calcfc,ts,noeigentest) freq=noraman b3lyp/6-31+g(d) geom=connec
 tivity
 ----------------------------------------------------------------------
 1/5=1,10=4,11=1,14=-1,18=20,26=3,38=1,57=2/1,3;
 2/9=110,12=2,17=6,18=5,40=1/2;
 3/5=1,6=6,7=11,11=2,16=1,25=1,30=1,71=2,74=-5/1,2,3;
 4//1;
 5/5=2,38=5/2;
 8/6=4,10=90,11=11/1;
 11/6=1,8=1,9=11,15=111,16=1/1,2,10;
 10/6=1,7=6,13=1/2;
 6/7=2,8=2,9=2,10=2,28=1/1;
 7/10=1,18=20,25=1/1,2,3,16;
 1/5=1,10=4,11=1,14=-1,18=20/3(2);
 2/9=110/2;
 99//99;
 2/9=110/2;
 3/5=1,6=6,7=11,11=2,16=1,25=1,30=1,71=1,74=-5/1,2,3;
 4/5=5,16=3/1;
 5/5=2,38=5/2;
 7//1,2,3,16;
 1/5=1,11=1,14=-1,18=20/3(-5);
 2/9=110/2;
 6/7=2,8=2,9=2,10=2,19=2,28=1/1;
 99/9=1/99;
 -------------------
 Title Card Required
 -------------------
 Symbolic Z-matrix:
 Charge =  0 Multiplicity = 1
 C                     1.03864  -0.44423   0.15046 
 O                     0.14066  -0.92438   0.90514 
 O                     0.23413   0.69407  -0.72018 
 O                    -1.87108  -0.6155   -0.42045 
 C                    -2.86906   0.02124   0.41467 
 H                    -2.40055   0.51502   1.27139 
 H                    -3.38905   0.73373  -0.23411 
 H                    -3.55655  -0.76608   0.74698 
 H                    -0.92912   0.23641  -0.72989 
 H                    -1.18981  -1.20177   0.23529 
 C                     2.3178    0.14147   0.67281 
 H                     3.00343  -0.66652   0.98211 
 H                     2.84725   0.74589  -0.07611 
 H                     2.13892   0.75634   1.56506 
 C                     0.16568   2.00624  -0.11717 
 H                     1.15585   2.46142  -0.22981 
 H                    -0.5738    2.57023  -0.69535 
 H                    -0.11844   1.92899   0.93699 
 F                     1.22932  -1.21061  -0.95703 
 

 GradGradGradGradGradGradGradGradGradGradGradGradGradGradGradGradGradGrad
 Berny optimization.
 Initialization pass.
                           ----------------------------
                           !    Initial Parameters    !
                           ! (Angstroms and Degrees)  !
 --------------------------                            --------------------------
 ! Name  Definition              Value          Derivative Info.                !
 --------------------------------------------------------------------------------
 ! R1    R(1,2)                  1.2675         calculate D2E/DX2 analytically  !
 ! R2    R(1,3)                  1.6435         calculate D2E/DX2 analytically  !
 ! R3    R(1,11)                 1.5007         calculate D2E/DX2 analytically  !
 ! R4    R(1,19)                 1.3602         calculate D2E/DX2 analytically  !
 ! R5    R(2,10)                 1.5152         calculate D2E/DX2 analytically  !
 ! R6    R(3,9)                  1.2501         calculate D2E/DX2 analytically  !
 ! R7    R(3,15)                 1.4457         calculate D2E/DX2 analytically  !
 ! R8    R(4,5)                  1.4487         calculate D2E/DX2 analytically  !
 ! R9    R(4,9)                  1.3072         calculate D2E/DX2 analytically  !
 ! R10   R(4,10)                 1.1126         calculate D2E/DX2 analytically  !
 ! R11   R(5,6)                  1.0942         calculate D2E/DX2 analytically  !
 ! R12   R(5,7)                  1.095          calculate D2E/DX2 analytically  !
 ! R13   R(5,8)                  1.0968         calculate D2E/DX2 analytically  !
 ! R14   R(11,12)                1.1039         calculate D2E/DX2 analytically  !
 ! R15   R(11,13)                1.0984         calculate D2E/DX2 analytically  !
 ! R16   R(11,14)                1.0983         calculate D2E/DX2 analytically  !
 ! R17   R(15,16)                1.0956         calculate D2E/DX2 analytically  !
 ! R18   R(15,17)                1.0951         calculate D2E/DX2 analytically  !
 ! R19   R(15,18)                1.0945         calculate D2E/DX2 analytically  !
 ! A1    A(2,1,3)              103.3558         calculate D2E/DX2 analytically  !
 ! A2    A(2,1,11)             122.9901         calculate D2E/DX2 analytically  !
 ! A3    A(2,1,19)             111.7568         calculate D2E/DX2 analytically  !
 ! A4    A(3,1,11)             109.3495         calculate D2E/DX2 analytically  !
 ! A5    A(3,1,19)              91.5779         calculate D2E/DX2 analytically  !
 ! A6    A(11,1,19)            112.569          calculate D2E/DX2 analytically  !
 ! A7    A(1,2,10)             115.3559         calculate D2E/DX2 analytically  !
 ! A8    A(1,3,9)              101.8916         calculate D2E/DX2 analytically  !
 ! A9    A(1,3,15)             115.5219         calculate D2E/DX2 analytically  !
 ! A10   A(9,3,15)             106.946          calculate D2E/DX2 analytically  !
 ! A11   A(5,4,9)              110.2684         calculate D2E/DX2 analytically  !
 ! A12   A(5,4,10)             108.2803         calculate D2E/DX2 analytically  !
 ! A13   A(9,4,10)              92.3898         calculate D2E/DX2 analytically  !
 ! A14   A(4,5,6)              110.7762         calculate D2E/DX2 analytically  !
 ! A15   A(4,5,7)              105.7583         calculate D2E/DX2 analytically  !
 ! A16   A(4,5,8)              106.9153         calculate D2E/DX2 analytically  !
 ! A17   A(6,5,7)              111.9383         calculate D2E/DX2 analytically  !
 ! A18   A(6,5,8)              110.7995         calculate D2E/DX2 analytically  !
 ! A19   A(7,5,8)              110.4227         calculate D2E/DX2 analytically  !
 ! A20   A(3,9,4)              155.1338         calculate D2E/DX2 analytically  !
 ! A21   A(2,10,4)             134.5691         calculate D2E/DX2 analytically  !
 ! A22   A(1,11,12)            109.9543         calculate D2E/DX2 analytically  !
 ! A23   A(1,11,13)            112.848          calculate D2E/DX2 analytically  !
 ! A24   A(1,11,14)            111.2506         calculate D2E/DX2 analytically  !
 ! A25   A(12,11,13)           107.1229         calculate D2E/DX2 analytically  !
 ! A26   A(12,11,14)           106.4581         calculate D2E/DX2 analytically  !
 ! A27   A(13,11,14)           108.9267         calculate D2E/DX2 analytically  !
 ! A28   A(3,15,16)            106.9428         calculate D2E/DX2 analytically  !
 ! A29   A(3,15,17)            106.2125         calculate D2E/DX2 analytically  !
 ! A30   A(3,15,18)            110.4844         calculate D2E/DX2 analytically  !
 ! A31   A(16,15,17)           110.0007         calculate D2E/DX2 analytically  !
 ! A32   A(16,15,18)           111.2818         calculate D2E/DX2 analytically  !
 ! A33   A(17,15,18)           111.6898         calculate D2E/DX2 analytically  !
 ! D1    D(3,1,2,10)            43.6513         calculate D2E/DX2 analytically  !
 ! D2    D(11,1,2,10)          167.7157         calculate D2E/DX2 analytically  !
 ! D3    D(19,1,2,10)          -53.5425         calculate D2E/DX2 analytically  !
 ! D4    D(2,1,3,9)            -27.9597         calculate D2E/DX2 analytically  !
 ! D5    D(2,1,3,15)            87.5466         calculate D2E/DX2 analytically  !
 ! D6    D(11,1,3,9)          -160.5309         calculate D2E/DX2 analytically  !
 ! D7    D(11,1,3,15)          -45.0246         calculate D2E/DX2 analytically  !
 ! D8    D(19,1,3,9)            84.849          calculate D2E/DX2 analytically  !
 ! D9    D(19,1,3,15)         -159.6447         calculate D2E/DX2 analytically  !
 ! D10   D(2,1,11,12)           76.0629         calculate D2E/DX2 analytically  !
 ! D11   D(2,1,11,13)         -164.4075         calculate D2E/DX2 analytically  !
 ! D12   D(2,1,11,14)          -41.6209         calculate D2E/DX2 analytically  !
 ! D13   D(3,1,11,12)         -162.6147         calculate D2E/DX2 analytically  !
 ! D14   D(3,1,11,13)          -43.0851         calculate D2E/DX2 analytically  !
 ! D15   D(3,1,11,14)           79.7015         calculate D2E/DX2 analytically  !
 ! D16   D(19,1,11,12)         -62.3871         calculate D2E/DX2 analytically  !
 ! D17   D(19,1,11,13)          57.1425         calculate D2E/DX2 analytically  !
 ! D18   D(19,1,11,14)         179.929          calculate D2E/DX2 analytically  !
 ! D19   D(1,2,10,4)           -49.5979         calculate D2E/DX2 analytically  !
 ! D20   D(1,3,9,4)              2.7636         calculate D2E/DX2 analytically  !
 ! D21   D(15,3,9,4)          -118.8679         calculate D2E/DX2 analytically  !
 ! D22   D(1,3,15,16)           74.8403         calculate D2E/DX2 analytically  !
 ! D23   D(1,3,15,17)         -167.7123         calculate D2E/DX2 analytically  !
 ! D24   D(1,3,15,18)          -46.4143         calculate D2E/DX2 analytically  !
 ! D25   D(9,3,15,16)         -172.5666         calculate D2E/DX2 analytically  !
 ! D26   D(9,3,15,17)          -55.1191         calculate D2E/DX2 analytically  !
 ! D27   D(9,3,15,18)           66.1789         calculate D2E/DX2 analytically  !
 ! D28   D(9,4,5,6)            -51.9849         calculate D2E/DX2 analytically  !
 ! D29   D(9,4,5,7)             69.4987         calculate D2E/DX2 analytically  !
 ! D30   D(9,4,5,8)           -172.8052         calculate D2E/DX2 analytically  !
 ! D31   D(10,4,5,6)            47.7332         calculate D2E/DX2 analytically  !
 ! D32   D(10,4,5,7)           169.2168         calculate D2E/DX2 analytically  !
 ! D33   D(10,4,5,8)           -73.0871         calculate D2E/DX2 analytically  !
 ! D34   D(5,4,9,3)            114.1418         calculate D2E/DX2 analytically  !
 ! D35   D(10,4,9,3)             3.65           calculate D2E/DX2 analytically  !
 ! D36   D(5,4,10,2)           -94.1936         calculate D2E/DX2 analytically  !
 ! D37   D(9,4,10,2)            18.0741         calculate D2E/DX2 analytically  !
 --------------------------------------------------------------------------------
 Trust Radius=3.00D-01 FncErr=1.00D-07 GrdErr=1.00D-06
 Number of steps in this run=  99 maximum allowed number of steps= 114.
 Search for a saddle point of order  1.
 GradGradGradGradGradGradGradGradGradGradGradGradGradGradGradGradGradGrad

                          Input orientation:                          
 ---------------------------------------------------------------------
 Center     Atomic      Atomic             Coordinates (Angstroms)
 Number     Number       Type             X           Y           Z
 ---------------------------------------------------------------------
      1          6           0        1.038638   -0.444228    0.150458
      2          8           0        0.140657   -0.924384    0.905138
      3          8           0        0.234125    0.694069   -0.720178
      4          8           0       -1.871075   -0.615496   -0.420445
      5          6           0       -2.869059    0.021236    0.414667
      6          1           0       -2.400549    0.515022    1.271394
      7          1           0       -3.389051    0.733726   -0.234110
      8          1           0       -3.556552   -0.766079    0.746980
      9          1           0       -0.929120    0.236408   -0.729885
     10          1           0       -1.189813   -1.201772    0.235293
     11          6           0        2.317801    0.141469    0.672809
     12          1           0        3.003432   -0.666516    0.982111
     13          1           0        2.847250    0.745892   -0.076114
     14          1           0        2.138920    0.756342    1.565055
     15          6           0        0.165676    2.006238   -0.117169
     16          1           0        1.155848    2.461422   -0.229811
     17          1           0       -0.573795    2.570231   -0.695350
     18          1           0       -0.118440    1.928985    0.936989
     19          9           0        1.229320   -1.210607   -0.957029
 ---------------------------------------------------------------------
                    Distance matrix (angstroms):
                    1          2          3          4          5
     1  C    0.000000
     2  O    1.267463   0.000000
     3  O    1.643462   2.295600   0.000000
     4  O    2.970133   2.428919   2.497332   0.000000
     5  C    3.944180   3.192671   3.371992   1.448728   0.000000
     6  H    3.742281   2.943427   3.307556   2.102554   1.094215
     7  H    4.597814   4.062764   3.655850   2.039454   1.094964
     8  H    4.644911   3.703975   4.319006   2.055818   1.096788
     9  H    2.260606   2.272699   1.250075   1.307200   2.262667
    10  H    2.355221   1.515185   2.556313   1.112578   2.085136
    11  C    1.500716   2.435154   2.566610   4.394870   5.194671
    12  H    2.145105   2.875396   3.523924   5.072532   5.939793
    13  H    2.176878   3.328411   2.691826   4.922858   5.782921
    14  H    2.157098   2.693211   2.975636   4.680193   5.190725
    15  C    2.615047   3.103914   1.445715   3.333740   3.665065
    16  H    2.932771   3.712466   2.052698   4.320420   4.750762
    17  H    3.521689   3.909519   2.042874   3.450705   3.605239
    18  H    2.754923   2.865285   2.096550   3.374721   3.387954
    19  F    1.360229   2.175954   2.162013   3.202269   4.493962
                    6          7          8          9         10
     6  H    0.000000
     7  H    1.814252   0.000000
     8  H    1.803489   1.800003   0.000000
     9  H    2.499569   2.558198   3.176399   0.000000
    10  H    2.342385   2.967009   2.460306   1.751540   0.000000
    11  C    4.770815   5.808737   5.944507   3.538228   3.781411
    12  H    5.539199   6.656103   6.564952   4.383055   4.292731
    13  H    5.422958   6.238314   6.631155   3.866259   4.493133
    14  H    4.555354   5.813430   5.951925   3.866517   4.084476
    15  C    3.276789   3.777439   4.720961   2.169400   3.500415
    16  H    4.323199   4.862207   5.794618   3.089960   4.374636
    17  H    3.380680   3.392810   4.701927   2.360970   3.933647
    18  H    2.705391   3.673828   4.372652   2.510077   3.382581
    19  F    4.595608   5.062844   5.099590   2.608507   2.697020
                   11         12         13         14         15
    11  C    0.000000
    12  H    1.103901   0.000000
    13  H    1.098421   1.771759   0.000000
    14  H    1.098258   1.764010   1.787534   0.000000
    15  C    2.955177   4.050295   2.963275   2.878508   0.000000
    16  H    2.747188   3.829663   2.414023   2.663695   1.095592
    17  H    4.016475   5.107539   3.926221   3.969691   1.095079
    18  H    3.033195   4.060141   3.349836   2.620159   1.094504
    19  F    2.381023   2.683984   2.687303   3.325232   3.490673
                   16         17         18         19
    16  H    0.000000
    17  H    1.794500   0.000000
    18  H    1.807961   1.811926   0.000000
    19  F    3.744067   4.196956   3.906507   0.000000
 Stoichiometry    C4H11FO3
 Framework group  C1[X(C4H11FO3)]
 Deg. of freedom    51
 Full point group                 C1      NOp   1
 Largest Abelian subgroup         C1      NOp   1
 Largest concise Abelian subgroup C1      NOp   1
                         Standard orientation:                         
 ---------------------------------------------------------------------
 Center     Atomic      Atomic             Coordinates (Angstroms)
 Number     Number       Type             X           Y           Z
 ---------------------------------------------------------------------
      1          6           0        1.038638   -0.444228    0.150458
      2          8           0        0.140657   -0.924384    0.905138
      3          8           0        0.234125    0.694069   -0.720178
      4          8           0       -1.871075   -0.615496   -0.420445
      5          6           0       -2.869059    0.021236    0.414667
      6          1           0       -2.400549    0.515022    1.271394
      7          1           0       -3.389051    0.733726   -0.234110
      8          1           0       -3.556552   -0.766079    0.746980
      9          1           0       -0.929120    0.236408   -0.729885
     10          1           0       -1.189813   -1.201772    0.235293
     11          6           0        2.317801    0.141469    0.672809
     12          1           0        3.003432   -0.666516    0.982111
     13          1           0        2.847250    0.745892   -0.076114
     14          1           0        2.138920    0.756342    1.565055
     15          6           0        0.165676    2.006238   -0.117169
     16          1           0        1.155848    2.461422   -0.229811
     17          1           0       -0.573795    2.570231   -0.695350
     18          1           0       -0.118440    1.928985    0.936989
     19          9           0        1.229320   -1.210607   -0.957029
 ---------------------------------------------------------------------
 Rotational constants (GHZ):      2.7524908      1.3461166      1.1357869
 Standard basis: 6-31+G(d) (6D, 7F)
 There are   174 symmetry adapted basis functions of A   symmetry.
 Integral buffers will be    262144 words long.
 Raffenetti 2 integral format.
 Two-electron integral symmetry is turned on.
   174 basis functions,   300 primitive gaussians,   174 cartesian basis functions
    34 alpha electrons       34 beta electrons
       nuclear repulsion energy       452.3329082244 Hartrees.
 NAtoms=   19 NActive=   19 NUniq=   19 SFac= 7.50D-01 NAtFMM=   80 NAOKFM=F Big=F
 One-electron integrals computed using PRISM.
 NBasis=   174 RedAO= T  NBF=   174
 NBsUse=   174 1.00D-06 NBFU=   174
 Harris functional with IExCor=  402 diagonalized for initial guess.
 ExpMin= 4.38D-02 ExpMax= 7.00D+03 ExpMxC= 1.05D+03 IAcc=2 IRadAn=         0 AccDes= 0.00D+00
 HarFok:  IExCor=  402 AccDes= 0.00D+00 IRadAn=         0 IDoV= 1
 ScaDFX=  1.000000  1.000000  1.000000  1.000000
 FoFCou: FMM=F IPFlag=           0 FMFlag=      100000 FMFlg1=           0
         NFxFlg=           0 DoJE=T BraDBF=F KetDBF=T FulRan=T
         Omega=  0.000000  0.000000  1.000000  0.000000  0.000000 ICntrl=     500 IOpCl=  0
         NMat0=    1 NMatS0=    1 NMatT0=    0 NMatD0=    1 NMtDS0=    0 NMtDT0=    0
         I1Cent=           4 NGrid=           0.
 Petite list used in FoFCou.
 Initial guess orbital symmetries:
       Occupied  (A) (A) (A) (A) (A) (A) (A) (A) (A) (A) (A) (A)
                 (A) (A) (A) (A) (A) (A) (A) (A) (A) (A) (A) (A)
                 (A) (A) (A) (A) (A) (A) (A) (A) (A) (A)
       Virtual   (A) (A) (A) (A) (A) (A) (A) (A) (A) (A) (A) (A)
                 (A) (A) (A) (A) (A) (A) (A) (A) (A) (A) (A) (A)
                 (A) (A) (A) (A) (A) (A) (A) (A) (A) (A) (A) (A)
                 (A) (A) (A) (A) (A) (A) (A) (A) (A) (A) (A) (A)
                 (A) (A) (A) (A) (A) (A) (A) (A) (A) (A) (A) (A)
                 (A) (A) (A) (A) (A) (A) (A) (A) (A) (A) (A) (A)
                 (A) (A) (A) (A) (A) (A) (A) (A) (A) (A) (A) (A)
                 (A) (A) (A) (A) (A) (A) (A) (A) (A) (A) (A) (A)
                 (A) (A) (A) (A) (A) (A) (A) (A) (A) (A) (A) (A)
                 (A) (A) (A) (A) (A) (A) (A) (A) (A) (A) (A) (A)
                 (A) (A) (A) (A) (A) (A) (A) (A) (A) (A) (A) (A)
                 (A) (A) (A) (A) (A) (A) (A) (A)
 The electronic state of the initial guess is 1-A.
 Requested convergence on RMS density matrix=1.00D-08 within 128 cycles.
 Requested convergence on MAX density matrix=1.00D-06.
 Requested convergence on             energy=1.00D-06.
 No special actions if energy rises.
 SCF Done:  E(RB3LYP) =  -484.519610001     A.U. after   13 cycles
             Convg  =    0.4243D-08             -V/T =  2.0089
 Range of M.O.s used for correlation:     1   174
 NBasis=   174 NAE=    34 NBE=    34 NFC=     0 NFV=     0
 NROrb=    174 NOA=    34 NOB=    34 NVA=   140 NVB=   140

 **** Warning!!: The largest alpha MO coefficient is  0.26582742D+02

 Symmetrizing basis deriv contribution to polar:
 IMax=3 JMax=2 DiffMx= 0.00D+00
 G2DrvN: will do    20 centers at a time, making    1 passes doing MaxLOS=2.
 Calling FoFCou, ICntrl=  3107 FMM=F I1Cent=   0 AccDes= 0.00D+00.
 FoFDir/FoFCou used for L=0 through L=2.
 End of G2Drv Frequency-dependent properties file   721 does not exist.
 End of G2Drv Frequency-dependent properties file   722 does not exist.
          IDoAtm=1111111111111111111
          Differentiating once with respect to nuclear coordinates.
          There are    60 degrees of freedom in the 1st order CPHF.  IDoFFX=5.
     54 vectors produced by pass  0 Test12= 7.93D-11 1.67D-07 XBig12= 2.09D-01 6.36D-02.
 AX will form    54 AO Fock derivatives at one time.
     54 vectors produced by pass  1 Test12= 7.93D-11 1.67D-07 XBig12= 5.16D-02 3.75D-02.
     54 vectors produced by pass  2 Test12= 7.93D-11 1.67D-07 XBig12= 5.44D-04 2.46D-03.
     54 vectors produced by pass  3 Test12= 7.93D-11 1.67D-07 XBig12= 1.66D-06 1.44D-04.
     21 vectors produced by pass  4 Test12= 7.93D-11 1.67D-07 XBig12= 2.37D-09 5.59D-06.
      1 vectors produced by pass  5 Test12= 7.93D-11 1.67D-07 XBig12= 2.42D-12 1.75D-07.
 Inverted reduced A of dimension   238 with in-core refinement.
 End of Minotr Frequency-dependent properties file   721 does not exist.
 End of Minotr Frequency-dependent properties file   722 does not exist.

 **********************************************************************

            Population analysis using the SCF density.

 **********************************************************************

 Orbital symmetries:
       Occupied  (A) (A) (A) (A) (A) (A) (A) (A) (A) (A) (A) (A)
                 (A) (A) (A) (A) (A) (A) (A) (A) (A) (A) (A) (A)
                 (A) (A) (A) (A) (A) (A) (A) (A) (A) (A)
       Virtual   (A) (A) (A) (A) (A) (A) (A) (A) (A) (A) (A) (A)
                 (A) (A) (A) (A) (A) (A) (A) (A) (A) (A) (A) (A)
                 (A) (A) (A) (A) (A) (A) (A) (A) (A) (A) (A) (A)
                 (A) (A) (A) (A) (A) (A) (A) (A) (A) (A) (A) (A)
                 (A) (A) (A) (A) (A) (A) (A) (A) (A) (A) (A) (A)
                 (A) (A) (A) (A) (A) (A) (A) (A) (A) (A) (A) (A)
                 (A) (A) (A) (A) (A) (A) (A) (A) (A) (A) (A) (A)
                 (A) (A) (A) (A) (A) (A) (A) (A) (A) (A) (A) (A)
                 (A) (A) (A) (A) (A) (A) (A) (A) (A) (A) (A) (A)
                 (A) (A) (A) (A) (A) (A) (A) (A) (A) (A) (A) (A)
                 (A) (A) (A) (A) (A) (A) (A) (A) (A) (A) (A) (A)
                 (A) (A) (A) (A) (A) (A) (A) (A)
 The electronic state is 1-A.
 Alpha  occ. eigenvalues --  -24.68830 -19.19455 -19.18983 -19.10682 -10.35455
 Alpha  occ. eigenvalues --  -10.25405 -10.25335 -10.19940  -1.21652  -1.06227
 Alpha  occ. eigenvalues --   -1.02831  -0.99130  -0.75664  -0.71443  -0.70057
 Alpha  occ. eigenvalues --   -0.59678  -0.54679  -0.53841  -0.52363  -0.49338
 Alpha  occ. eigenvalues --   -0.47327  -0.46228  -0.45579  -0.45330  -0.41839
 Alpha  occ. eigenvalues --   -0.41177  -0.40463  -0.38515  -0.37039  -0.36176
 Alpha  occ. eigenvalues --   -0.34843  -0.30201  -0.27315  -0.26018
 Alpha virt. eigenvalues --   -0.00470   0.01311   0.01358   0.02469   0.03807
 Alpha virt. eigenvalues --    0.04525   0.05190   0.06367   0.07066   0.07243
 Alpha virt. eigenvalues --    0.07954   0.08914   0.09275   0.10842   0.11780
 Alpha virt. eigenvalues --    0.12822   0.13919   0.15119   0.16222   0.16714
 Alpha virt. eigenvalues --    0.17630   0.18595   0.18935   0.20004   0.20810
 Alpha virt. eigenvalues --    0.21039   0.21771   0.22919   0.25057   0.25382
 Alpha virt. eigenvalues --    0.25505   0.27765   0.29528   0.29623   0.30457
 Alpha virt. eigenvalues --    0.31096   0.31712   0.32580   0.33298   0.35389
 Alpha virt. eigenvalues --    0.35753   0.38074   0.39299   0.40163   0.42215
 Alpha virt. eigenvalues --    0.43368   0.46145   0.47158   0.50976   0.60380
 Alpha virt. eigenvalues --    0.63035   0.64601   0.66274   0.70717   0.72199
 Alpha virt. eigenvalues --    0.72490   0.74157   0.77508   0.81255   0.81526
 Alpha virt. eigenvalues --    0.86425   0.90546   0.93255   0.95169   0.95857
 Alpha virt. eigenvalues --    0.99782   1.00102   1.01769   1.04551   1.08494
 Alpha virt. eigenvalues --    1.11760   1.12129   1.14776   1.19728   1.21062
 Alpha virt. eigenvalues --    1.21876   1.23306   1.27686   1.29292   1.31492
 Alpha virt. eigenvalues --    1.32873   1.35438   1.41236   1.43724   1.46756
 Alpha virt. eigenvalues --    1.49639   1.51989   1.54616   1.55628   1.62038
 Alpha virt. eigenvalues --    1.64449   1.65760   1.69101   1.70141   1.72169
 Alpha virt. eigenvalues --    1.74608   1.77052   1.79676   1.82046   1.86131
 Alpha virt. eigenvalues --    1.88019   1.92334   1.92523   1.97459   2.02815
 Alpha virt. eigenvalues --    2.03431   2.04310   2.09505   2.12130   2.15230
 Alpha virt. eigenvalues --    2.16245   2.17158   2.19040   2.23435   2.25815
 Alpha virt. eigenvalues --    2.27001   2.29066   2.29300   2.31352   2.33190
 Alpha virt. eigenvalues --    2.37096   2.46402   2.50702   2.57183   2.67027
 Alpha virt. eigenvalues --    2.73158   2.80098   2.83853   2.87073   3.03845
 Alpha virt. eigenvalues --    3.09525   3.26744   4.13139   4.21579   4.29474
 Alpha virt. eigenvalues --    4.30893   4.41356   4.50790   4.61682   6.15066
          Condensed to atoms (all electrons):
              1          2          3          4          5          6
     1  C    5.228356   0.486579   0.195297   0.056796  -0.012826  -0.005707
     2  O    0.486579   8.498804  -0.148307  -0.108102   0.007707   0.005436
     3  O    0.195297  -0.148307   8.819372  -0.050190   0.016177   0.002479
     4  O    0.056796  -0.108102  -0.050190   8.800906   0.039012  -0.086493
     5  C   -0.012826   0.007707   0.016177   0.039012   5.160403   0.410067
     6  H   -0.005707   0.005436   0.002479  -0.086493   0.410067   0.525261
     7  H    0.000282  -0.000718  -0.001399  -0.040068   0.393082  -0.033079
     8  H   -0.000478   0.000185  -0.001069  -0.042609   0.388345  -0.030478
     9  H   -0.010695  -0.005423   0.105625   0.094370  -0.011353   0.000988
    10  H   -0.036334   0.127745  -0.004853   0.077721  -0.001408   0.002074
    11  C   -0.411688  -0.189027  -0.120892  -0.021463  -0.000251   0.001617
    12  H   -0.031406  -0.002593   0.006687   0.000021  -0.000078   0.000000
    13  H   -0.051119   0.007503  -0.000203   0.000448  -0.000056  -0.000001
    14  H   -0.050818  -0.004874  -0.003341  -0.000279  -0.000161   0.000004
    15  C   -0.131204   0.006814   0.015460   0.000342  -0.014863  -0.001607
    16  H   -0.013564  -0.001433  -0.038406  -0.001074   0.001469   0.000021
    17  H    0.006207  -0.001493  -0.044917  -0.000283  -0.000465  -0.000189
    18  H   -0.016567   0.013972  -0.080718   0.000878  -0.003614   0.001124
    19  F    0.171554  -0.065359  -0.094953  -0.001208   0.000314   0.000035
              7          8          9         10         11         12
     1  C    0.000282  -0.000478  -0.010695  -0.036334  -0.411688  -0.031406
     2  O   -0.000718   0.000185  -0.005423   0.127745  -0.189027  -0.002593
     3  O   -0.001399  -0.001069   0.105625  -0.004853  -0.120892   0.006687
     4  O   -0.040068  -0.042609   0.094370   0.077721  -0.021463   0.000021
     5  C    0.393082   0.388345  -0.011353  -0.001408  -0.000251  -0.000078
     6  H   -0.033079  -0.030478   0.000988   0.002074   0.001617   0.000000
     7  H    0.505145  -0.025627  -0.002915   0.002273   0.000201   0.000000
     8  H   -0.025627   0.504334   0.001782  -0.003698  -0.000275   0.000000
     9  H   -0.002915   0.001782   0.270159  -0.005340   0.009275  -0.000068
    10  H    0.002273  -0.003698  -0.005340   0.282075   0.026476  -0.000031
    11  C    0.000201  -0.000275   0.009275   0.026476   6.309144   0.377743
    12  H    0.000000   0.000000  -0.000068  -0.000031   0.377743   0.459002
    13  H    0.000000   0.000000   0.000055  -0.000076   0.390008  -0.024147
    14  H    0.000000   0.000000  -0.000028   0.000030   0.389891  -0.022375
    15  C   -0.001451   0.001741  -0.008108   0.002236   0.045966   0.000825
    16  H    0.000002  -0.000001   0.001431   0.000006   0.007600   0.000019
    17  H    0.000111   0.000007  -0.003100  -0.000010  -0.000871  -0.000002
    18  H    0.000031   0.000006  -0.000106   0.000113  -0.001371   0.000006
    19  F   -0.000002  -0.000001   0.007433  -0.002345  -0.137405  -0.004569
             13         14         15         16         17         18
     1  C   -0.051119  -0.050818  -0.131204  -0.013564   0.006207  -0.016567
     2  O    0.007503  -0.004874   0.006814  -0.001433  -0.001493   0.013972
     3  O   -0.000203  -0.003341   0.015460  -0.038406  -0.044917  -0.080718
     4  O    0.000448  -0.000279   0.000342  -0.001074  -0.000283   0.000878
     5  C   -0.000056  -0.000161  -0.014863   0.001469  -0.000465  -0.003614
     6  H   -0.000001   0.000004  -0.001607   0.000021  -0.000189   0.001124
     7  H    0.000000   0.000000  -0.001451   0.000002   0.000111   0.000031
     8  H    0.000000   0.000000   0.001741  -0.000001   0.000007   0.000006
     9  H    0.000055  -0.000028  -0.008108   0.001431  -0.003100  -0.000106
    10  H   -0.000076   0.000030   0.002236   0.000006  -0.000010   0.000113
    11  C    0.390008   0.389891   0.045966   0.007600  -0.000871  -0.001371
    12  H   -0.024147  -0.022375   0.000825   0.000019  -0.000002   0.000006
    13  H    0.489603  -0.031032  -0.006341   0.001283   0.000011   0.000164
    14  H   -0.031032   0.485030   0.002828  -0.001584   0.000066   0.000431
    15  C   -0.006341   0.002828   5.263347   0.390738   0.386295   0.411934
    16  H    0.001283  -0.001584   0.390738   0.503518  -0.023872  -0.034897
    17  H    0.000011   0.000066   0.386295  -0.023872   0.510937  -0.031544
    18  H    0.000164   0.000431   0.411934  -0.034897  -0.031544   0.521495
    19  F   -0.004244   0.006936   0.011305  -0.000164  -0.000741   0.000333
             19
     1  C    0.171554
     2  O   -0.065359
     3  O   -0.094953
     4  O   -0.001208
     5  C    0.000314
     6  H    0.000035
     7  H   -0.000002
     8  H   -0.000001
     9  H    0.007433
    10  H   -0.002345
    11  C   -0.137405
    12  H   -0.004569
    13  H   -0.004244
    14  H    0.006936
    15  C    0.011305
    16  H   -0.000164
    17  H   -0.000741
    18  H    0.000333
    19  F    9.439228
 Mulliken atomic charges:
              1
     1  C    0.627333
     2  O   -0.627415
     3  O   -0.571849
     4  O   -0.718725
     5  C   -0.371502
     6  H    0.208445
     7  H    0.204130
     8  H    0.207836
     9  H    0.556017
    10  H    0.533346
    11  C   -0.674680
    12  H    0.240964
    13  H    0.228143
    14  H    0.229274
    15  C   -0.376257
    16  H    0.208907
    17  H    0.203852
    18  H    0.218331
    19  F   -0.326150
 Sum of Mulliken atomic charges =   0.00000
 Mulliken charges with hydrogens summed into heavy atoms:
              1
     1  C    0.627333
     2  O   -0.627415
     3  O   -0.015832
     4  O   -0.185379
     5  C    0.248909
    11  C    0.023701
    15  C    0.254832
    19  F   -0.326150
 Sum of Mulliken charges with hydrogens summed into heavy atoms =   0.00000
 APT atomic charges:
              1
     1  C    0.493749
     2  O   -0.656350
     3  O   -0.272523
     4  O   -0.360480
     5  C   -1.418745
     6  H    0.242836
     7  H    0.525163
     8  H    0.635839
     9  H    0.492281
    10  H    0.478359
    11  C   -1.515984
    12  H    0.630836
    13  H    0.492260
    14  H    0.437709
    15  C   -1.277543
    16  H    0.507933
    17  H    0.503325
    18  H    0.324565
    19  F   -0.263230
 Sum of APT charges=   0.00000
 APT Atomic charges with hydrogens summed into heavy atoms:
              1
     1  C    0.493749
     2  O   -0.656350
     3  O    0.219757
     4  O    0.117879
     5  C   -0.014906
     6  H    0.000000
     7  H    0.000000
     8  H    0.000000
     9  H    0.000000
    10  H    0.000000
    11  C    0.044822
    12  H    0.000000
    13  H    0.000000
    14  H    0.000000
    15  C    0.058280
    16  H    0.000000
    17  H    0.000000
    18  H    0.000000
    19  F   -0.263230
 Sum of APT charges=   0.00000
 Electronic spatial extent (au):  <R**2>=           1147.3002
 Charge=              0.0000 electrons
 Dipole moment (field-independent basis, Debye):
    X=             -1.2900    Y=              3.8881    Z=              1.2476  Tot=              4.2823
 Quadrupole moment (field-independent basis, Debye-Ang):
   XX=            -40.5041   YY=            -49.0386   ZZ=            -54.8407
   XY=              0.7596   XZ=              0.1484   YZ=             -0.4675
 Traceless Quadrupole moment (field-independent basis, Debye-Ang):
   XX=              7.6237   YY=             -0.9108   ZZ=             -6.7129
   XY=              0.7596   XZ=              0.1484   YZ=             -0.4675
 Octapole moment (field-independent basis, Debye-Ang**2):
  XXX=             -6.8361  YYY=             -0.1492  ZZZ=             -7.7936  XYY=             -2.1980
  XXY=             -0.2116  XXZ=              8.4036  XZZ=             -1.0393  YZZ=              1.8818
  YYZ=             -2.9018  XYZ=              2.1016
 Hexadecapole moment (field-independent basis, Debye-Ang**3):
 XXXX=           -825.6557 YYYY=           -365.6129 ZZZZ=           -192.5274 XXXY=             -8.6302
 XXXZ=            -13.1311 YYYX=              1.1740 YYYZ=             -0.4660 ZZZX=             -4.3885
 ZZZY=             10.0837 XXYY=           -207.0721 XXZZ=           -181.7050 YYZZ=            -96.6367
 XXYZ=            -14.7135 YYXZ=             -1.7163 ZZXY=             -2.3715
 N-N= 4.523329082244D+02 E-N=-2.042378514946D+03  KE= 4.802312859222D+02
  Exact polarizability:   0.000   0.000   0.000   0.000   0.000   0.000
 Approx polarizability:  97.072   1.918  90.378  -0.863  -3.538  85.972
 Calling FoFJK, ICntrl=    100147 FMM=F ISym2X=0 I1Cent= 0 IOpClX= 0 NMat=1 NMatS=1 NMatT=0.
 ***** Axes restored to original set *****
 -------------------------------------------------------------------
 Center     Atomic                   Forces (Hartrees/Bohr)
 Number     Number              X              Y              Z
 -------------------------------------------------------------------
      1        6          -0.040876569   -0.005347683    0.003501942
      2        8           0.014659344   -0.012727915    0.032758540
      3        8          -0.024763752    0.030973119   -0.006675530
      4        8           0.015228506   -0.005238969    0.014341210
      5        6           0.000437633   -0.009234625   -0.009864919
      6        1          -0.001082962    0.000868227    0.000660520
      7        1          -0.001878060    0.000398030    0.004792764
      8        1          -0.001224414    0.004902689    0.001558110
      9        1           0.018586312   -0.013665503    0.006284156
     10        1          -0.006782447    0.030998237   -0.022426202
     11        6           0.014141889    0.004009863    0.007041004
     12        1          -0.006583925    0.000996198   -0.003013654
     13        1          -0.003046541   -0.002656388   -0.000149914
     14        1          -0.002151183   -0.001873582   -0.003292313
     15        6           0.004210627   -0.007303055   -0.010552832
     16        1          -0.003581016    0.003473959    0.002552075
     17        1           0.001119436    0.002872361    0.003595281
     18        1          -0.000719148    0.002167853    0.001069928
     19        9           0.024306271   -0.023612817   -0.022180169
 -------------------------------------------------------------------
 Cartesian Forces:  Max     0.040876569 RMS     0.013113922

 GradGradGradGradGradGradGradGradGradGradGradGradGradGradGradGradGradGrad
 Berny optimization.
 Internal  Forces:  Max     0.034769996 RMS     0.007914898
 Search for a saddle point.
 Step number   1 out of a maximum of   99
 All quantities printed in internal units (Hartrees-Bohrs-Radians)
 Swaping is turned off.
 Second derivative matrix not updated -- analytic derivatives used.
     Eigenvalues ---   -0.05185   0.00161   0.00202   0.00206   0.00282
     Eigenvalues ---    0.00356   0.00603   0.00861   0.01954   0.02674
     Eigenvalues ---    0.03409   0.04363   0.04506   0.05600   0.06422
     Eigenvalues ---    0.06505   0.06549   0.06599   0.06624   0.06978
     Eigenvalues ---    0.08081   0.09949   0.11486   0.12281   0.12890
     Eigenvalues ---    0.13661   0.13926   0.14568   0.15435   0.15898
     Eigenvalues ---    0.17909   0.18635   0.18737   0.18858   0.19072
     Eigenvalues ---    0.19589   0.20231   0.30965   0.32647   0.33042
     Eigenvalues ---    0.33476   0.33514   0.33780   0.33853   0.33927
     Eigenvalues ---    0.34059   0.34128   0.35994   0.36507   0.36559
     Eigenvalues ---    0.611791000.000001000.000001000.000001000.00000
     Eigenvalues --- 1000.000001000.000001000.000001000.000001000.00000
     Eigenvalues --- 1000.000001000.000001000.000001000.000001000.00000
     Eigenvalues --- 1000.000001000.000001000.000001000.000001000.00000
     Eigenvalues --- 1000.000001000.000001000.000001000.000001000.00000
     Eigenvalues --- 1000.000001000.000001000.000001000.000001000.00000
     Eigenvalues --- 1000.000001000.000001000.000001000.000001000.00000
     Eigenvalues --- 1000.000001000.000001000.000001000.00000
 Eigenvectors required to have negative eigenvalues:
                          R9        R6        R5        R2        R10
   1                    0.60208  -0.54464   0.37612   0.29223  -0.21798
                          R1        D2        D17       D16       D12
   1                   -0.08127  -0.07035  -0.06957  -0.06607   0.06584
 RFO step:  Lambda0=2.351928434D-03 Lambda=-2.81854278D-02.
 Linear search not attempted -- option 19 set.
 Maximum step size (   0.300) exceeded in Quadratic search.
    -- Step size scaled by   0.616
 Iteration  1 RMS(Cart)=  0.04303418 RMS(Int)=  0.00136439
 Iteration  2 RMS(Cart)=  0.00229335 RMS(Int)=  0.00057589
 Iteration  3 RMS(Cart)=  0.00000164 RMS(Int)=  0.00057589
 Iteration  4 RMS(Cart)=  0.00000000 RMS(Int)=  0.00057589
 Variable       Old X    -DE/DX   Delta X   Delta X   Delta X     New X
                                 (Linear)    (Quad)   (Total)
    R1        2.39516   0.00213   0.00000   0.00235   0.00269   2.39785
    R2        3.10569   0.02195   0.00000   0.02518   0.02457   3.13027
    R3        2.83594   0.00240   0.00000   0.01046   0.01046   2.84641
    R4        2.57046   0.03477   0.00000   0.04464   0.04464   2.61510
    R5        2.86329   0.00050   0.00000  -0.04640  -0.04538   2.81791
    R6        2.36230  -0.01867   0.00000   0.01494   0.01408   2.37637
    R7        2.73201  -0.00033   0.00000  -0.01611  -0.01611   2.71590
    R8        2.73770  -0.00042   0.00000  -0.00594  -0.00594   2.73176
    R9        2.47025  -0.00825   0.00000  -0.15131  -0.15191   2.31834
   R10        2.10247  -0.02113   0.00000  -0.04680  -0.04600   2.05647
   R11        2.06777   0.00044   0.00000   0.00116   0.00116   2.06893
   R12        2.06918  -0.00169   0.00000  -0.00318  -0.00318   2.06601
   R13        2.07263  -0.00228   0.00000  -0.00468  -0.00468   2.06795
   R14        2.08607  -0.00566   0.00000  -0.01033  -0.01033   2.07574
   R15        2.07572  -0.00283   0.00000  -0.00564  -0.00564   2.07007
   R16        2.07541  -0.00337   0.00000  -0.00606  -0.00606   2.06935
   R17        2.07037  -0.00206   0.00000  -0.00187  -0.00187   2.06850
   R18        2.06940  -0.00118   0.00000  -0.00059  -0.00059   2.06881
   R19        2.06831   0.00107   0.00000   0.00378   0.00378   2.07209
    A1        1.80390   0.00811   0.00000   0.04364   0.04361   1.84751
    A2        2.14658  -0.00896   0.00000  -0.02853  -0.02819   2.11840
    A3        1.95052   0.01239   0.00000   0.02365   0.02148   1.97201
    A4        1.90851  -0.00471   0.00000  -0.01245  -0.01253   1.89598
    A5        1.59834   0.01060   0.00000   0.02936   0.02905   1.62739
    A6        1.96470  -0.01072   0.00000  -0.03184  -0.03196   1.93273
    A7        2.01334  -0.02374   0.00000  -0.11011  -0.10978   1.90356
    A8        1.77834  -0.01296   0.00000  -0.04252  -0.04335   1.73500
    A9        2.01624   0.00795   0.00000   0.00825   0.00911   2.02535
   A10        1.86656   0.00741   0.00000   0.03655   0.03640   1.90296
   A11        1.92455   0.00522   0.00000   0.03903   0.03819   1.96273
   A12        1.88985  -0.00029   0.00000   0.01637   0.01654   1.90639
   A13        1.61251  -0.00050   0.00000  -0.03079  -0.03063   1.58188
   A14        1.93341  -0.00031   0.00000  -0.00048  -0.00050   1.93291
   A15        1.84583   0.00629   0.00000   0.01968   0.01958   1.86541
   A16        1.86602   0.00633   0.00000   0.01331   0.01322   1.87924
   A17        1.95369  -0.00369   0.00000  -0.01241  -0.01243   1.94126
   A18        1.93382  -0.00330   0.00000  -0.00865  -0.00867   1.92515
   A19        1.92724  -0.00445   0.00000  -0.00906  -0.00924   1.91800
   A20        2.70759   0.00704   0.00000   0.02900   0.02813   2.73572
   A21        2.34867   0.01654   0.00000   0.10809   0.11024   2.45892
   A22        1.91906  -0.00562   0.00000  -0.02304  -0.02318   1.89589
   A23        1.96957  -0.00232   0.00000  -0.01056  -0.01065   1.95891
   A24        1.94169  -0.00195   0.00000  -0.00783  -0.00789   1.93380
   A25        1.86965   0.00369   0.00000   0.01435   0.01419   1.88383
   A26        1.85804   0.00394   0.00000   0.01669   0.01659   1.87464
   A27        1.90113   0.00286   0.00000   0.01295   0.01293   1.91406
   A28        1.86650   0.00697   0.00000   0.02532   0.02512   1.89162
   A29        1.85376   0.00546   0.00000   0.01519   0.01504   1.86879
   A30        1.92832   0.00083   0.00000   0.00831   0.00821   1.93652
   A31        1.91987  -0.00445   0.00000  -0.01252  -0.01279   1.90708
   A32        1.94223  -0.00382   0.00000  -0.01484  -0.01500   1.92724
   A33        1.94935  -0.00410   0.00000  -0.01816  -0.01822   1.93114
    D1        0.76186   0.00107   0.00000  -0.02326  -0.02198   0.73988
    D2        2.92719  -0.00435   0.00000  -0.02013  -0.01950   2.90770
    D3       -0.93449  -0.01784   0.00000  -0.08171  -0.08184  -1.01633
    D4       -0.48799  -0.01269   0.00000  -0.04742  -0.04658  -0.53457
    D5        1.52798  -0.00830   0.00000  -0.02651  -0.02626   1.50171
    D6       -2.80179  -0.00417   0.00000  -0.03432  -0.03363  -2.83542
    D7       -0.78583   0.00023   0.00000  -0.01341  -0.01331  -0.79914
    D8        1.48089   0.00405   0.00000  -0.00936  -0.00822   1.47267
    D9       -2.78633   0.00844   0.00000   0.01155   0.01209  -2.77423
   D10        1.32755  -0.00169   0.00000  -0.02730  -0.02720   1.30035
   D11       -2.86945  -0.00241   0.00000  -0.03193  -0.03178  -2.90123
   D12       -0.72642  -0.00183   0.00000  -0.02860  -0.02852  -0.75494
   D13       -2.83816  -0.00182   0.00000   0.00039   0.00045  -2.83771
   D14       -0.75198  -0.00254   0.00000  -0.00424  -0.00412  -0.75610
   D15        1.39105  -0.00197   0.00000  -0.00092  -0.00086   1.39019
   D16       -1.08886   0.00362   0.00000   0.01483   0.01462  -1.07424
   D17        0.99732   0.00290   0.00000   0.01019   0.01004   1.00737
   D18        3.14035   0.00348   0.00000   0.01352   0.01331  -3.12953
   D19       -0.86565  -0.00165   0.00000   0.02409   0.02226  -0.84339
   D20        0.04823   0.00419   0.00000   0.02067   0.02086   0.06909
   D21       -2.07464  -0.00172   0.00000   0.01616   0.01677  -2.05787
   D22        1.30621   0.00322   0.00000   0.01000   0.01027   1.31648
   D23       -2.92713   0.00418   0.00000   0.01537   0.01579  -2.91134
   D24       -0.81008   0.00305   0.00000   0.00746   0.00774  -0.80234
   D25       -3.01186  -0.00373   0.00000  -0.01431  -0.01469  -3.02654
   D26       -0.96201  -0.00276   0.00000  -0.00894  -0.00917  -0.97118
   D27        1.15504  -0.00390   0.00000  -0.01685  -0.01722   1.13782
   D28       -0.90731  -0.00059   0.00000   0.00452   0.00436  -0.90295
   D29        1.21298  -0.00134   0.00000   0.00141   0.00118   1.21416
   D30       -3.01602  -0.00034   0.00000   0.00704   0.00695  -3.00907
   D31        0.83310   0.00079   0.00000  -0.00791  -0.00775   0.82536
   D32        2.95339   0.00005   0.00000  -0.01102  -0.01093   2.94246
   D33       -1.27561   0.00104   0.00000  -0.00539  -0.00516  -1.28077
   D34        1.99215   0.00265   0.00000   0.02702   0.02656   2.01871
   D35        0.06370   0.00221   0.00000   0.01481   0.01492   0.07862
   D36       -1.64399  -0.00155   0.00000  -0.02690  -0.02757  -1.67156
   D37        0.31545   0.00379   0.00000   0.00623   0.00452   0.31997
         Item               Value     Threshold  Converged?
 Maximum Force            0.034770     0.000450     NO 
 RMS     Force            0.007915     0.000300     NO 
 Maximum Displacement     0.155623     0.001800     NO 
 RMS     Displacement     0.042953     0.001200     NO 
 Predicted change in Energy=-1.202286D-02
 GradGradGradGradGradGradGradGradGradGradGradGradGradGradGradGradGradGrad

                          Input orientation:                          
 ---------------------------------------------------------------------
 Center     Atomic      Atomic             Coordinates (Angstroms)
 Number     Number       Type             X           Y           Z
 ---------------------------------------------------------------------
      1          6           0        1.016131   -0.449684    0.164928
      2          8           0        0.161304   -0.930841    0.969811
      3          8           0        0.216442    0.712747   -0.702902
      4          8           0       -1.818099   -0.588522   -0.405241
      5          6           0       -2.870673    0.006763    0.386874
      6          1           0       -2.454608    0.532887    1.252168
      7          1           0       -3.413230    0.692115   -0.269779
      8          1           0       -3.535013   -0.798361    0.715420
      9          1           0       -0.938719    0.215834   -0.696404
     10          1           0       -1.131839   -1.119420    0.251609
     11          6           0        2.318094    0.126919    0.656069
     12          1           0        2.979040   -0.699612    0.950277
     13          1           0        2.830807    0.710232   -0.116490
     14          1           0        2.157789    0.749641    1.542441
     15          6           0        0.167226    2.020904   -0.109753
     16          1           0        1.149126    2.490241   -0.227006
     17          1           0       -0.577971    2.598356   -0.666302
     18          1           0       -0.103787    1.960553    0.951013
     19          9           0        1.222194   -1.248795   -0.945931
 ---------------------------------------------------------------------
                    Distance matrix (angstroms):
                    1          2          3          4          5
     1  C    0.000000
     2  O    1.268888   0.000000
     3  O    1.656466   2.345717   0.000000
     4  O    2.894345   2.434335   2.433365   0.000000
     5  C    3.919802   3.226732   3.349075   1.445587   0.000000
     6  H    3.767435   3.010851   3.314990   2.099930   1.094829
     7  H    4.594770   4.116778   3.655481   2.050079   1.093283
     8  H    4.597557   3.707429   4.285849   2.060997   1.094311
     9  H    2.237464   2.302430   1.257523   1.226814   2.224780
    10  H    2.251630   1.491173   2.466940   1.088236   2.076084
    11  C    1.506253   2.422609   2.570396   4.329704   5.197134
    12  H    2.128908   2.827275   3.515637   4.986212   5.919081
    13  H    2.172015   3.316537   2.679326   4.835543   5.766725
    14  H    2.153905   2.671681   2.968460   4.625131   5.212738
    15  C    2.626765   3.142975   1.437192   3.292102   3.678618
    16  H    2.968916   3.756590   2.062974   4.279600   4.764797
    17  H    3.538736   3.959624   2.046448   3.429616   3.616907
    18  H    2.771532   2.903581   2.096425   3.357987   3.433832
    19  F    1.383853   2.212837   2.217712   3.157798   4.483787
                    6          7          8          9         10
     6  H    0.000000
     7  H    1.805722   0.000000
     8  H    1.796551   1.790801   0.000000
     9  H    2.489051   2.555788   3.124513   0.000000
    10  H    2.341144   2.959433   2.468491   1.648916   0.000000
    11  C    4.826886   5.833071   5.926089   3.527595   3.690392
    12  H    5.579849   6.654814   6.519033   4.347233   4.190907
    13  H    5.462627   6.245945   6.594816   3.845785   4.380147
    14  H    4.626603   5.858644   5.957204   3.858205   3.997662
    15  C    3.308026   3.822428   4.726071   2.196715   3.417571
    16  H    4.359597   4.904098   5.800365   3.122877   4.296688
    17  H    3.386511   3.439430   4.710726   2.409867   3.869262
    18  H    2.766818   3.748557   4.409130   2.540697   3.321489
    19  F    4.639494   5.070647   5.059051   2.622393   2.644298
                   11         12         13         14         15
    11  C    0.000000
    12  H    1.098436   0.000000
    13  H    1.095434   1.774155   0.000000
    14  H    1.095051   1.767893   1.790687   0.000000
    15  C    2.966462   4.053538   2.968598   2.882395   0.000000
    16  H    2.780576   3.861314   2.451265   2.679185   1.094601
    17  H    4.030367   5.112948   3.935362   3.972490   1.094767
    18  H    3.052001   4.071891   3.363734   2.632645   1.096502
    19  F    2.379074   2.642672   2.667095   3.325821   3.535970
                   16         17         18         19
    16  H    0.000000
    17  H    1.785366   0.000000
    18  H    1.799469   1.802041   0.000000
    19  F    3.808226   4.256683   3.956834   0.000000
 Stoichiometry    C4H11FO3
 Framework group  C1[X(C4H11FO3)]
 Deg. of freedom    51
 Full point group                 C1      NOp   1
 Largest Abelian subgroup         C1      NOp   1
 Largest concise Abelian subgroup C1      NOp   1
                         Standard orientation:                         
 ---------------------------------------------------------------------
 Center     Atomic      Atomic             Coordinates (Angstroms)
 Number     Number       Type             X           Y           Z
 ---------------------------------------------------------------------
      1          6           0        1.018501   -0.437490    0.147419
      2          8           0        0.171678   -0.937956    0.948981
      3          8           0        0.202702    0.725275   -0.704830
      4          8           0       -1.815477   -0.603345   -0.416756
      5          6           0       -2.872789   -0.029712    0.384966
      6          1           0       -2.460549    0.491332    1.255151
      7          1           0       -3.425245    0.656660   -0.262301
      8          1           0       -3.526645   -0.846372    0.705987
      9          1           0       -0.946483    0.214666   -0.700977
     10          1           0       -1.121153   -1.133583    0.232104
     11          6           0        2.314930    0.148821    0.641697
     12          1           0        2.986419   -0.673144    0.924602
     13          1           0        2.818547    0.747004   -0.125457
     14          1           0        2.149760    0.759378    1.535607
     15          6           0        0.139691    2.025858   -0.096524
     16          1           0        1.115643    2.508113   -0.210979
     17          1           0       -0.613835    2.600792   -0.644396
     18          1           0       -0.127617    1.950119    0.964196
     19          9           0        1.230881   -1.221291   -0.973117
 ---------------------------------------------------------------------
 Rotational constants (GHZ):      2.7096945      1.3588080      1.1389628
 Standard basis: 6-31+G(d) (6D, 7F)
 There are   174 symmetry adapted basis functions of A   symmetry.
 Integral buffers will be    262144 words long.
 Raffenetti 2 integral format.
 Two-electron integral symmetry is turned on.
   174 basis functions,   300 primitive gaussians,   174 cartesian basis functions
    34 alpha electrons       34 beta electrons
       nuclear repulsion energy       452.0350655347 Hartrees.
 NAtoms=   19 NActive=   19 NUniq=   19 SFac= 7.50D-01 NAtFMM=   80 NAOKFM=F Big=F
 One-electron integrals computed using PRISM.
 NBasis=   174 RedAO= T  NBF=   174
 NBsUse=   174 1.00D-06 NBFU=   174
 Initial guess read from the read-write file.
 B after Tr=     0.000000    0.000000    0.000000
         Rot=    1.000000    0.000000    0.000000    0.000000 Ang=   0.00 deg.
 Initial guess orbital symmetries:
       Occupied  (A) (A) (A) (A) (A) (A) (A) (A) (A) (A) (A) (A)
                 (A) (A) (A) (A) (A) (A) (A) (A) (A) (A) (A) (A)
                 (A) (A) (A) (A) (A) (A) (A) (A) (A) (A)
       Virtual   (A) (A) (A) (A) (A) (A) (A) (A) (A) (A) (A) (A)
                 (A) (A) (A) (A) (A) (A) (A) (A) (A) (A) (A) (A)
                 (A) (A) (A) (A) (A) (A) (A) (A) (A) (A) (A) (A)
                 (A) (A) (A) (A) (A) (A) (A) (A) (A) (A) (A) (A)
                 (A) (A) (A) (A) (A) (A) (A) (A) (A) (A) (A) (A)
                 (A) (A) (A) (A) (A) (A) (A) (A) (A) (A) (A) (A)
                 (A) (A) (A) (A) (A) (A) (A) (A) (A) (A) (A) (A)
                 (A) (A) (A) (A) (A) (A) (A) (A) (A) (A) (A) (A)
                 (A) (A) (A) (A) (A) (A) (A) (A) (A) (A) (A) (A)
                 (A) (A) (A) (A) (A) (A) (A) (A) (A) (A) (A) (A)
                 (A) (A) (A) (A) (A) (A) (A) (A) (A) (A) (A) (A)
                 (A) (A) (A) (A) (A) (A) (A) (A)
 Harris functional with IExCor=  402 diagonalized for initial guess.
 ExpMin= 4.38D-02 ExpMax= 7.00D+03 ExpMxC= 1.05D+03 IAcc=2 IRadAn=         0 AccDes= 0.00D+00
 HarFok:  IExCor=  402 AccDes= 0.00D+00 IRadAn=         0 IDoV= 1
 ScaDFX=  1.000000  1.000000  1.000000  1.000000
 FoFCou: FMM=F IPFlag=           0 FMFlag=      100000 FMFlg1=           0
         NFxFlg=           0 DoJE=T BraDBF=F KetDBF=T FulRan=T
         Omega=  0.000000  0.000000  1.000000  0.000000  0.000000 ICntrl=     500 IOpCl=  0
         NMat0=    1 NMatS0=    1 NMatT0=    0 NMatD0=    1 NMtDS0=    0 NMtDT0=    0
         I1Cent=           4 NGrid=           0.
 Petite list used in FoFCou.
 Requested convergence on RMS density matrix=1.00D-08 within 128 cycles.
 Requested convergence on MAX density matrix=1.00D-06.
 Requested convergence on             energy=1.00D-06.
 No special actions if energy rises.
 SCF Done:  E(RB3LYP) =  -484.531492760     A.U. after   11 cycles
             Convg  =    0.8647D-08             -V/T =  2.0089
 Calling FoFJK, ICntrl=      2127 FMM=F ISym2X=0 I1Cent= 0 IOpClX= 0 NMat=1 NMatS=1 NMatT=0.
 ***** Axes restored to original set *****
 -------------------------------------------------------------------
 Center     Atomic                   Forces (Hartrees/Bohr)
 Number     Number              X              Y              Z
 -------------------------------------------------------------------
      1        6          -0.021159526   -0.003086865    0.002793688
      2        8           0.008072446   -0.007678395    0.014954689
      3        8          -0.011193687    0.016615030   -0.004141143
      4        8           0.005196838   -0.003355990    0.006935092
      5        6           0.000302472   -0.004823558   -0.004995477
      6        1          -0.000612650    0.000405679    0.000293450
      7        1          -0.000882460    0.000297756    0.002244098
      8        1          -0.000716047    0.002232297    0.000745717
      9        1           0.009998088   -0.006081423    0.002231377
     10        1          -0.003092106    0.016225443   -0.009479940
     11        6           0.007024144    0.002075524    0.002605517
     12        1          -0.003087481    0.000319805   -0.001178284
     13        1          -0.001264803   -0.001418470   -0.000189936
     14        1          -0.001150430   -0.000634088   -0.001541927
     15        6           0.002234986   -0.004233709   -0.004748903
     16        1          -0.001595458    0.001763522    0.001355142
     17        1           0.000449659    0.001455866    0.001773393
     18        1          -0.000435673    0.001227277    0.000527185
     19        9           0.011911691   -0.011305703   -0.010183737
 -------------------------------------------------------------------
 Cartesian Forces:  Max     0.021159526 RMS     0.006483771

 GradGradGradGradGradGradGradGradGradGradGradGradGradGradGradGradGradGrad
 Berny optimization.
 Internal  Forces:  Max     0.016477883 RMS     0.003830342
 Search for a saddle point.
 Step number   2 out of a maximum of   99
 All quantities printed in internal units (Hartrees-Bohrs-Radians)
 Swaping is turned off.
 Update second derivatives using D2CorX and points    1    2
     Eigenvalues ---   -0.04850   0.00161   0.00199   0.00203   0.00262
     Eigenvalues ---    0.00355   0.00595   0.00895   0.01953   0.02679
     Eigenvalues ---    0.03417   0.04361   0.04505   0.05633   0.06419
     Eigenvalues ---    0.06512   0.06551   0.06592   0.06624   0.07020
     Eigenvalues ---    0.08286   0.09884   0.11696   0.12278   0.13085
     Eigenvalues ---    0.13657   0.13921   0.14559   0.15453   0.15737
     Eigenvalues ---    0.17846   0.18629   0.18757   0.18837   0.19068
     Eigenvalues ---    0.19577   0.20458   0.30944   0.32646   0.33041
     Eigenvalues ---    0.33474   0.33513   0.33779   0.33853   0.33926
     Eigenvalues ---    0.34059   0.34127   0.35938   0.36409   0.36558
     Eigenvalues ---    0.611641000.000001000.000001000.000001000.00000
     Eigenvalues --- 1000.000001000.000001000.000001000.000001000.00000
     Eigenvalues --- 1000.000001000.000001000.000001000.000001000.00000
     Eigenvalues --- 1000.000001000.000001000.000001000.000001000.00000
     Eigenvalues --- 1000.000001000.000001000.000001000.000001000.00000
     Eigenvalues --- 1000.000001000.000001000.000001000.000001000.00000
     Eigenvalues --- 1000.000001000.000001000.000001000.000001000.00000
     Eigenvalues --- 1000.000001000.000001000.000001000.00000
 Eigenvectors required to have negative eigenvalues:
                          R9        R6        R5        R2        R10
   1                    0.57504  -0.55849   0.38825   0.29239  -0.23349
                          R1        D2        D17       D16       D18
   1                   -0.08102  -0.07754  -0.07071  -0.06668  -0.06318
 RFO step:  Lambda0=9.209681990D-04 Lambda=-8.42932741D-03.
 Linear search not attempted -- option 19 set.
 Maximum step size (   0.300) exceeded in Quadratic search.
    -- Step size scaled by   0.750
 Iteration  1 RMS(Cart)=  0.05762254 RMS(Int)=  0.00276089
 Iteration  2 RMS(Cart)=  0.00384028 RMS(Int)=  0.00076486
 Iteration  3 RMS(Cart)=  0.00002810 RMS(Int)=  0.00076467
 Iteration  4 RMS(Cart)=  0.00000004 RMS(Int)=  0.00076467
 Variable       Old X    -DE/DX   Delta X   Delta X   Delta X     New X
                                 (Linear)    (Quad)   (Total)
    R1        2.39785   0.00133   0.00000   0.00492   0.00518   2.40303
    R2        3.13027   0.01145   0.00000   0.01751   0.01687   3.14714
    R3        2.84641   0.00134   0.00000   0.00730   0.00730   2.85371
    R4        2.61510   0.01648   0.00000   0.02831   0.02831   2.64341
    R5        2.81791   0.00088   0.00000  -0.09160  -0.09092   2.72699
    R6        2.37637  -0.00806   0.00000   0.01485   0.01432   2.39069
    R7        2.71590  -0.00028   0.00000  -0.00983  -0.00983   2.70607
    R8        2.73176  -0.00033   0.00000  -0.00811  -0.00811   2.72365
    R9        2.31834  -0.00207   0.00000  -0.07481  -0.07509   2.24326
   R10        2.05647  -0.00924   0.00000  -0.00368  -0.00299   2.05348
   R11        2.06893   0.00019   0.00000   0.00182   0.00182   2.07075
   R12        2.06601  -0.00072   0.00000  -0.00133  -0.00133   2.06467
   R13        2.06795  -0.00098   0.00000  -0.00227  -0.00227   2.06568
   R14        2.07574  -0.00241   0.00000  -0.00569  -0.00569   2.07005
   R15        2.07007  -0.00121   0.00000  -0.00344  -0.00344   2.06663
   R16        2.06935  -0.00144   0.00000  -0.00349  -0.00349   2.06586
   R17        2.06850  -0.00082   0.00000  -0.00083  -0.00083   2.06766
   R18        2.06881  -0.00044   0.00000  -0.00006  -0.00006   2.06875
   R19        2.07209   0.00055   0.00000   0.00247   0.00247   2.07455
    A1        1.84751   0.00427   0.00000   0.03397   0.03296   1.88046
    A2        2.11840  -0.00389   0.00000  -0.01674  -0.01582   2.10258
    A3        1.97201   0.00530   0.00000   0.01120   0.00976   1.98177
    A4        1.89598  -0.00279   0.00000  -0.01192  -0.01182   1.88416
    A5        1.62739   0.00518   0.00000   0.02200   0.02221   1.64960
    A6        1.93273  -0.00546   0.00000  -0.02503  -0.02528   1.90746
    A7        1.90356  -0.01137   0.00000  -0.07248  -0.07461   1.82895
    A8        1.73500  -0.00663   0.00000  -0.03225  -0.03294   1.70205
    A9        2.02535   0.00348   0.00000  -0.00649  -0.00673   2.01862
   A10        1.90296   0.00404   0.00000   0.02149   0.02117   1.92412
   A11        1.96273   0.00284   0.00000   0.03614   0.03501   1.99774
   A12        1.90639   0.00024   0.00000   0.02588   0.02741   1.93379
   A13        1.58188  -0.00074   0.00000  -0.03483  -0.03522   1.54666
   A14        1.93291  -0.00009   0.00000   0.00359   0.00357   1.93648
   A15        1.86541   0.00290   0.00000   0.01482   0.01476   1.88017
   A16        1.87924   0.00293   0.00000   0.00906   0.00900   1.88824
   A17        1.94126  -0.00182   0.00000  -0.01242  -0.01245   1.92881
   A18        1.92515  -0.00159   0.00000  -0.00800  -0.00802   1.91713
   A19        1.91800  -0.00207   0.00000  -0.00574  -0.00584   1.91216
   A20        2.73572   0.00296   0.00000   0.00289   0.00162   2.73734
   A21        2.45892   0.00923   0.00000   0.11812   0.11958   2.57849
   A22        1.89589  -0.00284   0.00000  -0.01692  -0.01700   1.87889
   A23        1.95891  -0.00112   0.00000  -0.00988  -0.00994   1.94897
   A24        1.93380  -0.00098   0.00000  -0.00329  -0.00331   1.93049
   A25        1.88383   0.00174   0.00000   0.01007   0.00995   1.89378
   A26        1.87464   0.00195   0.00000   0.01115   0.01112   1.88575
   A27        1.91406   0.00142   0.00000   0.00987   0.00987   1.92392
   A28        1.89162   0.00339   0.00000   0.01672   0.01663   1.90826
   A29        1.86879   0.00259   0.00000   0.00978   0.00972   1.87851
   A30        1.93652   0.00053   0.00000   0.00540   0.00536   1.94188
   A31        1.90708  -0.00220   0.00000  -0.00772  -0.00784   1.89924
   A32        1.92724  -0.00197   0.00000  -0.00953  -0.00960   1.91764
   A33        1.93114  -0.00215   0.00000  -0.01366  -0.01368   1.91746
    D1        0.73988   0.00059   0.00000  -0.01898  -0.01771   0.72217
    D2        2.90770  -0.00228   0.00000  -0.01670  -0.01582   2.89188
    D3       -1.01633  -0.00937   0.00000  -0.06482  -0.06396  -1.08029
    D4       -0.53457  -0.00617   0.00000  -0.04932  -0.04824  -0.58281
    D5        1.50171  -0.00403   0.00000  -0.04678  -0.04626   1.45545
    D6       -2.83542  -0.00239   0.00000  -0.04414  -0.04343  -2.87885
    D7       -0.79914  -0.00026   0.00000  -0.04161  -0.04146  -0.84060
    D8        1.47267   0.00203   0.00000  -0.02337  -0.02236   1.45031
    D9       -2.77423   0.00416   0.00000  -0.02084  -0.02039  -2.79462
   D10        1.30035  -0.00111   0.00000  -0.03603  -0.03571   1.26463
   D11       -2.90123  -0.00151   0.00000  -0.04072  -0.04035  -2.94158
   D12       -0.75494  -0.00119   0.00000  -0.03743  -0.03710  -0.79204
   D13       -2.83771  -0.00080   0.00000  -0.01251  -0.01288  -2.85059
   D14       -0.75610  -0.00119   0.00000  -0.01720  -0.01752  -0.77362
   D15        1.39019  -0.00088   0.00000  -0.01391  -0.01427   1.37593
   D16       -1.07424   0.00161   0.00000  -0.00308  -0.00309  -1.07733
   D17        1.00737   0.00121   0.00000  -0.00777  -0.00773   0.99964
   D18       -3.12953   0.00152   0.00000  -0.00448  -0.00447  -3.13400
   D19       -0.84339  -0.00070   0.00000   0.07768   0.07654  -0.76685
   D20        0.06909   0.00219   0.00000   0.03878   0.03684   0.10594
   D21       -2.05787  -0.00003   0.00000   0.05376   0.05293  -2.00494
   D22        1.31648   0.00165   0.00000   0.00943   0.01009   1.32657
   D23       -2.91134   0.00222   0.00000   0.01434   0.01506  -2.89628
   D24       -0.80234   0.00155   0.00000   0.00698   0.00764  -0.79470
   D25       -3.02654  -0.00202   0.00000  -0.02023  -0.02093  -3.04748
   D26       -0.97118  -0.00144   0.00000  -0.01532  -0.01596  -0.98715
   D27        1.13782  -0.00212   0.00000  -0.02268  -0.02338   1.11444
   D28       -0.90295  -0.00018   0.00000   0.00217   0.00195  -0.90100
   D29        1.21416  -0.00063   0.00000  -0.00156  -0.00182   1.21234
   D30       -3.00907  -0.00003   0.00000   0.00413   0.00394  -3.00513
   D31        0.82536   0.00026   0.00000  -0.01084  -0.01062   0.81474
   D32        2.94246  -0.00019   0.00000  -0.01458  -0.01439   2.92808
   D33       -1.28077   0.00041   0.00000  -0.00889  -0.00863  -1.28939
   D34        2.01871   0.00167   0.00000   0.04669   0.04486   2.06357
   D35        0.07862   0.00125   0.00000   0.02772   0.02519   0.10381
   D36       -1.67156  -0.00161   0.00000  -0.08763  -0.08868  -1.76024
   D37        0.31997   0.00119   0.00000  -0.05801  -0.06058   0.25940
         Item               Value     Threshold  Converged?
 Maximum Force            0.016478     0.000450     NO 
 RMS     Force            0.003830     0.000300     NO 
 Maximum Displacement     0.182521     0.001800     NO 
 RMS     Displacement     0.058130     0.001200     NO 
 Predicted change in Energy=-3.852929D-03
 GradGradGradGradGradGradGradGradGradGradGradGradGradGradGradGradGradGrad

                          Input orientation:                          
 ---------------------------------------------------------------------
 Center     Atomic      Atomic             Coordinates (Angstroms)
 Number     Number       Type             X           Y           Z
 ---------------------------------------------------------------------
      1          6           0        1.001424   -0.446672    0.176834
      2          8           0        0.182289   -0.916557    1.028462
      3          8           0        0.210637    0.735797   -0.689166
      4          8           0       -1.777576   -0.574372   -0.370493
      5          6           0       -2.893852   -0.012138    0.347247
      6          1           0       -2.551194    0.579515    1.203571
      7          1           0       -3.456442    0.613454   -0.349785
      8          1           0       -3.525920   -0.834114    0.693274
      9          1           0       -0.940687    0.211747   -0.671810
     10          1           0       -1.067157   -1.028274    0.315142
     11          6           0        2.331568    0.113045    0.621680
     12          1           0        2.964394   -0.730433    0.918375
     13          1           0        2.831852    0.655199   -0.185644
     14          1           0        2.204058    0.763083    1.491329
     15          6           0        0.174647    2.031218   -0.079910
     16          1           0        1.152587    2.509828   -0.188308
     17          1           0       -0.571755    2.628114   -0.613805
     18          1           0       -0.092199    1.964039    0.982851
     19          9           0        1.197540   -1.280520   -0.929044
 ---------------------------------------------------------------------
                    Distance matrix (angstroms):
                    1          2          3          4          5
     1  C    0.000000
     2  O    1.271630   0.000000
     3  O    1.665393   2.383552   0.000000
     4  O    2.835262   2.432125   2.402309   0.000000
     5  C    3.923140   3.277906   3.357292   1.441295   0.000000
     6  H    3.837752   3.121030   3.351804   2.099433   1.095791
     7  H    4.612349   4.181012   3.684782   2.056685   1.092578
     8  H    4.573146   3.724240   4.282245   2.062953   1.093110
     9  H    2.219348   2.329178   1.265099   1.187080   2.214375
    10  H    2.153234   1.443059   2.398612   1.086654   2.090545
    11  C    1.510117   2.417633   2.569919   4.282757   5.234118
    12  H    2.117464   2.790496   3.509586   4.916483   5.929686
    13  H    2.167020   3.311292   2.670356   4.774185   5.789041
    14  H    2.153539   2.668892   2.954493   4.594407   5.281910
    15  C    2.624769   3.149273   1.431992   3.268747   3.711260
    16  H    2.982796   3.763259   2.070100   4.258091   4.798000
    17  H    3.543206   3.978733   2.049067   3.430615   3.645090
    18  H    2.767165   2.894004   2.096647   3.334002   3.486908
    19  F    1.398832   2.234957   2.257666   3.108366   4.469586
                    6          7          8          9         10
     6  H    0.000000
     7  H    1.798205   0.000000
     8  H    1.791324   1.785568   0.000000
     9  H    2.499208   2.567897   3.104949   0.000000
    10  H    2.361495   2.974237   2.495235   1.589881   0.000000
    11  C    4.939388   5.890264   5.934004   3.520016   3.598320
    12  H    5.676179   6.681422   6.495044   4.320422   4.087297
    13  H    5.559931   6.290575   6.588764   3.829498   4.276346
    14  H    4.767486   5.954272   6.001714   3.856496   3.910655
    15  C    3.344394   3.907390   4.743641   2.214675   3.325452
    16  H    4.402435   4.986528   5.817866   3.145909   4.207005
    17  H    3.379022   3.528453   4.735247   2.445056   3.804936
    18  H    2.830598   3.862400   4.438914   2.555066   3.217191
    19  F    4.696891   5.057888   5.014207   2.620124   2.596243
                   11         12         13         14         15
    11  C    0.000000
    12  H    1.095423   0.000000
    13  H    1.093612   1.776626   0.000000
    14  H    1.093205   1.771151   1.793879   0.000000
    15  C    2.970509   4.050429   2.994219   2.862773   0.000000
    16  H    2.791173   3.873846   2.501917   2.641570   1.094160
    17  H    4.035007   5.111924   3.957304   3.951591   1.094735
    18  H    3.071037   4.075180   3.410061   2.640765   1.097807
    19  F    2.373349   2.614827   2.640195   3.323792   3.568606
                   16         17         18         19
    16  H    0.000000
    17  H    1.779999   0.000000
    18  H    1.794154   1.794514   0.000000
    19  F    3.862312   4.302000   3.980695   0.000000
 Stoichiometry    C4H11FO3
 Framework group  C1[X(C4H11FO3)]
 Deg. of freedom    51
 Full point group                 C1      NOp   1
 Largest Abelian subgroup         C1      NOp   1
 Largest concise Abelian subgroup C1      NOp   1
                         Standard orientation:                         
 ---------------------------------------------------------------------
 Center     Atomic      Atomic             Coordinates (Angstroms)
 Number     Number       Type             X           Y           Z
 ---------------------------------------------------------------------
      1          6           0        1.004067   -0.431483    0.145729
      2          8           0        0.196525   -0.925482    0.994777
      3          8           0        0.190838    0.750208   -0.700319
      4          8           0       -1.775321   -0.594794   -0.390034
      5          6           0       -2.896551   -0.059684    0.340603
      6          1           0       -2.558803    0.525562    1.203257
      7          1           0       -3.472185    0.566496   -0.345162
      8          1           0       -3.514137   -0.895959    0.678419
      9          1           0       -0.952166    0.208200   -0.684610
     10          1           0       -1.054583   -1.046875    0.285966
     11          6           0        2.327617    0.142699    0.591808
     12          1           0        2.974845   -0.694814    0.873976
     13          1           0        2.815457    0.703413   -0.210438
     14          1           0        2.194425    0.778854    1.470820
     15          6           0        0.137903    2.036551   -0.073325
     16          1           0        1.107794    2.531675   -0.179859
     17          1           0       -0.620263    2.628985   -0.595485
     18          1           0       -0.122583    1.950870    0.989682
     19          9           0        1.207517   -1.247150   -0.972316
 ---------------------------------------------------------------------
 Rotational constants (GHZ):      2.6922483      1.3633165      1.1359241
 Standard basis: 6-31+G(d) (6D, 7F)
 There are   174 symmetry adapted basis functions of A   symmetry.
 Integral buffers will be    262144 words long.
 Raffenetti 2 integral format.
 Two-electron integral symmetry is turned on.
   174 basis functions,   300 primitive gaussians,   174 cartesian basis functions
    34 alpha electrons       34 beta electrons
       nuclear repulsion energy       451.7583552136 Hartrees.
 NAtoms=   19 NActive=   19 NUniq=   19 SFac= 7.50D-01 NAtFMM=   80 NAOKFM=F Big=F
 One-electron integrals computed using PRISM.
 NBasis=   174 RedAO= T  NBF=   174
 NBsUse=   174 1.00D-06 NBFU=   174
 Initial guess read from the read-write file.
 B after Tr=     0.000000    0.000000    0.000000
         Rot=    1.000000    0.000000    0.000000    0.000000 Ang=   0.00 deg.
 Initial guess orbital symmetries:
       Occupied  (A) (A) (A) (A) (A) (A) (A) (A) (A) (A) (A) (A)
                 (A) (A) (A) (A) (A) (A) (A) (A) (A) (A) (A) (A)
                 (A) (A) (A) (A) (A) (A) (A) (A) (A) (A)
       Virtual   (A) (A) (A) (A) (A) (A) (A) (A) (A) (A) (A) (A)
                 (A) (A) (A) (A) (A) (A) (A) (A) (A) (A) (A) (A)
                 (A) (A) (A) (A) (A) (A) (A) (A) (A) (A) (A) (A)
                 (A) (A) (A) (A) (A) (A) (A) (A) (A) (A) (A) (A)
                 (A) (A) (A) (A) (A) (A) (A) (A) (A) (A) (A) (A)
                 (A) (A) (A) (A) (A) (A) (A) (A) (A) (A) (A) (A)
                 (A) (A) (A) (A) (A) (A) (A) (A) (A) (A) (A) (A)
                 (A) (A) (A) (A) (A) (A) (A) (A) (A) (A) (A) (A)
                 (A) (A) (A) (A) (A) (A) (A) (A) (A) (A) (A) (A)
                 (A) (A) (A) (A) (A) (A) (A) (A) (A) (A) (A) (A)
                 (A) (A) (A) (A) (A) (A) (A) (A) (A) (A) (A) (A)
                 (A) (A) (A) (A) (A) (A) (A) (A)
 Harris functional with IExCor=  402 diagonalized for initial guess.
 ExpMin= 4.38D-02 ExpMax= 7.00D+03 ExpMxC= 1.05D+03 IAcc=2 IRadAn=         0 AccDes= 0.00D+00
 HarFok:  IExCor=  402 AccDes= 0.00D+00 IRadAn=         0 IDoV= 1
 ScaDFX=  1.000000  1.000000  1.000000  1.000000
 FoFCou: FMM=F IPFlag=           0 FMFlag=      100000 FMFlg1=           0
         NFxFlg=           0 DoJE=T BraDBF=F KetDBF=T FulRan=T
         Omega=  0.000000  0.000000  1.000000  0.000000  0.000000 ICntrl=     500 IOpCl=  0
         NMat0=    1 NMatS0=    1 NMatT0=    0 NMatD0=    1 NMtDS0=    0 NMtDT0=    0
         I1Cent=           4 NGrid=           0.
 Petite list used in FoFCou.
 Requested convergence on RMS density matrix=1.00D-08 within 128 cycles.
 Requested convergence on MAX density matrix=1.00D-06.
 Requested convergence on             energy=1.00D-06.
 No special actions if energy rises.
 SCF Done:  E(RB3LYP) =  -484.535144797     A.U. after   11 cycles
             Convg  =    0.5937D-08             -V/T =  2.0089
[...]
 00861070,0.00388806,-0.00020517,-0.16270571,0.04329624,0.04176309,0.50
 021447,0.00159991,-0.00197475,0.00143359,-0.00175245,0.00106955,-0.000
 76476,-0.01099635,-0.00901599,-0.00135977,0.04904870,-0.10515598,-0.00
 928441,0.04821959,0.58108626,0.00242941,0.00204443,-0.00447045,-0.0115
 8085,-0.00167388,-0.00498147,-0.00287155,-0.00235053,0.00108332,0.0556
 4210,-0.01450640,-0.11062496,0.05461749,-0.03752601,0.57874533,-0.0000
 9454,0.00012790,0.00069866,0.00005475,-0.00046764,-0.00048660,-0.00064
 576,-0.00043424,-0.00040062,-0.00365111,0.02569605,0.02965705,-0.07182
 990,-0.04760388,-0.05678756,0.07646066,-0.00016494,0.00036179,-0.00082
 542,0.00046252,0.00000389,0.00112903,0.00153297,0.00067273,0.00009044,
 0.00884514,-0.00706304,-0.01144585,-0.04380482,-0.15267915,-0.11528498
 ,0.04161964,0.16152020,-0.00031827,-0.00093127,0.00068930,0.00175643,0
 .00032053,0.00030872,0.00097698,0.00145605,-0.00008099,0.00957611,-0.0
 1039216,-0.00912408,-0.05210369,-0.11588488,-0.19402656,0.04948268,0.1
 3437736,0.20826135,0.00095753,0.00123301,-0.00206145,-0.00380844,-0.00
 077958,-0.00110252,-0.00024789,-0.00108376,0.00057230,-0.02862016,0.02
 123364,-0.01809184,-0.11000781,0.05676401,-0.09342388,-0.00237068,0.00
 324289,-0.00693777,0.12915855,-0.00051063,-0.00019470,0.00072595,0.001
 87068,0.00025467,0.00073754,0.00051360,0.00033939,0.00002981,0.0140012
 3,-0.00707773,0.00702303,0.05977009,-0.11360908,0.09317172,-0.01111227
 ,0.01242182,-0.01506687,-0.07396569,0.11846581,-0.00000120,-0.00020294
 ,0.00041710,0.00135254,0.00022009,0.00087431,-0.00040320,-0.00012037,-
 0.00011413,0.01376620,-0.01235599,0.01645737,-0.10179800,0.09894669,-0
 .20227311,-0.01012732,0.01227770,-0.01506975,0.10192016,-0.10187783,0.
 20862677,0.00071619,-0.00115760,0.00087955,-0.00030033,0.00056963,-0.0
 0087460,-0.00352694,-0.00226388,-0.00057881,-0.03082359,-0.01777192,0.
 01887235,-0.12340814,-0.10939216,0.04391591,-0.00259573,-0.00758143,0.
 00204277,0.01176752,0.01253039,-0.00521196,0.14414970,0.00002552,0.000
 11747,-0.00022673,-0.00029364,-0.00008412,0.00001987,0.00152956,0.0013
 1715,0.00009794,0.01442909,0.01718422,-0.00957510,-0.11773030,-0.21868
 179,0.07496444,-0.00932935,-0.01353928,0.00748963,-0.00801258,-0.01024
 905,0.00348982,0.11941423,0.22610483,-0.00041389,0.00033931,-0.0000445
 3,0.00043546,0.00005108,0.00014719,0.00193752,0.00147058,0.00008477,0.
 01620655,0.00893552,-0.00644955,0.04555313,0.06960572,-0.08335150,-0.0
 1394247,-0.01923750,0.01070359,0.01303263,0.01891588,-0.00664178,-0.05
 959452,-0.07614877,0.08572931,-0.01679594,0.04095667,-0.03582641,-0.02
 810052,-0.01401711,0.00997384,0.00729111,0.01612604,0.01213377,-0.0298
 4684,0.01707446,-0.01814388,-0.02246963,0.00567952,0.00918369,0.002532
 17,-0.00235124,-0.00217814,0.00087702,-0.00136651,0.00014044,0.0042027
 7,-0.00029232,-0.00240832,0.02206422,0.01003450,0.03668573,-0.01834991
 ,-0.01956658,-0.00908671,0.00498192,0.04443770,-0.02754764,0.00845162,
 -0.00271248,-0.06854057,0.00492332,-0.00026698,0.02400828,-0.00366022,
 0.00180695,-0.00139523,-0.00231890,0.00115259,-0.00040125,0.00053092,0
 .00676749,-0.00254400,-0.00349294,-0.04749725,0.09239305,-0.01435835,-
 0.00844895,0.01058885,0.00942129,0.00092665,-0.00211061,0.00305776,0.0
 0076898,-0.03240895,-0.00229083,-0.00158980,-0.03151950,0.00826926,0.0
 0140724,-0.00594757,0.00041835,0.00093282,-0.00009964,-0.00137286,0.00
 012486,0.00054962,-0.00061631,-0.00053713,0.00040035,0.00720852,-0.015
 18201,0.08135800,-0.03304053,-0.03397783,0.05461272,0.04269574,0.01462
 946,0.00160954,-0.02589123,0.00779001,-0.01171729,-0.06599816,0.000460
 16,-0.00865808,-0.02462438,0.01091936,-0.00072736,0.00265699,-0.001682
 96,-0.00256923,0.00269189,-0.00195797,0.00040661,0.00064849,0.00009163
 ,-0.00117262,0.04419284,0.01438756,0.00130201,0.04987005,-0.00789331,0
 .00470694,-0.01058974,-0.00794165,-0.02469077,0.00274728,0.00545397,0.
 00117447,-0.00048567,0.01744128,-0.04311033,0.01839622,0.00984279,-0.0
 0629679,0.00318566,0.00000946,0.00006501,0.00109183,0.00014817,0.00019
 553,-0.00097181,-0.00153842,0.00057376,-0.00000919,-0.00126847,-0.0172
 9519,0.02496921,-0.01224143,0.08659565,0.00402954,-0.01537012,0.045272
 88,0.03265421,0.00993527,-0.03418036,-0.01535808,0.00475902,-0.0079876
 6,-0.04033819,0.02910004,-0.10817886,0.00296297,-0.00702349,0.02374314
 ,0.00174422,-0.00228666,-0.00141158,0.00676274,-0.00341833,-0.00267278
 ,0.00116271,0.00043078,-0.00037088,0.01708834,0.02552069,-0.01518770,-
 0.01352223,-0.04280831,0.11577064,-0.17876675,-0.04701870,-0.03096213,
 -0.02790893,-0.01463971,0.00539837,-0.01534132,0.00403591,-0.00855319,
 -0.00191801,0.00040477,-0.00108140,0.00050245,-0.00017401,-0.00030681,
 -0.00000397,0.00002628,0.00003570,-0.00009993,0.00007331,0.00000887,-0
 .00006370,-0.00000997,0.00004334,0.00084520,0.00142296,-0.00032173,0.0
 0348572,-0.00122117,0.00239555,0.50229969,-0.04197762,-0.08848530,-0.0
 1310462,-0.02375058,0.00085400,0.00269176,0.02721835,-0.00194126,0.013
 44114,-0.00063035,0.00372248,-0.00380570,-0.00001227,0.00025679,-0.000
 26059,-0.00001419,-0.00005465,0.00009513,-0.00016459,0.00003903,0.0000
 3876,0.00013828,-0.00003375,-0.00003738,-0.00437407,-0.00596377,0.0026
 2115,0.00464139,-0.00055578,0.00356015,-0.01763828,0.58134756,-0.02888
 696,-0.01414015,-0.08149941,0.03590350,0.01421149,0.00602578,-0.015165
 22,0.00282818,-0.00375813,0.00232612,-0.00332259,0.00419082,-0.0003024
 0,0.00000863,0.00056494,-0.00000065,0.00002303,-0.00011183,0.00023309,
 -0.00009199,-0.00008093,-0.00005680,0.00001225,-0.00001742,0.00266786,
 0.00276901,-0.00138949,-0.00549183,0.00267166,-0.00554221,-0.03428945,
 -0.00365357,0.59795284,-0.01742582,0.02718809,-0.01026218,0.00230075,-
 0.00251191,0.00074762,-0.00595479,-0.00031951,-0.00216094,-0.00009076,
 -0.00098050,0.00089699,0.00010415,-0.00010411,0.00002504,-0.00000058,0
 .00002231,-0.00001394,0.00002772,-0.00000083,-0.00000674,-0.00005443,0
 .00000860,0.00002094,0.00145464,0.00169812,-0.00073437,-0.00094913,0.0
 0008526,-0.00062334,-0.12658605,0.11215691,-0.04781650,0.13614653,-0.0
 0616117,0.00755045,-0.00347389,0.00023092,0.00012922,-0.00026503,-0.00
 265009,0.00114741,-0.00170117,0.00002144,-0.00011203,0.00011635,0.0000
 2578,-0.00000856,-0.00002477,-0.00000661,-0.00000264,0.00001305,-0.000
 00469,0.00000088,-0.00000326,0.00000211,0.00000645,0.00000295,-0.00001
 432,0.00023029,-0.00016457,-0.00001420,0.00007842,-0.00011170,0.114334
 10,-0.21095431,0.07009638,-0.12328383,0.22670048,-0.00517731,0.0080281
 7,-0.00397496,0.00149414,-0.00014090,-0.00016729,-0.00324558,-0.000243
 05,-0.00035705,-0.00023486,-0.00050966,0.00034949,0.00004099,-0.000061
 64,0.00000296,-0.00000367,0.00000772,-0.00000320,0.00000945,0.00000259
 ,-0.00000423,-0.00002621,0.00000953,0.00001551,0.00077851,0.00093129,-
 0.00024995,-0.00036139,0.00003048,-0.00022795,-0.04784358,0.06917202,-
 0.07587448,0.05403462,-0.07565613,0.07856556,-0.01061223,-0.01082588,0
 .02892040,-0.00924510,-0.00374947,-0.00164154,0.00226799,0.00103557,-0
 .00075293,-0.00081757,0.00143130,-0.00161765,0.00019903,0.00001634,-0.
 00025157,-0.00000778,-0.00001256,0.00005531,-0.00010937,0.00004429,0.0
 0002885,0.00002561,-0.00000940,0.00001122,-0.00128420,-0.00120004,0.00
 042667,0.00254656,-0.00100206,0.00207352,-0.10547469,-0.05147212,0.095
 28625,0.00999264,0.00652243,-0.01504270,0.11324460,-0.00133556,-0.0054
 3291,0.01103392,-0.00401529,0.00031268,-0.00055010,0.00080343,-0.00002
 456,-0.00062520,-0.00074741,0.00036660,-0.00073133,0.00014786,-0.00004
 651,-0.00014275,0.00000806,0.00000661,0.00001941,-0.00005027,0.0000301
 5,0.00002315,-0.00001102,-0.00000831,0.00001137,-0.00016960,-0.0001801
 8,0.00014479,0.00121155,-0.00003079,0.00100184,-0.05242254,-0.09489227
 ,0.08537111,-0.01310200,-0.00943238,0.01904530,0.05713834,0.09814750,-
 0.00379876,-0.00409879,0.00571984,-0.00271273,-0.00085166,0.00149388,0
 .00015957,-0.00057387,0.00067121,-0.00001783,0.00001901,-0.00013413,0.
 00001372,-0.00001636,0.00003441,-0.00000667,-0.00000032,-0.00001030,0.
 00001342,0.00000305,-0.00000482,-0.00000148,-0.00000383,-0.00000062,0.
 00007007,0.00001164,0.00005908,-0.00008143,-0.00003921,0.00025355,0.10
 059521,0.08794542,-0.22059537,0.00432931,0.00274887,-0.00748094,-0.107
 53215,-0.09625499,0.23513677,0.00675203,-0.02049997,-0.02202573,0.0008
 3886,0.00214865,0.00082483,0.00077983,0.00088192,0.00132467,0.00021440
 ,0.00006412,0.00006231,0.00000503,-0.00001453,-0.00000481,-0.00002362,
 0.00000617,0.00001899,0.00000452,-0.00000171,-0.00000301,0.00000953,0.
 00000877,0.00000093,-0.00024556,-0.00033825,0.00004168,-0.00016768,0.0
 0017193,-0.00016864,-0.05241967,0.01556327,0.02035945,-0.00124923,0.01
 093060,0.01448622,-0.00151331,0.01152816,0.00945933,0.05335384,0.00562
 399,-0.00834088,-0.00755761,-0.00057176,0.00099062,0.00168891,-0.00054
 482,-0.00008359,-0.00002781,-0.00011393,-0.00014534,0.00014875,0.00009
 532,-0.00006274,-0.00002841,-0.00001099,0.00002242,0.00000775,-0.00000
 003,0.00000742,0.00000224,-0.00001991,-0.00000157,0.00000449,0.0002932
 1,0.00016596,-0.00017457,-0.00014677,0.00011418,-0.00007061,0.01222090
 ,-0.16838749,-0.13426309,0.00101318,-0.01589759,-0.01917508,0.00004101
 ,0.01129459,0.01097182,-0.01679848,0.18113510,0.00394757,-0.00524549,-
 0.00821447,0.00030342,0.00134242,0.00095983,-0.00046329,0.00120976,0.0
 0023092,0.00002794,0.00012375,-0.00006986,0.00003233,-0.00002000,-0.00
 003378,-0.00001680,0.00000288,0.00003444,-0.00001287,-0.00000238,-0.00
 000581,0.00000717,0.00001327,0.00000454,-0.00023514,-0.00021958,0.0000
 3781,-0.00000970,-0.00004283,0.00000227,0.01639506,-0.13490161,-0.1989
 8833,-0.00007670,0.00787671,0.00953241,0.00074828,-0.01704525,-0.01615
 497,-0.01813014,0.14860652,0.21246396,0.00245163,0.00324868,0.01286141
 ,0.00146549,0.00019148,-0.00118307,-0.08492821,0.00586917,-0.01177354,
 -0.00667005,-0.00190973,0.00440931,-0.00023830,-0.00179713,0.00046530,
 -0.00015695,-0.00005466,0.00004354,-0.00012993,-0.00001374,-0.00009788
 ,-0.00062605,0.00018902,0.00018967,0.01396599,-0.00937113,-0.01089907,
 -0.00161924,0.00019884,-0.00134197,-0.00139064,0.00112299,-0.00147952,
 0.00006521,-0.00026634,0.00014280,-0.00065008,0.00057887,0.00027057,-0
 .00038309,0.00069887,-0.00045861,0.60312590,0.01175789,-0.03357769,0.0
 0489420,0.00189836,0.00620656,-0.00668605,0.00442589,-0.17442998,-0.05
 230562,0.01052744,0.00781653,-0.00302482,-0.00394428,0.00230596,0.0021
 3240,0.00015507,-0.00050559,-0.00087805,0.00052770,-0.00013368,0.00015
 616,0.00053267,-0.00048764,-0.00049735,-0.01549551,-0.01865252,-0.0029
 3436,-0.00080134,-0.00160334,0.00017111,-0.00026154,0.00238679,0.00080
 355,-0.00174216,-0.00081547,-0.00086199,0.00000341,0.00047023,0.000473
 75,0.00059157,-0.00047410,-0.00120846,0.00889231,0.48159010,0.01080225
 ,-0.01008770,0.02130767,0.00349724,0.00528591,-0.00975388,-0.01044423,
 -0.06138984,-0.11401270,0.00661002,0.00289857,-0.00127961,-0.00154772,
 0.00174082,0.00176485,0.00046811,-0.00033022,-0.00056111,0.00002775,-0
 .00025874,-0.00018051,0.00022193,-0.00027255,-0.00046026,-0.00758644,-
 0.00557993,0.00010690,-0.00211644,0.00015984,-0.00048593,-0.00139086,0
 .00225299,-0.00092552,-0.00037364,-0.00004723,-0.00030526,0.00028984,-
 0.00024734,-0.00012583,-0.00127725,0.00042689,-0.00019332,0.01441148,-
 0.06483355,0.55504565,-0.00088288,0.00138121,-0.00115893,0.00021473,-0
 .00030092,0.00028921,0.00896273,-0.00251050,-0.00275577,-0.00010709,-0
 .00011342,0.00010862,0.00000331,-0.00000877,0.00014642,0.00001427,-0.0
 0000832,-0.00015244,0.00005598,0.00003348,0.00002984,-0.00002579,-0.00
 006935,-0.00002925,0.00127461,0.00137431,0.00028009,-0.00015888,0.0002
 1971,-0.00011717,-0.00012981,0.00051109,-0.00072244,0.00023081,0.00029
 079,0.00029635,-0.00016150,0.00003591,-0.00006000,-0.00037863,0.000692
 33,0.00025986,-0.26945497,-0.10347624,0.02174794,0.28476234,-0.0042321
 8,0.00192631,-0.00194585,0.00101062,-0.00055291,0.00111041,-0.02937689
 ,-0.03010654,-0.00696622,-0.00362543,-0.00192507,0.00191265,0.00046290
 ,-0.00088674,-0.00015902,-0.00004251,0.00005698,0.00016338,-0.00010598
 ,0.00002399,-0.00004929,-0.00030308,0.00014908,0.00012608,0.00740871,0
 .00149096,-0.00202665,-0.00050535,0.00051383,-0.00060051,0.00004091,-0
 .00036446,0.00024365,0.00020680,0.00034962,-0.00002205,0.00056178,-0.0
 0028329,-0.00036585,0.00038224,-0.00031174,0.00066926,-0.09667104,-0.0
 9383324,0.01318870,0.11307254,0.11366611,0.00053817,0.00139136,-0.0009
 3723,-0.00058858,0.00012802,0.00072147,-0.01811984,-0.01568685,0.00042
 270,-0.00209072,-0.00086439,0.00080872,0.00020926,-0.00059009,-0.00038
 840,-0.00013245,0.00010035,0.00020249,0.00001579,0.00004691,0.00004317
 ,-0.00010113,0.00011630,0.00017722,0.00370374,0.00045769,-0.00123665,-
 0.00004314,-0.00003818,-0.00028262,-0.00013636,-0.00013093,0.00055245,
 0.00007604,-0.00012938,-0.00017565,0.00011143,0.00001601,0.00005395,-0
 .00027410,0.00048371,-0.00054001,0.02459703,0.01380082,-0.05486598,-0.
 02133555,-0.00523392,0.05360329,0.00015895,-0.00194652,0.00080588,0.00
 032994,0.00022442,-0.00032577,0.00355300,0.00299057,0.00260985,0.00064
 350,0.00062828,-0.00036466,-0.00021616,0.00008609,0.00014038,0.0000041
 6,-0.00007763,0.00001217,0.00001637,-0.00004029,-0.00003339,0.00003315
 ,0.00000580,-0.00001386,-0.00061120,-0.00092773,0.00048656,0.00001360,
 -0.00001700,0.00003509,0.00000915,0.00002759,-0.00028681,0.00014307,0.
 00020966,0.00013174,0.00011275,-0.00017389,-0.00017060,-0.00015223,0.0
 0009931,0.00038358,-0.17987494,0.09770672,-0.08951752,-0.01885042,0.01
 580219,-0.01534608,0.18713555,-0.00363727,0.00566518,-0.00822592,-0.00
 168920,-0.00124826,0.00247695,0.02371099,-0.03490445,0.01116665,-0.001
 76162,-0.00002232,-0.00048021,0.00043625,-0.00033360,-0.00023236,-0.00
 003721,-0.00000596,0.00027889,-0.00024273,-0.00001651,-0.00009033,-0.0
 0007552,0.00014475,0.00004932,0.00215862,0.00015925,0.00046030,0.00169
 811,-0.00012552,0.00088579,-0.00007904,-0.00018108,0.00020132,0.000199
 22,0.00021676,0.00018657,0.00006820,-0.00010207,-0.00014542,0.00014590
 ,0.00005966,0.00035416,0.09302149,-0.11972879,0.06872750,-0.00893048,0
 .01005315,-0.00689553,-0.10875235,0.14400789,-0.00086506,0.00192319,-0
 .00418629,-0.00086301,-0.00052989,0.00180739,0.01516536,-0.01694728,0.
 01031677,0.00046601,0.00021387,-0.00030922,-0.00018860,0.00017172,0.00
 030184,-0.00005394,0.00001512,-0.00025997,0.00006863,0.00006102,0.0000
 7304,0.00002714,-0.00010997,-0.00007360,-0.00047723,-0.00010524,0.0007
 5509,0.00010471,-0.00001308,0.00002872,-0.00005237,-0.00034777,-0.0001
 7965,0.00004874,0.00012845,0.00015110,-0.00000854,0.00007176,0.0000520
 9,0.00024759,0.00018075,0.00029942,-0.09216032,0.07399119,-0.11580444,
 0.00313854,-0.00198314,0.00238375,0.09709050,-0.07126018,0.11746845,0.
 00087192,-0.00008530,0.00190144,-0.00068864,-0.00021912,-0.00055667,0.
 00293796,0.00428801,0.00122047,0.00001072,0.00058895,-0.00014945,-0.00
 015609,-0.00019569,-0.00035604,-0.00021843,-0.00012746,0.00013087,-0.0
 0000368,0.00003615,0.00004469,0.00003008,0.00005501,0.00005475,-0.0005
 7338,-0.00034169,-0.00073705,0.00070339,-0.00033718,0.00043750,-0.0002
 3583,0.00014450,0.00063787,0.00005231,-0.00010385,-0.00023776,0.000170
 50,-0.00007044,-0.00014740,-0.00064223,0.00001975,-0.00029628,-0.07218
 375,-0.01074367,0.05985797,-0.00565633,-0.00482797,0.02898165,0.007492
 24,0.00239886,-0.02246305,0.06833822,0.00066770,0.00267956,-0.00469635
 ,-0.00119187,0.00072925,0.00172295,0.00873507,-0.00922686,-0.03916597,
 -0.00056433,-0.00075087,0.00058723,-0.00002958,-0.00017340,0.00004977,
 -0.00020311,0.00004597,-0.00001730,0.00001549,0.00002817,0.00003172,-0
 .00004701,0.00001685,0.00002487,0.00241311,0.00152194,-0.00082503,-0.0
 0056838,-0.00010095,-0.00060300,0.00002951,-0.00045447,0.00023861,0.00
 009873,0.00004618,0.00003616,-0.00008306,-0.00004191,-0.00004471,0.000
 18909,0.00007236,0.00002473,-0.01103544,-0.05704982,0.04188148,-0.0017
 8999,0.00002087,0.01311872,-0.00605817,-0.00081159,0.01601713,0.009515
 73,0.06343682,-0.00203860,0.00482972,-0.00412207,-0.00154041,-0.000973
 27,0.00259123,0.00313334,-0.01527656,-0.01542587,-0.00206349,-0.000785
 87,0.00061278,0.00057665,-0.00062262,-0.00080022,-0.00019524,0.0001345
 7,0.00048494,-0.00003810,0.00004586,0.00001893,-0.00004562,0.00019631,
 0.00023852,0.00330853,0.00160534,-0.00098721,0.00061307,-0.00020156,0.
 00013147,0.00014683,-0.00046535,-0.00001770,0.00011332,0.00009131,0.00
 016096,-0.00010729,0.00008891,0.00004549,0.00011753,0.00016438,0.00029
 365,0.06102602,0.03633737,-0.28182865,0.00009766,0.00180003,-0.0004968
 6,0.00430676,0.00320152,-0.01260267,-0.06791479,-0.02957146,0.31122732
 ,-0.06949333,-0.01233739,0.00058137,0.00269375,0.01661278,0.03814814,-
 0.00010907,0.02722101,0.00857493,-0.00286319,0.00061802,-0.00013816,0.
 00125720,-0.00029443,-0.00025534,-0.00012394,0.00010809,0.00014192,-0.
 00015920,0.00009644,-0.00001549,-0.00015834,-0.00001031,0.00008879,0.0
 0122671,-0.00086006,0.00041838,0.00294397,-0.00011072,0.00012321,0.003
 19706,-0.02149030,-0.02291557,0.00179297,-0.00006273,0.00075824,0.0013
 1614,0.00064584,-0.00038216,-0.00478282,-0.00259120,-0.00240567,-0.002
 76803,-0.00055430,-0.00368045,0.00028751,0.00074174,-0.00006514,0.0000
 5951,0.00136779,0.00077491,-0.00024898,-0.00009348,0.00050383,0.065932
 05,-0.02016862,-0.09778302,-0.04246515,0.01430538,0.02082188,-0.010959
 99,0.01528197,-0.04774286,-0.01783673,0.00520803,0.00223155,0.00104444
 ,-0.00026030,0.00019825,0.00030149,-0.00016113,0.00006812,0.00017641,0
 .00009240,-0.00012485,-0.00004543,0.00020717,0.00001495,-0.00011406,-0
 .00526396,-0.00504838,-0.00047293,-0.00393299,-0.00020835,-0.00307196,
 0.00087631,-0.01633807,-0.02400748,-0.00063238,0.00076682,-0.00077931,
 0.00149191,-0.00015319,0.00022146,-0.00495945,-0.00015727,-0.00153784,
 0.00710747,0.00051569,0.00648439,-0.00040338,0.00001308,-0.00009062,0.
 00021298,-0.00282648,-0.00147765,0.00000539,0.00001189,-0.00059866,-0.
 00900679,0.14574024,-0.01771064,-0.04343849,-0.10848112,0.04512883,-0.
 01734125,-0.06385005,0.00267128,-0.00722657,0.00894091,0.00588895,-0.0
 0182927,0.00567525,-0.00038987,-0.00016040,0.00065723,-0.00031509,0.00
 031990,0.00007418,0.00038532,-0.00017209,-0.00001245,-0.00002206,0.000
 03398,-0.00009086,0.00059825,-0.00127471,-0.00271841,-0.01217792,0.001
 94742,-0.00867416,-0.00008107,-0.02511101,-0.02030637,0.00177572,0.000
 50307,0.00004295,-0.00099741,-0.00123062,0.00098673,-0.00505985,-0.001
 38904,0.00034131,0.00097685,0.00046969,0.00255793,-0.00006299,0.000138
 35,-0.00004583,0.00005617,-0.00065903,-0.00022183,-0.00040872,0.001190
 47,0.00047599,-0.02025574,0.09522962,0.18464860||-0.00000031,0.0000015
 9,-0.00001074,-0.00000289,-0.00000732,0.00000244,-0.00000027,0.0000110
 1,0.00000235,-0.00000075,0.00001206,0.00000712,-0.00000628,0.00000173,
 -0.00000326,0.00000092,-0.00000144,0.00000306,-0.00000198,0.00000347,0
 .00000347,0.00000012,0.00000069,0.00000034,0.00000109,0.00000719,-0.00
 000500,0.00000290,-0.00001297,-0.00000255,-0.00000047,-0.00000233,-0.0
 0000371,0.00000029,-0.00000404,-0.00000651,-0.00000038,-0.00000003,-0.
 00000226,0.00000129,-0.00000519,-0.00000105,0.00000016,0.00000193,0.00
 000461,0.00000087,0.00000044,0.00000399,-0.00000061,0.00000200,0.00000
 813,0.00000341,-0.00000243,0.00000483,0.00000289,-0.00000635,-0.000005
 26|||@


 IT IS THE BEHAVIOR AND DISTRIBUTION OF THE ELECTRONS 
 AROUND THE NUCLEUS THAT GIVES THE FUNDAMENTAL 
 CHARACTER OF AN ATOM:  IT MUST BE THE SAME FOR MOLECULES.

                               -- C. A. COULSON, 1951
 Job cpu time:  0 days  0 hours 22 minutes 58.0 seconds.
 File lengths (MBytes):  RWF=     73 Int=      0 D2E=      0 Chk=      3 Scr=      1
 Normal termination of Gaussian 09 at Thu Jan 29 20:58:54 2015.
