 Entering Gaussian System, Link 0=g09
 Initial command:
 /opt/gridware/applications/gaussian/g09/l1.exe "/lustre/SCRATCH5/gau/mlawal/850367.sched01/Gau-28134.inp" -scrdir="/lustre/SCRATCH5/gau/mlawal/850367.sched01/"
 Entering Link 1 = /opt/gridware/applications/gaussian/g09/l1.exe PID=     28135.
  
 Copyright (c) 1988,1990,1992,1993,1995,1998,2003,2009,2013,
            Gaussian, Inc.  All Rights Reserved.
  
 This is part of the Gaussian(R) 09 program.  It is based on
 the Gaussian(R) 03 system (copyright 2003, Gaussian, Inc.),
 the Gaussian(R) 98 system (copyright 1998, Gaussian, Inc.),
 the Gaussian(R) 94 system (copyright 1995, Gaussian, Inc.),
 the Gaussian 92(TM) system (copyright 1992, Gaussian, Inc.),
 the Gaussian 90(TM) system (copyright 1990, Gaussian, Inc.),
 the Gaussian 88(TM) system (copyright 1988, Gaussian, Inc.),
 the Gaussian 86(TM) system (copyright 1986, Carnegie Mellon
 University), and the Gaussian 82(TM) system (copyright 1983,
 Carnegie Mellon University). Gaussian is a federally registered
 trademark of Gaussian, Inc.
  
 This software contains proprietary and confidential information,
 including trade secrets, belonging to Gaussian, Inc.
  
 This software is provided under written license and may be
 used, copied, transmitted, or stored only in accord with that
 written license.
  
 The following legend is applicable only to US Government
 contracts under FAR:
  
                    RESTRICTED RIGHTS LEGEND
  
 Use, reproduction and disclosure by the US Government is
 subject to restrictions as set forth in subparagraphs (a)
 and (c) of the Commercial Computer Software - Restricted
 Rights clause in FAR 52.227-19.
  
 Gaussian, Inc.
 340 Quinnipiac St., Bldg. 40, Wallingford CT 06492
  
  
 ---------------------------------------------------------------
 Warning -- This program may not be used in any manner that
 competes with the business of Gaussian, Inc. or will provide
 assistance to any competitor of Gaussian, Inc.  The licensee
 of this program is prohibited from giving any competitor of
 Gaussian, Inc. access to this program.  By using this program,
 the user acknowledges that Gaussian, Inc. is engaged in the
 business of creating and licensing software in the field of
 computational chemistry and represents and warrants to the
 licensee that it is not a competitor of Gaussian, Inc. and that
 it will not use this program in any manner prohibited above.
 ---------------------------------------------------------------
  

 Cite this work as:
 Gaussian 09, Revision D.01,
 M. J. Frisch, G. W. Trucks, H. B. Schlegel, G. E. Scuseria, 
 M. A. Robb, J. R. Cheeseman, G. Scalmani, V. Barone, B. Mennucci, 
 G. A. Petersson, H. Nakatsuji, M. Caricato, X. Li, H. P. Hratchian, 
 A. F. Izmaylov, J. Bloino, G. Zheng, J. L. Sonnenberg, M. Hada, 
 M. Ehara, K. Toyota, R. Fukuda, J. Hasegawa, M. Ishida, T. Nakajima, 
 Y. Honda, O. Kitao, H. Nakai, T. Vreven, J. A. Montgomery, Jr., 
 J. E. Peralta, F. Ogliaro, M. Bearpark, J. J. Heyd, E. Brothers, 
 K. N. Kudin, V. N. Staroverov, T. Keith, R. Kobayashi, J. Normand, 
 K. Raghavachari, A. Rendell, J. C. Burant, S. S. Iyengar, J. Tomasi, 
 M. Cossi, N. Rega, J. M. Millam, M. Klene, J. E. Knox, J. B. Cross, 
 V. Bakken, C. Adamo, J. Jaramillo, R. Gomperts, R. E. Stratmann, 
 O. Yazyev, A. J. Austin, R. Cammi, C. Pomelli, J. W. Ochterski, 
 R. L. Martin, K. Morokuma, V. G. Zakrzewski, G. A. Voth, 
 P. Salvador, J. J. Dannenberg, S. Dapprich, A. D. Daniels, 
 O. Farkas, J. B. Foresman, J. V. Ortiz, J. Cioslowski, 
 and D. J. Fox, Gaussian, Inc., Wallingford CT, 2013.
 
 ******************************************
 Gaussian 09:  EM64L-G09RevD.01 24-Apr-2013
                26-Mar-2015 
 ******************************************
 %nprocshared=8
 Will use up to    8 processors via shared memory.
 %nprocl=1
 Will use up to    1 processors via Linda.
 ----------------------------------------------------------------------
 # opt=(calcfc,ts,noeigentest) freq=noraman b3lyp/genecp geom=connectiv
 ity gfinput pseudo=read
 ----------------------------------------------------------------------
 1/5=1,10=4,11=1,14=-1,18=20,26=3,38=1,57=2/1,3;
 2/9=110,12=2,17=6,18=5,40=1/2;
 3/5=7,11=2,16=1,17=8,24=10,25=1,30=1,71=2,74=-5,140=1/1,2,3;
 4//1;
 5/5=2,38=5/2;
 8/6=4,10=90,11=11/1;
 11/6=1,8=1,9=11,15=111,16=1/1,2,10;
 10/6=1,13=1/2;
 6/7=2,8=2,9=2,10=2,28=1/1;
 7/10=1,18=20,25=1/1,2,3,16;
 1/5=1,10=4,11=1,14=-1,18=20,26=3/3(2);
 2/9=110/2;
 99//99;
 2/9=110/2;
 3/5=7,6=1,11=2,16=1,17=8,25=1,30=1,71=1,74=-5,82=7/1,2,3;
 4/5=5,16=3,69=1/1;
 5/5=2,38=5/2;
 7//1,2,3,16;
 1/5=1,11=1,14=-1,18=20,26=3/3(-5);
 2/9=110/2;
 6/7=2,8=2,9=2,10=2,19=2,28=1/1;
 99/9=1/99;
 ------------------------------------------------
 gen calculation ts624F-C H O=aug-ccpvtz/F=dgdzvp
 ------------------------------------------------
 Symbolic Z-matrix:
 Charge =  0 Multiplicity = 1
 C                     1.03864  -0.44423   0.15046 
 O                     0.14066  -0.92438   0.90514 
 O                     0.23413   0.69407  -0.72018 
 O                    -1.87108  -0.6155   -0.42045 
 C                    -2.86906   0.02124   0.41467 
 H                    -2.40055   0.51502   1.27139 
 H                    -3.38905   0.73373  -0.23411 
 H                    -3.55655  -0.76608   0.74698 
 H                    -0.92912   0.23641  -0.72989 
 H                    -1.18981  -1.20177   0.23529 
 C                     2.3178    0.14147   0.67281 
 H                     3.00343  -0.66652   0.98211 
 H                     2.84725   0.74589  -0.07611 
 H                     2.13892   0.75634   1.56506 
 C                     0.16568   2.00624  -0.11717 
 H                     1.15585   2.46142  -0.22981 
 H                    -0.5738    2.57023  -0.69535 
 H                    -0.11844   1.92899   0.93699 
 F                     1.22932  -1.21061  -0.95703 
 
 Add virtual bond connecting atoms H10        and O4         Dist= 2.10D+00.
 Add virtual bond connecting atoms H9         and O3         Dist= 2.36D+00.
 Add virtual bond connecting atoms H9         and O4         Dist= 2.47D+00.
 Add virtual bond connecting atoms O3         and C1         Dist= 3.11D+00.
 Add virtual bond connecting atoms H10        and O2         Dist= 2.86D+00.

 GradGradGradGradGradGradGradGradGradGradGradGradGradGradGradGradGradGrad
 Berny optimization.
 Initialization pass.
                           ----------------------------
                           !    Initial Parameters    !
                           ! (Angstroms and Degrees)  !
 --------------------------                            --------------------------
 ! Name  Definition              Value          Derivative Info.                !
 --------------------------------------------------------------------------------
 ! R1    R(1,2)                  1.2675         calculate D2E/DX2 analytically  !
 ! R2    R(1,3)                  1.6435         calculate D2E/DX2 analytically  !
 ! R3    R(1,11)                 1.5007         calculate D2E/DX2 analytically  !
 ! R4    R(1,19)                 1.3602         calculate D2E/DX2 analytically  !
 ! R5    R(2,10)                 1.5152         calculate D2E/DX2 analytically  !
 ! R6    R(3,9)                  1.2501         calculate D2E/DX2 analytically  !
 ! R7    R(3,15)                 1.4457         calculate D2E/DX2 analytically  !
 ! R8    R(4,5)                  1.4487         calculate D2E/DX2 analytically  !
 ! R9    R(4,9)                  1.3072         calculate D2E/DX2 analytically  !
 ! R10   R(4,10)                 1.1126         calculate D2E/DX2 analytically  !
 ! R11   R(5,6)                  1.0942         calculate D2E/DX2 analytically  !
 ! R12   R(5,7)                  1.095          calculate D2E/DX2 analytically  !
 ! R13   R(5,8)                  1.0968         calculate D2E/DX2 analytically  !
 ! R14   R(11,12)                1.1039         calculate D2E/DX2 analytically  !
 ! R15   R(11,13)                1.0984         calculate D2E/DX2 analytically  !
 ! R16   R(11,14)                1.0983         calculate D2E/DX2 analytically  !
 ! R17   R(15,16)                1.0956         calculate D2E/DX2 analytically  !
 ! R18   R(15,17)                1.0951         calculate D2E/DX2 analytically  !
 ! R19   R(15,18)                1.0945         calculate D2E/DX2 analytically  !
 ! A1    A(2,1,3)              103.3558         calculate D2E/DX2 analytically  !
 ! A2    A(2,1,11)             122.9901         calculate D2E/DX2 analytically  !
 ! A3    A(2,1,19)             111.7568         calculate D2E/DX2 analytically  !
 ! A4    A(3,1,11)             109.3495         calculate D2E/DX2 analytically  !
 ! A5    A(3,1,19)              91.5779         calculate D2E/DX2 analytically  !
 ! A6    A(11,1,19)            112.569          calculate D2E/DX2 analytically  !
 ! A7    A(1,2,10)             115.3559         calculate D2E/DX2 analytically  !
 ! A8    A(1,3,9)              101.8916         calculate D2E/DX2 analytically  !
 ! A9    A(1,3,15)             115.5219         calculate D2E/DX2 analytically  !
 ! A10   A(9,3,15)             106.946          calculate D2E/DX2 analytically  !
 ! A11   A(5,4,9)              110.2684         calculate D2E/DX2 analytically  !
 ! A12   A(5,4,10)             108.2803         calculate D2E/DX2 analytically  !
 ! A13   A(9,4,10)              92.3898         calculate D2E/DX2 analytically  !
 ! A14   A(4,5,6)              110.7762         calculate D2E/DX2 analytically  !
 ! A15   A(4,5,7)              105.7583         calculate D2E/DX2 analytically  !
 ! A16   A(4,5,8)              106.9153         calculate D2E/DX2 analytically  !
 ! A17   A(6,5,7)              111.9383         calculate D2E/DX2 analytically  !
 ! A18   A(6,5,8)              110.7995         calculate D2E/DX2 analytically  !
 ! A19   A(7,5,8)              110.4227         calculate D2E/DX2 analytically  !
 ! A20   A(3,9,4)              155.1338         calculate D2E/DX2 analytically  !
 ! A21   A(2,10,4)             134.5691         calculate D2E/DX2 analytically  !
 ! A22   A(1,11,12)            109.9543         calculate D2E/DX2 analytically  !
 ! A23   A(1,11,13)            112.848          calculate D2E/DX2 analytically  !
 ! A24   A(1,11,14)            111.2506         calculate D2E/DX2 analytically  !
 ! A25   A(12,11,13)           107.1229         calculate D2E/DX2 analytically  !
 ! A26   A(12,11,14)           106.4581         calculate D2E/DX2 analytically  !
 ! A27   A(13,11,14)           108.9267         calculate D2E/DX2 analytically  !
 ! A28   A(3,15,16)            106.9428         calculate D2E/DX2 analytically  !
 ! A29   A(3,15,17)            106.2125         calculate D2E/DX2 analytically  !
 ! A30   A(3,15,18)            110.4844         calculate D2E/DX2 analytically  !
 ! A31   A(16,15,17)           110.0007         calculate D2E/DX2 analytically  !
 ! A32   A(16,15,18)           111.2818         calculate D2E/DX2 analytically  !
 ! A33   A(17,15,18)           111.6898         calculate D2E/DX2 analytically  !
 ! D1    D(3,1,2,10)            43.6513         calculate D2E/DX2 analytically  !
 ! D2    D(11,1,2,10)          167.7157         calculate D2E/DX2 analytically  !
 ! D3    D(19,1,2,10)          -53.5425         calculate D2E/DX2 analytically  !
 ! D4    D(2,1,3,9)            -27.9597         calculate D2E/DX2 analytically  !
 ! D5    D(2,1,3,15)            87.5466         calculate D2E/DX2 analytically  !
 ! D6    D(11,1,3,9)          -160.5309         calculate D2E/DX2 analytically  !
 ! D7    D(11,1,3,15)          -45.0246         calculate D2E/DX2 analytically  !
 ! D8    D(19,1,3,9)            84.849          calculate D2E/DX2 analytically  !
 ! D9    D(19,1,3,15)         -159.6447         calculate D2E/DX2 analytically  !
 ! D10   D(2,1,11,12)           76.0629         calculate D2E/DX2 analytically  !
 ! D11   D(2,1,11,13)         -164.4075         calculate D2E/DX2 analytically  !
 ! D12   D(2,1,11,14)          -41.6209         calculate D2E/DX2 analytically  !
 ! D13   D(3,1,11,12)         -162.6147         calculate D2E/DX2 analytically  !
 ! D14   D(3,1,11,13)          -43.0851         calculate D2E/DX2 analytically  !
 ! D15   D(3,1,11,14)           79.7015         calculate D2E/DX2 analytically  !
 ! D16   D(19,1,11,12)         -62.3871         calculate D2E/DX2 analytically  !
 ! D17   D(19,1,11,13)          57.1425         calculate D2E/DX2 analytically  !
 ! D18   D(19,1,11,14)         179.929          calculate D2E/DX2 analytically  !
 ! D19   D(1,2,10,4)           -49.5979         calculate D2E/DX2 analytically  !
 ! D20   D(1,3,9,4)              2.7636         calculate D2E/DX2 analytically  !
 ! D21   D(15,3,9,4)          -118.8679         calculate D2E/DX2 analytically  !
 ! D22   D(1,3,15,16)           74.8403         calculate D2E/DX2 analytically  !
 ! D23   D(1,3,15,17)         -167.7123         calculate D2E/DX2 analytically  !
 ! D24   D(1,3,15,18)          -46.4143         calculate D2E/DX2 analytically  !
 ! D25   D(9,3,15,16)         -172.5666         calculate D2E/DX2 analytically  !
 ! D26   D(9,3,15,17)          -55.1191         calculate D2E/DX2 analytically  !
 ! D27   D(9,3,15,18)           66.1789         calculate D2E/DX2 analytically  !
 ! D28   D(9,4,5,6)            -51.9849         calculate D2E/DX2 analytically  !
 ! D29   D(9,4,5,7)             69.4987         calculate D2E/DX2 analytically  !
 ! D30   D(9,4,5,8)           -172.8052         calculate D2E/DX2 analytically  !
 ! D31   D(10,4,5,6)            47.7332         calculate D2E/DX2 analytically  !
 ! D32   D(10,4,5,7)           169.2168         calculate D2E/DX2 analytically  !
 ! D33   D(10,4,5,8)           -73.0871         calculate D2E/DX2 analytically  !
 ! D34   D(5,4,9,3)            114.1418         calculate D2E/DX2 analytically  !
 ! D35   D(10,4,9,3)             3.65           calculate D2E/DX2 analytically  !
 ! D36   D(5,4,10,2)           -94.1936         calculate D2E/DX2 analytically  !
 ! D37   D(9,4,10,2)            18.0741         calculate D2E/DX2 analytically  !
 --------------------------------------------------------------------------------
 Trust Radius=3.00D-01 FncErr=1.00D-07 GrdErr=1.00D-06
 Number of steps in this run=     99 maximum allowed number of steps=    114.
 Search for a saddle point of order  1.
 GradGradGradGradGradGradGradGradGradGradGradGradGradGradGradGradGradGrad

                          Input orientation:                          
 ---------------------------------------------------------------------
 Center     Atomic      Atomic             Coordinates (Angstroms)
 Number     Number       Type             X           Y           Z
 ---------------------------------------------------------------------
      1          6           0        1.038638   -0.444228    0.150458
      2          8           0        0.140657   -0.924384    0.905138
      3          8           0        0.234125    0.694069   -0.720178
      4          8           0       -1.871075   -0.615496   -0.420445
      5          6           0       -2.869059    0.021236    0.414667
      6          1           0       -2.400549    0.515022    1.271394
      7          1           0       -3.389051    0.733726   -0.234110
      8          1           0       -3.556552   -0.766079    0.746980
      9          1           0       -0.929120    0.236408   -0.729885
     10          1           0       -1.189813   -1.201772    0.235293
     11          6           0        2.317801    0.141469    0.672809
     12          1           0        3.003432   -0.666516    0.982111
     13          1           0        2.847250    0.745892   -0.076114
     14          1           0        2.138920    0.756342    1.565055
     15          6           0        0.165676    2.006238   -0.117169
     16          1           0        1.155848    2.461422   -0.229811
     17          1           0       -0.573795    2.570231   -0.695350
     18          1           0       -0.118440    1.928985    0.936989
     19          9           0        1.229320   -1.210607   -0.957029
 ---------------------------------------------------------------------
                    Distance matrix (angstroms):
                    1          2          3          4          5
     1  C    0.000000
     2  O    1.267463   0.000000
     3  O    1.643462   2.295600   0.000000
     4  O    2.970133   2.428919   2.497332   0.000000
     5  C    3.944180   3.192671   3.371992   1.448728   0.000000
     6  H    3.742281   2.943427   3.307556   2.102554   1.094215
     7  H    4.597814   4.062764   3.655850   2.039454   1.094964
     8  H    4.644911   3.703975   4.319006   2.055818   1.096788
     9  H    2.260606   2.272699   1.250075   1.307200   2.262667
    10  H    2.355221   1.515185   2.556313   1.112578   2.085136
    11  C    1.500716   2.435154   2.566610   4.394870   5.194671
    12  H    2.145105   2.875396   3.523924   5.072532   5.939793
    13  H    2.176878   3.328411   2.691826   4.922858   5.782921
    14  H    2.157098   2.693211   2.975636   4.680193   5.190725
    15  C    2.615047   3.103914   1.445715   3.333740   3.665065
    16  H    2.932771   3.712466   2.052698   4.320420   4.750762
    17  H    3.521689   3.909519   2.042874   3.450705   3.605239
    18  H    2.754923   2.865285   2.096550   3.374721   3.387954
    19  F    1.360229   2.175954   2.162013   3.202269   4.493962
                    6          7          8          9         10
     6  H    0.000000
     7  H    1.814252   0.000000
     8  H    1.803489   1.800003   0.000000
     9  H    2.499569   2.558198   3.176399   0.000000
    10  H    2.342385   2.967009   2.460306   1.751540   0.000000
    11  C    4.770815   5.808737   5.944507   3.538228   3.781411
    12  H    5.539199   6.656103   6.564952   4.383055   4.292731
    13  H    5.422958   6.238314   6.631155   3.866259   4.493133
    14  H    4.555354   5.813430   5.951925   3.866517   4.084476
    15  C    3.276789   3.777439   4.720961   2.169400   3.500415
    16  H    4.323199   4.862207   5.794618   3.089960   4.374636
    17  H    3.380680   3.392810   4.701927   2.360970   3.933647
    18  H    2.705391   3.673828   4.372652   2.510077   3.382581
    19  F    4.595608   5.062844   5.099590   2.608507   2.697020
                   11         12         13         14         15
    11  C    0.000000
    12  H    1.103901   0.000000
    13  H    1.098421   1.771759   0.000000
    14  H    1.098258   1.764010   1.787534   0.000000
    15  C    2.955177   4.050295   2.963275   2.878508   0.000000
    16  H    2.747188   3.829663   2.414023   2.663695   1.095592
    17  H    4.016475   5.107539   3.926221   3.969691   1.095079
    18  H    3.033195   4.060141   3.349836   2.620159   1.094504
    19  F    2.381023   2.683984   2.687303   3.325232   3.490673
                   16         17         18         19
    16  H    0.000000
    17  H    1.794500   0.000000
    18  H    1.807961   1.811926   0.000000
    19  F    3.744067   4.196956   3.906507   0.000000
 Stoichiometry    C4H11FO3
 Framework group  C1[X(C4H11FO3)]
 Deg. of freedom    51
 Full point group                 C1      NOp   1
 Largest Abelian subgroup         C1      NOp   1
 Largest concise Abelian subgroup C1      NOp   1
                         Standard orientation:                         
 ---------------------------------------------------------------------
 Center     Atomic      Atomic             Coordinates (Angstroms)
 Number     Number       Type             X           Y           Z
 ---------------------------------------------------------------------
      1          6           0        1.038638   -0.444228    0.150458
      2          8           0        0.140657   -0.924384    0.905138
      3          8           0        0.234125    0.694069   -0.720178
      4          8           0       -1.871075   -0.615496   -0.420445
      5          6           0       -2.869059    0.021236    0.414667
      6          1           0       -2.400549    0.515022    1.271394
      7          1           0       -3.389051    0.733726   -0.234110
      8          1           0       -3.556552   -0.766079    0.746980
      9          1           0       -0.929120    0.236408   -0.729885
     10          1           0       -1.189813   -1.201772    0.235293
     11          6           0        2.317801    0.141469    0.672809
     12          1           0        3.003432   -0.666516    0.982111
     13          1           0        2.847250    0.745892   -0.076114
     14          1           0        2.138920    0.756342    1.565055
     15          6           0        0.165676    2.006238   -0.117169
     16          1           0        1.155848    2.461422   -0.229811
     17          1           0       -0.573795    2.570231   -0.695350
     18          1           0       -0.118440    1.928985    0.936989
     19          9           0        1.229320   -1.210607   -0.957029
 ---------------------------------------------------------------------
 Rotational constants (GHZ):      2.7524908      1.3461166      1.1357869
 General basis read from cards:  (5D, 7F)
 ======================================================================================================
                                       Pseudopotential Parameters
 ======================================================================================================
  Center     Atomic      Valence      Angular      Power
  Number     Number     Electrons     Momentum     of R      Exponent        Coefficient   SO-Coeffient
 ======================================================================================================
    1          6
                                   No pseudopotential on this center.
    2          8
                                   No pseudopotential on this center.
    3          8
                                   No pseudopotential on this center.
    4          8
                                   No pseudopotential on this center.
    5          6
                                   No pseudopotential on this center.
    6          1
                                   No pseudopotential on this center.
    7          1
                                   No pseudopotential on this center.
    8          1
                                   No pseudopotential on this center.
    9          1
                                   No pseudopotential on this center.
   10          1
                                   No pseudopotential on this center.
   11          6
                                   No pseudopotential on this center.
   12          1
                                   No pseudopotential on this center.
   13          1
                                   No pseudopotential on this center.
   14          1
                                   No pseudopotential on this center.
   15          6
                                   No pseudopotential on this center.
   16          1
                                   No pseudopotential on this center.
   17          1
                                   No pseudopotential on this center.
   18          1
                                   No pseudopotential on this center.
   19          9
                                   No pseudopotential on this center.
 ======================================================================================================
 AO basis set in the form of general basis input (Overlap normalization):
      1 0
 S   7 1.00       0.000000000000
      0.8236000000D+04  0.5419783203D-03
      0.1235000000D+04  0.4192873817D-02
      0.2808000000D+03  0.2152216205D-01
      0.7927000000D+02  0.8353432195D-01
      0.2559000000D+02  0.2395828457D+00
      0.8997000000D+01  0.4428528419D+00
      0.3319000000D+01  0.3517995618D+00
 S   6 1.00       0.000000000000
      0.2808000000D+03 -0.5949224937D-04
      0.7927000000D+02 -0.1148158310D-02
      0.2559000000D+02 -0.1001913745D-01
      0.8997000000D+01 -0.6121949230D-01
      0.3319000000D+01 -0.1732698541D+00
      0.3643000000D+00  0.1072915192D+01
 S   1 1.00       0.000000000000
      0.9059000000D+00  0.1000000000D+01
 S   1 1.00       0.000000000000
      0.1285000000D+00  0.1000000000D+01
 S   1 1.00       0.000000000000
      0.4402000000D-01  0.1000000000D+01
 P   3 1.00       0.000000000000
      0.1871000000D+02  0.3942638716D-01
      0.4133000000D+01  0.2440889849D+00
      0.1200000000D+01  0.8154920089D+00
 P   1 1.00       0.000000000000
      0.3827000000D+00  0.1000000000D+01
 P   1 1.00       0.000000000000
      0.1209000000D+00  0.1000000000D+01
 P   1 1.00       0.000000000000
      0.3569000000D-01  0.1000000000D+01
 D   1 1.00       0.000000000000
      0.1097000000D+01  0.1000000000D+01
 D   1 1.00       0.000000000000
      0.3180000000D+00  0.1000000000D+01
 D   1 1.00       0.000000000000
      0.1000000000D+00  0.1000000000D+01
 F   1 1.00       0.000000000000
      0.7610000000D+00  0.1000000000D+01
 F   1 1.00       0.000000000000
      0.2680000000D+00  0.1000000000D+01
 ****
      2 0
 S   7 1.00       0.000000000000
      0.1533000000D+05  0.5198089434D-03
      0.2299000000D+04  0.4020256215D-02
      0.5224000000D+03  0.2071282673D-01
      0.1473000000D+03  0.8101055358D-01
      0.4755000000D+02  0.2359629851D+00
      0.1676000000D+02  0.4426534455D+00
      0.6207000000D+01  0.3570644227D+00
 S   6 1.00       0.000000000000
      0.5224000000D+03 -0.4421150084D-04
      0.1473000000D+03 -0.1225910413D-02
      0.4755000000D+02 -0.1055177248D-01
      0.1676000000D+02 -0.6744526326D-01
      0.6207000000D+01 -0.1711986073D+00
      0.6882000000D+00  0.1073298561D+01
 S   1 1.00       0.000000000000
      0.1752000000D+01  0.1000000000D+01
 S   1 1.00       0.000000000000
      0.2384000000D+00  0.1000000000D+01
 S   1 1.00       0.000000000000
      0.7376000000D-01  0.1000000000D+01
 P   3 1.00       0.000000000000
      0.3446000000D+02  0.4116348957D-01
      0.7749000000D+01  0.2577628359D+00
      0.2280000000D+01  0.8024192744D+00
 P   1 1.00       0.000000000000
      0.7156000000D+00  0.1000000000D+01
 P   1 1.00       0.000000000000
      0.2140000000D+00  0.1000000000D+01
 P   1 1.00       0.000000000000
      0.5974000000D-01  0.1000000000D+01
 D   1 1.00       0.000000000000
      0.2314000000D+01  0.1000000000D+01
 D   1 1.00       0.000000000000
      0.6450000000D+00  0.1000000000D+01
 D   1 1.00       0.000000000000
      0.2140000000D+00  0.1000000000D+01
 F   1 1.00       0.000000000000
      0.1428000000D+01  0.1000000000D+01
 F   1 1.00       0.000000000000
      0.5000000000D+00  0.1000000000D+01
 ****
      3 0
 S   7 1.00       0.000000000000
      0.1533000000D+05  0.5198089434D-03
      0.2299000000D+04  0.4020256215D-02
      0.5224000000D+03  0.2071282673D-01
      0.1473000000D+03  0.8101055358D-01
      0.4755000000D+02  0.2359629851D+00
      0.1676000000D+02  0.4426534455D+00
      0.6207000000D+01  0.3570644227D+00
 S   6 1.00       0.000000000000
      0.5224000000D+03 -0.4421150084D-04
      0.1473000000D+03 -0.1225910413D-02
      0.4755000000D+02 -0.1055177248D-01
      0.1676000000D+02 -0.6744526326D-01
      0.6207000000D+01 -0.1711986073D+00
      0.6882000000D+00  0.1073298561D+01
 S   1 1.00       0.000000000000
      0.1752000000D+01  0.1000000000D+01
 S   1 1.00       0.000000000000
      0.2384000000D+00  0.1000000000D+01
 S   1 1.00       0.000000000000
      0.7376000000D-01  0.1000000000D+01
 P   3 1.00       0.000000000000
      0.3446000000D+02  0.4116348957D-01
      0.7749000000D+01  0.2577628359D+00
      0.2280000000D+01  0.8024192744D+00
 P   1 1.00       0.000000000000
      0.7156000000D+00  0.1000000000D+01
 P   1 1.00       0.000000000000
      0.2140000000D+00  0.1000000000D+01
 P   1 1.00       0.000000000000
      0.5974000000D-01  0.1000000000D+01
 D   1 1.00       0.000000000000
      0.2314000000D+01  0.1000000000D+01
 D   1 1.00       0.000000000000
      0.6450000000D+00  0.1000000000D+01
 D   1 1.00       0.000000000000
      0.2140000000D+00  0.1000000000D+01
 F   1 1.00       0.000000000000
      0.1428000000D+01  0.1000000000D+01
 F   1 1.00       0.000000000000
      0.5000000000D+00  0.1000000000D+01
 ****
      4 0
 S   7 1.00       0.000000000000
      0.1533000000D+05  0.5198089434D-03
      0.2299000000D+04  0.4020256215D-02
      0.5224000000D+03  0.2071282673D-01
      0.1473000000D+03  0.8101055358D-01
      0.4755000000D+02  0.2359629851D+00
      0.1676000000D+02  0.4426534455D+00
      0.6207000000D+01  0.3570644227D+00
 S   6 1.00       0.000000000000
      0.5224000000D+03 -0.4421150084D-04
      0.1473000000D+03 -0.1225910413D-02
      0.4755000000D+02 -0.1055177248D-01
      0.1676000000D+02 -0.6744526326D-01
      0.6207000000D+01 -0.1711986073D+00
      0.6882000000D+00  0.1073298561D+01
 S   1 1.00       0.000000000000
      0.1752000000D+01  0.1000000000D+01
 S   1 1.00       0.000000000000
      0.2384000000D+00  0.1000000000D+01
 S   1 1.00       0.000000000000
      0.7376000000D-01  0.1000000000D+01
 P   3 1.00       0.000000000000
      0.3446000000D+02  0.4116348957D-01
      0.7749000000D+01  0.2577628359D+00
      0.2280000000D+01  0.8024192744D+00
 P   1 1.00       0.000000000000
      0.7156000000D+00  0.1000000000D+01
 P   1 1.00       0.000000000000
      0.2140000000D+00  0.1000000000D+01
 P   1 1.00       0.000000000000
      0.5974000000D-01  0.1000000000D+01
 D   1 1.00       0.000000000000
      0.2314000000D+01  0.1000000000D+01
 D   1 1.00       0.000000000000
      0.6450000000D+00  0.1000000000D+01
 D   1 1.00       0.000000000000
      0.2140000000D+00  0.1000000000D+01
 F   1 1.00       0.000000000000
      0.1428000000D+01  0.1000000000D+01
 F   1 1.00       0.000000000000
      0.5000000000D+00  0.1000000000D+01
 ****
      5 0
 S   7 1.00       0.000000000000
      0.8236000000D+04  0.5419783203D-03
      0.1235000000D+04  0.4192873817D-02
      0.2808000000D+03  0.2152216205D-01
      0.7927000000D+02  0.8353432195D-01
      0.2559000000D+02  0.2395828457D+00
      0.8997000000D+01  0.4428528419D+00
      0.3319000000D+01  0.3517995618D+00
 S   6 1.00       0.000000000000
      0.2808000000D+03 -0.5949224937D-04
      0.7927000000D+02 -0.1148158310D-02
      0.2559000000D+02 -0.1001913745D-01
      0.8997000000D+01 -0.6121949230D-01
      0.3319000000D+01 -0.1732698541D+00
      0.3643000000D+00  0.1072915192D+01
 S   1 1.00       0.000000000000
      0.9059000000D+00  0.1000000000D+01
 S   1 1.00       0.000000000000
      0.1285000000D+00  0.1000000000D+01
 S   1 1.00       0.000000000000
      0.4402000000D-01  0.1000000000D+01
 P   3 1.00       0.000000000000
      0.1871000000D+02  0.3942638716D-01
      0.4133000000D+01  0.2440889849D+00
      0.1200000000D+01  0.8154920089D+00
 P   1 1.00       0.000000000000
      0.3827000000D+00  0.1000000000D+01
 P   1 1.00       0.000000000000
      0.1209000000D+00  0.1000000000D+01
 P   1 1.00       0.000000000000
      0.3569000000D-01  0.1000000000D+01
 D   1 1.00       0.000000000000
      0.1097000000D+01  0.1000000000D+01
 D   1 1.00       0.000000000000
      0.3180000000D+00  0.1000000000D+01
 D   1 1.00       0.000000000000
      0.1000000000D+00  0.1000000000D+01
 F   1 1.00       0.000000000000
      0.7610000000D+00  0.1000000000D+01
 F   1 1.00       0.000000000000
      0.2680000000D+00  0.1000000000D+01
 ****
      6 0
 S   3 1.00       0.000000000000
      0.3387000000D+02  0.2549486323D-01
      0.5095000000D+01  0.1903627659D+00
      0.1159000000D+01  0.8521620222D+00
 S   1 1.00       0.000000000000
      0.3258000000D+00  0.1000000000D+01
 S   1 1.00       0.000000000000
      0.1027000000D+00  0.1000000000D+01
 S   1 1.00       0.000000000000
      0.2526000000D-01  0.1000000000D+01
 P   1 1.00       0.000000000000
      0.1407000000D+01  0.1000000000D+01
 P   1 1.00       0.000000000000
      0.3880000000D+00  0.1000000000D+01
 P   1 1.00       0.000000000000
      0.1020000000D+00  0.1000000000D+01
 D   1 1.00       0.000000000000
      0.1057000000D+01  0.1000000000D+01
 D   1 1.00       0.000000000000
      0.2470000000D+00  0.1000000000D+01
 ****
      7 0
 S   3 1.00       0.000000000000
      0.3387000000D+02  0.2549486323D-01
      0.5095000000D+01  0.1903627659D+00
      0.1159000000D+01  0.8521620222D+00
 S   1 1.00       0.000000000000
      0.3258000000D+00  0.1000000000D+01
 S   1 1.00       0.000000000000
      0.1027000000D+00  0.1000000000D+01
 S   1 1.00       0.000000000000
      0.2526000000D-01  0.1000000000D+01
 P   1 1.00       0.000000000000
      0.1407000000D+01  0.1000000000D+01
 P   1 1.00       0.000000000000
      0.3880000000D+00  0.1000000000D+01
 P   1 1.00       0.000000000000
      0.1020000000D+00  0.1000000000D+01
 D   1 1.00       0.000000000000
      0.1057000000D+01  0.1000000000D+01
 D   1 1.00       0.000000000000
      0.2470000000D+00  0.1000000000D+01
 ****
      8 0
 S   3 1.00       0.000000000000
      0.3387000000D+02  0.2549486323D-01
      0.5095000000D+01  0.1903627659D+00
      0.1159000000D+01  0.8521620222D+00
 S   1 1.00       0.000000000000
      0.3258000000D+00  0.1000000000D+01
 S   1 1.00       0.000000000000
      0.1027000000D+00  0.1000000000D+01
 S   1 1.00       0.000000000000
      0.2526000000D-01  0.1000000000D+01
 P   1 1.00       0.000000000000
      0.1407000000D+01  0.1000000000D+01
 P   1 1.00       0.000000000000
      0.3880000000D+00  0.1000000000D+01
 P   1 1.00       0.000000000000
      0.1020000000D+00  0.1000000000D+01
 D   1 1.00       0.000000000000
      0.1057000000D+01  0.1000000000D+01
 D   1 1.00       0.000000000000
      0.2470000000D+00  0.1000000000D+01
 ****
      9 0
 S   3 1.00       0.000000000000
      0.3387000000D+02  0.2549486323D-01
      0.5095000000D+01  0.1903627659D+00
      0.1159000000D+01  0.8521620222D+00
 S   1 1.00       0.000000000000
      0.3258000000D+00  0.1000000000D+01
 S   1 1.00       0.000000000000
      0.1027000000D+00  0.1000000000D+01
 S   1 1.00       0.000000000000
      0.2526000000D-01  0.1000000000D+01
 P   1 1.00       0.000000000000
      0.1407000000D+01  0.1000000000D+01
 P   1 1.00       0.000000000000
      0.3880000000D+00  0.1000000000D+01
 P   1 1.00       0.000000000000
      0.1020000000D+00  0.1000000000D+01
 D   1 1.00       0.000000000000
      0.1057000000D+01  0.1000000000D+01
 D   1 1.00       0.000000000000
      0.2470000000D+00  0.1000000000D+01
 ****
     10 0
 S   3 1.00       0.000000000000
      0.3387000000D+02  0.2549486323D-01
      0.5095000000D+01  0.1903627659D+00
      0.1159000000D+01  0.8521620222D+00
 S   1 1.00       0.000000000000
      0.3258000000D+00  0.1000000000D+01
 S   1 1.00       0.000000000000
      0.1027000000D+00  0.1000000000D+01
 S   1 1.00       0.000000000000
      0.2526000000D-01  0.1000000000D+01
 P   1 1.00       0.000000000000
      0.1407000000D+01  0.1000000000D+01
 P   1 1.00       0.000000000000
      0.3880000000D+00  0.1000000000D+01
 P   1 1.00       0.000000000000
      0.1020000000D+00  0.1000000000D+01
 D   1 1.00       0.000000000000
      0.1057000000D+01  0.1000000000D+01
 D   1 1.00       0.000000000000
      0.2470000000D+00  0.1000000000D+01
 ****
     11 0
 S   7 1.00       0.000000000000
      0.8236000000D+04  0.5419783203D-03
      0.1235000000D+04  0.4192873817D-02
      0.2808000000D+03  0.2152216205D-01
      0.7927000000D+02  0.8353432195D-01
      0.2559000000D+02  0.2395828457D+00
      0.8997000000D+01  0.4428528419D+00
      0.3319000000D+01  0.3517995618D+00
 S   6 1.00       0.000000000000
      0.2808000000D+03 -0.5949224937D-04
      0.7927000000D+02 -0.1148158310D-02
      0.2559000000D+02 -0.1001913745D-01
      0.8997000000D+01 -0.6121949230D-01
      0.3319000000D+01 -0.1732698541D+00
      0.3643000000D+00  0.1072915192D+01
 S   1 1.00       0.000000000000
      0.9059000000D+00  0.1000000000D+01
 S   1 1.00       0.000000000000
      0.1285000000D+00  0.1000000000D+01
 S   1 1.00       0.000000000000
      0.4402000000D-01  0.1000000000D+01
 P   3 1.00       0.000000000000
      0.1871000000D+02  0.3942638716D-01
      0.4133000000D+01  0.2440889849D+00
      0.1200000000D+01  0.8154920089D+00
 P   1 1.00       0.000000000000
      0.3827000000D+00  0.1000000000D+01
 P   1 1.00       0.000000000000
      0.1209000000D+00  0.1000000000D+01
 P   1 1.00       0.000000000000
      0.3569000000D-01  0.1000000000D+01
 D   1 1.00       0.000000000000
      0.1097000000D+01  0.1000000000D+01
 D   1 1.00       0.000000000000
      0.3180000000D+00  0.1000000000D+01
 D   1 1.00       0.000000000000
      0.1000000000D+00  0.1000000000D+01
 F   1 1.00       0.000000000000
      0.7610000000D+00  0.1000000000D+01
 F   1 1.00       0.000000000000
      0.2680000000D+00  0.1000000000D+01
 ****
     12 0
 S   3 1.00       0.000000000000
      0.3387000000D+02  0.2549486323D-01
      0.5095000000D+01  0.1903627659D+00
      0.1159000000D+01  0.8521620222D+00
 S   1 1.00       0.000000000000
      0.3258000000D+00  0.1000000000D+01
 S   1 1.00       0.000000000000
      0.1027000000D+00  0.1000000000D+01
 S   1 1.00       0.000000000000
      0.2526000000D-01  0.1000000000D+01
 P   1 1.00       0.000000000000
      0.1407000000D+01  0.1000000000D+01
 P   1 1.00       0.000000000000
      0.3880000000D+00  0.1000000000D+01
 P   1 1.00       0.000000000000
      0.1020000000D+00  0.1000000000D+01
 D   1 1.00       0.000000000000
      0.1057000000D+01  0.1000000000D+01
 D   1 1.00       0.000000000000
      0.2470000000D+00  0.1000000000D+01
 ****
     13 0
 S   3 1.00       0.000000000000
      0.3387000000D+02  0.2549486323D-01
      0.5095000000D+01  0.1903627659D+00
      0.1159000000D+01  0.8521620222D+00
 S   1 1.00       0.000000000000
      0.3258000000D+00  0.1000000000D+01
 S   1 1.00       0.000000000000
      0.1027000000D+00  0.1000000000D+01
 S   1 1.00       0.000000000000
      0.2526000000D-01  0.1000000000D+01
 P   1 1.00       0.000000000000
      0.1407000000D+01  0.1000000000D+01
 P   1 1.00       0.000000000000
      0.3880000000D+00  0.1000000000D+01
 P   1 1.00       0.000000000000
      0.1020000000D+00  0.1000000000D+01
 D   1 1.00       0.000000000000
      0.1057000000D+01  0.1000000000D+01
 D   1 1.00       0.000000000000
      0.2470000000D+00  0.1000000000D+01
 ****
     14 0
 S   3 1.00       0.000000000000
      0.3387000000D+02  0.2549486323D-01
      0.5095000000D+01  0.1903627659D+00
      0.1159000000D+01  0.8521620222D+00
 S   1 1.00       0.000000000000
      0.3258000000D+00  0.1000000000D+01
 S   1 1.00       0.000000000000
      0.1027000000D+00  0.1000000000D+01
 S   1 1.00       0.000000000000
      0.2526000000D-01  0.1000000000D+01
 P   1 1.00       0.000000000000
      0.1407000000D+01  0.1000000000D+01
 P   1 1.00       0.000000000000
      0.3880000000D+00  0.1000000000D+01
 P   1 1.00       0.000000000000
      0.1020000000D+00  0.1000000000D+01
 D   1 1.00       0.000000000000
      0.1057000000D+01  0.1000000000D+01
 D   1 1.00       0.000000000000
      0.2470000000D+00  0.1000000000D+01
 ****
     15 0
 S   7 1.00       0.000000000000
      0.8236000000D+04  0.5419783203D-03
      0.1235000000D+04  0.4192873817D-02
      0.2808000000D+03  0.2152216205D-01
      0.7927000000D+02  0.8353432195D-01
      0.2559000000D+02  0.2395828457D+00
      0.8997000000D+01  0.4428528419D+00
      0.3319000000D+01  0.3517995618D+00
 S   6 1.00       0.000000000000
      0.2808000000D+03 -0.5949224937D-04
      0.7927000000D+02 -0.1148158310D-02
      0.2559000000D+02 -0.1001913745D-01
      0.8997000000D+01 -0.6121949230D-01
      0.3319000000D+01 -0.1732698541D+00
      0.3643000000D+00  0.1072915192D+01
 S   1 1.00       0.000000000000
      0.9059000000D+00  0.1000000000D+01
 S   1 1.00       0.000000000000
      0.1285000000D+00  0.1000000000D+01
 S   1 1.00       0.000000000000
      0.4402000000D-01  0.1000000000D+01
 P   3 1.00       0.000000000000
      0.1871000000D+02  0.3942638716D-01
      0.4133000000D+01  0.2440889849D+00
      0.1200000000D+01  0.8154920089D+00
 P   1 1.00       0.000000000000
      0.3827000000D+00  0.1000000000D+01
 P   1 1.00       0.000000000000
      0.1209000000D+00  0.1000000000D+01
 P   1 1.00       0.000000000000
      0.3569000000D-01  0.1000000000D+01
 D   1 1.00       0.000000000000
      0.1097000000D+01  0.1000000000D+01
 D   1 1.00       0.000000000000
      0.3180000000D+00  0.1000000000D+01
 D   1 1.00       0.000000000000
      0.1000000000D+00  0.1000000000D+01
 F   1 1.00       0.000000000000
      0.7610000000D+00  0.1000000000D+01
 F   1 1.00       0.000000000000
      0.2680000000D+00  0.1000000000D+01
 ****
     16 0
 S   3 1.00       0.000000000000
      0.3387000000D+02  0.2549486323D-01
      0.5095000000D+01  0.1903627659D+00
      0.1159000000D+01  0.8521620222D+00
 S   1 1.00       0.000000000000
      0.3258000000D+00  0.1000000000D+01
 S   1 1.00       0.000000000000
      0.1027000000D+00  0.1000000000D+01
 S   1 1.00       0.000000000000
      0.2526000000D-01  0.1000000000D+01
 P   1 1.00       0.000000000000
      0.1407000000D+01  0.1000000000D+01
 P   1 1.00       0.000000000000
      0.3880000000D+00  0.1000000000D+01
 P   1 1.00       0.000000000000
      0.1020000000D+00  0.1000000000D+01
 D   1 1.00       0.000000000000
      0.1057000000D+01  0.1000000000D+01
 D   1 1.00       0.000000000000
      0.2470000000D+00  0.1000000000D+01
 ****
     17 0
 S   3 1.00       0.000000000000
      0.3387000000D+02  0.2549486323D-01
      0.5095000000D+01  0.1903627659D+00
      0.1159000000D+01  0.8521620222D+00
 S   1 1.00       0.000000000000
      0.3258000000D+00  0.1000000000D+01
 S   1 1.00       0.000000000000
      0.1027000000D+00  0.1000000000D+01
 S   1 1.00       0.000000000000
      0.2526000000D-01  0.1000000000D+01
 P   1 1.00       0.000000000000
      0.1407000000D+01  0.1000000000D+01
 P   1 1.00       0.000000000000
      0.3880000000D+00  0.1000000000D+01
 P   1 1.00       0.000000000000
      0.1020000000D+00  0.1000000000D+01
 D   1 1.00       0.000000000000
      0.1057000000D+01  0.1000000000D+01
 D   1 1.00       0.000000000000
      0.2470000000D+00  0.1000000000D+01
 ****
     18 0
 S   3 1.00       0.000000000000
      0.3387000000D+02  0.2549486323D-01
      0.5095000000D+01  0.1903627659D+00
      0.1159000000D+01  0.8521620222D+00
 S   1 1.00       0.000000000000
      0.3258000000D+00  0.1000000000D+01
 S   1 1.00       0.000000000000
      0.1027000000D+00  0.1000000000D+01
 S   1 1.00       0.000000000000
      0.2526000000D-01  0.1000000000D+01
 P   1 1.00       0.000000000000
      0.1407000000D+01  0.1000000000D+01
 P   1 1.00       0.000000000000
      0.3880000000D+00  0.1000000000D+01
 P   1 1.00       0.000000000000
      0.1020000000D+00  0.1000000000D+01
 D   1 1.00       0.000000000000
      0.1057000000D+01  0.1000000000D+01
 D   1 1.00       0.000000000000
      0.2470000000D+00  0.1000000000D+01
 ****
     19 0
 S   6 1.00       0.000000000000
      0.6384714400D+04 -0.2030159990D-02
      0.9588865200D+03 -0.1549809992D-01
      0.2181901000D+03 -0.7577868962D-01
      0.6136473100D+02 -0.2502723487D+00
      0.1960289600D+02 -0.4801086476D+00
      0.6564883400D+01 -0.3271613784D+00
 S   2 1.00       0.000000000000
      0.1381069400D+02  0.1461855196D+00
      0.1229866500D+01 -0.1050340714D+01
 S   1 1.00       0.000000000000
      0.3584713200D+00  0.1000000000D+01
 P   4 1.00       0.000000000000
      0.4246991100D+02  0.2293373469D-01
      0.9713881100D+01  0.1407939302D+00
      0.2864038600D+01  0.4128952807D+00
      0.8746054400D+00  0.6009524210D+00
 P   1 1.00       0.000000000000
      0.2425070600D+00  0.1000000000D+01
 D   1 1.00       0.000000000000
      0.1000000000D+01  0.1000000000D+01
 ****

 There are   675 symmetry adapted cartesian basis functions of A   symmetry.
 There are   589 symmetry adapted basis functions of A   symmetry.
   589 basis functions,   831 primitive gaussians,   675 cartesian basis functions
    34 alpha electrons       34 beta electrons
       nuclear repulsion energy       452.3329082244 Hartrees.
 NAtoms=   19 NActive=   19 NUniq=   19 SFac= 1.00D+00 NAtFMM=   60 NAOKFM=F Big=F
 Integral buffers will be    131072 words long.
 Raffenetti 2 integral format.
 Two-electron integral symmetry is turned on.
 One-electron integrals computed using PRISM.
 PrsmSu:  requested number of processors reduced to:   3 ShMem   1 Linda.
   1 Symmetry operations used in ECPInt.
 ECPInt:  NShTT=   20706 NPrTT=   53303 LenC2=   20474 LenP2D=   44204.
 LDataN:  DoStor=T MaxTD1= 6 Len=  172
 Number of processors reduced to   7 by ecpmxn.
 NBasis=   589 RedAO= T EigKep=  8.40D-06  NBF=   589
 NBsUse=   589 1.00D-06 EigRej= -1.00D+00 NBFU=   589
 ExpMin= 2.53D-02 ExpMax= 1.53D+04 ExpMxC= 9.59D+02 IAcc=3 IRadAn=         5 AccDes= 0.00D+00
 Harris functional with IExCor=  402 and IRadAn=       5 diagonalized for initial guess.
 HarFok:  IExCor=  402 AccDes= 0.00D+00 IRadAn=         5 IDoV= 1 UseB2=F ITyADJ=14
 ICtDFT=  3500011 ScaDFX=  1.000000  1.000000  1.000000  1.000000
 FoFCou: FMM=F IPFlag=           0 FMFlag=      100000 FMFlg1=           0
         NFxFlg=           0 DoJE=T BraDBF=F KetDBF=T FulRan=T
         wScrn=  0.000000 ICntrl=     500 IOpCl=  0 I1Cent=   200000004 NGrid=           0
         NMat0=    1 NMatS0=      1 NMatT0=    0 NMatD0=    1 NMtDS0=    0 NMtDT0=    0
 Petite list used in FoFCou.
 Requested convergence on RMS density matrix=1.00D-08 within 128 cycles.
 Requested convergence on MAX density matrix=1.00D-06.
 Requested convergence on             energy=1.00D-06.
 No special actions if energy rises.
 SCF Done:  E(RB3LYP) =  -484.694650231     A.U. after   13 cycles
            NFock= 13  Conv=0.32D-08     -V/T= 2.0072
 DoSCS=F DFT=T ScalE2(SS,OS)=  1.000000  1.000000
 Range of M.O.s used for correlation:     1   589
 NBasis=   589 NAE=    34 NBE=    34 NFC=     0 NFV=     0
 NROrb=    589 NOA=    34 NOB=    34 NVA=   555 NVB=   555

 **** Warning!!: The largest alpha MO coefficient is  0.48105591D+02

 PrsmSu:  requested number of processors reduced to:   3 ShMem   1 Linda.
 PrsmSu:  requested number of processors reduced to:   1 ShMem   1 Linda.
   1 Symmetry operations used in ECPInt.
 ECPInt:  NShTT=   20706 NPrTT=   53303 LenC2=   20474 LenP2D=   44204.
 LDataN:  DoStor=T MaxTD1= 7 Len=  274
 Number of processors reduced to   1 by ecpmxn.
 Symmetrizing basis deriv contribution to polar:
 IMax=3 JMax=2 DiffMx= 0.00D+00
 G2DrvN: will do     1 centers at a time, making   20 passes.
 Estimated number of processors is:    6
 Calling FoFCou, ICntrl=  3107 FMM=F I1Cent=   0 AccDes= 0.00D+00.
 CoulSu:  requested number of processors reduced to:   6 ShMem   1 Linda.
 Calling FoFCou, ICntrl=  3107 FMM=F I1Cent=   0 AccDes= 0.00D+00.
 CoulSu:  requested number of processors reduced to:   6 ShMem   1 Linda.
 Calling FoFCou, ICntrl=  3107 FMM=F I1Cent=   0 AccDes= 0.00D+00.
 CoulSu:  requested number of processors reduced to:   6 ShMem   1 Linda.
 Calling FoFCou, ICntrl=  3107 FMM=F I1Cent=   0 AccDes= 0.00D+00.
 CoulSu:  requested number of processors reduced to:   6 ShMem   1 Linda.
 Calling FoFCou, ICntrl=  3107 FMM=F I1Cent=   0 AccDes= 0.00D+00.
 CoulSu:  requested number of processors reduced to:   6 ShMem   1 Linda.
 Calling FoFCou, ICntrl=  3107 FMM=F I1Cent=   0 AccDes= 0.00D+00.
 CoulSu:  requested number of processors reduced to:   6 ShMem   1 Linda.
 Calling FoFCou, ICntrl=  3107 FMM=F I1Cent=   0 AccDes= 0.00D+00.
 CoulSu:  requested number of processors reduced to:   6 ShMem   1 Linda.
 Calling FoFCou, ICntrl=  3107 FMM=F I1Cent=   0 AccDes= 0.00D+00.
 CoulSu:  requested number of processors reduced to:   6 ShMem   1 Linda.
 Calling FoFCou, ICntrl=  3107 FMM=F I1Cent=   0 AccDes= 0.00D+00.
 CoulSu:  requested number of processors reduced to:   6 ShMem   1 Linda.
 Calling FoFCou, ICntrl=  3107 FMM=F I1Cent=   0 AccDes= 0.00D+00.
 CoulSu:  requested number of processors reduced to:   6 ShMem   1 Linda.
 Calling FoFCou, ICntrl=  3107 FMM=F I1Cent=   0 AccDes= 0.00D+00.
 CoulSu:  requested number of processors reduced to:   6 ShMem   1 Linda.
 Calling FoFCou, ICntrl=  3107 FMM=F I1Cent=   0 AccDes= 0.00D+00.
 CoulSu:  requested number of processors reduced to:   6 ShMem   1 Linda.
 Calling FoFCou, ICntrl=  3107 FMM=F I1Cent=   0 AccDes= 0.00D+00.
 CoulSu:  requested number of processors reduced to:   6 ShMem   1 Linda.
 Calling FoFCou, ICntrl=  3107 FMM=F I1Cent=   0 AccDes= 0.00D+00.
 CoulSu:  requested number of processors reduced to:   6 ShMem   1 Linda.
 Calling FoFCou, ICntrl=  3107 FMM=F I1Cent=   0 AccDes= 0.00D+00.
 CoulSu:  requested number of processors reduced to:   6 ShMem   1 Linda.
 Calling FoFCou, ICntrl=  3107 FMM=F I1Cent=   0 AccDes= 0.00D+00.
 CoulSu:  requested number of processors reduced to:   6 ShMem   1 Linda.
 Calling FoFCou, ICntrl=  3107 FMM=F I1Cent=   0 AccDes= 0.00D+00.
 CoulSu:  requested number of processors reduced to:   6 ShMem   1 Linda.
 Calling FoFCou, ICntrl=  3107 FMM=F I1Cent=   0 AccDes= 0.00D+00.
 CoulSu:  requested number of processors reduced to:   6 ShMem   1 Linda.
 Calling FoFCou, ICntrl=  3107 FMM=F I1Cent=   0 AccDes= 0.00D+00.
 CoulSu:  requested number of processors reduced to:   6 ShMem   1 Linda.
 Calling FoFCou, ICntrl=  3107 FMM=F I1Cent=   0 AccDes= 0.00D+00.
 CoulSu:  requested number of processors reduced to:   6 ShMem   1 Linda.
 End of G2Drv F.D. properties file   721 does not exist.
 End of G2Drv F.D. properties file   722 does not exist.
 End of G2Drv F.D. properties file   788 does not exist.
          IDoAtm=1111111111111111111
          Differentiating once with respect to nuclear coordinates.
 CoulSu:  requested number of processors reduced to:   7 ShMem   1 Linda.
 PrRfSu:  requested number of processors reduced to:   4 ShMem   1 Linda.
 CoulSu:  requested number of processors reduced to:   7 ShMem   1 Linda.
 PrRfSu:  requested number of processors reduced to:   4 ShMem   1 Linda.
 CoulSu:  requested number of processors reduced to:   7 ShMem   1 Linda.
 PrRfSu:  requested number of processors reduced to:   4 ShMem   1 Linda.
 CoulSu:  requested number of processors reduced to:   7 ShMem   1 Linda.
 PrRfSu:  requested number of processors reduced to:   4 ShMem   1 Linda.
 CoulSu:  requested number of processors reduced to:   7 ShMem   1 Linda.
 PrRfSu:  requested number of processors reduced to:   4 ShMem   1 Linda.
 CoulSu:  requested number of processors reduced to:   7 ShMem   1 Linda.
 PrRfSu:  requested number of processors reduced to:   4 ShMem   1 Linda.
 CoulSu:  requested number of processors reduced to:   7 ShMem   1 Linda.
 PrRfSu:  requested number of processors reduced to:   4 ShMem   1 Linda.
 CoulSu:  requested number of processors reduced to:   7 ShMem   1 Linda.
 PrRfSu:  requested number of processors reduced to:   4 ShMem   1 Linda.
          There are    60 degrees of freedom in the 1st order CPHF.  IDoFFX=6 NUNeed=     0.
     57 vectors produced by pass  0 Test12= 3.15D-14 1.67D-09 XBig12= 1.99D-01 5.45D-02.
 AX will form     7 AO Fock derivatives at one time.
 CoulSu:  requested number of processors reduced to:   7 ShMem   1 Linda.
 PrRfSu:  requested number of processors reduced to:   4 ShMem   1 Linda.
 CoulSu:  requested number of processors reduced to:   7 ShMem   1 Linda.
 PrRfSu:  requested number of processors reduced to:   4 ShMem   1 Linda.
 CoulSu:  requested number of processors reduced to:   7 ShMem   1 Linda.
 PrRfSu:  requested number of processors reduced to:   4 ShMem   1 Linda.
 CoulSu:  requested number of processors reduced to:   7 ShMem   1 Linda.
 PrRfSu:  requested number of processors reduced to:   4 ShMem   1 Linda.
 CoulSu:  requested number of processors reduced to:   7 ShMem   1 Linda.
 PrRfSu:  requested number of processors reduced to:   4 ShMem   1 Linda.
 CoulSu:  requested number of processors reduced to:   7 ShMem   1 Linda.
 PrRfSu:  requested number of processors reduced to:   4 ShMem   1 Linda.
 CoulSu:  requested number of processors reduced to:   7 ShMem   1 Linda.
 PrRfSu:  requested number of processors reduced to:   4 ShMem   1 Linda.
 CoulSu:  requested number of processors reduced to:   7 ShMem   1 Linda.
 PrRfSu:  requested number of processors reduced to:   4 ShMem   1 Linda.
     54 vectors produced by pass  1 Test12= 3.15D-14 1.67D-09 XBig12= 4.96D-02 3.44D-02.
 CoulSu:  requested number of processors reduced to:   7 ShMem   1 Linda.
 PrRfSu:  requested number of processors reduced to:   4 ShMem   1 Linda.
 CoulSu:  requested number of processors reduced to:   7 ShMem   1 Linda.
 PrRfSu:  requested number of processors reduced to:   4 ShMem   1 Linda.
 CoulSu:  requested number of processors reduced to:   7 ShMem   1 Linda.
 PrRfSu:  requested number of processors reduced to:   4 ShMem   1 Linda.
 CoulSu:  requested number of processors reduced to:   7 ShMem   1 Linda.
 PrRfSu:  requested number of processors reduced to:   4 ShMem   1 Linda.
 CoulSu:  requested number of processors reduced to:   7 ShMem   1 Linda.
 PrRfSu:  requested number of processors reduced to:   4 ShMem   1 Linda.
 CoulSu:  requested number of processors reduced to:   7 ShMem   1 Linda.
 PrRfSu:  requested number of processors reduced to:   4 ShMem   1 Linda.
 CoulSu:  requested number of processors reduced to:   7 ShMem   1 Linda.
 PrRfSu:  requested number of processors reduced to:   4 ShMem   1 Linda.
     54 vectors produced by pass  2 Test12= 3.15D-14 1.67D-09 XBig12= 6.67D-04 1.93D-03.
 CoulSu:  requested number of processors reduced to:   7 ShMem   1 Linda.
 PrRfSu:  requested number of processors reduced to:   4 ShMem   1 Linda.
 CoulSu:  requested number of processors reduced to:   7 ShMem   1 Linda.
 PrRfSu:  requested number of processors reduced to:   4 ShMem   1 Linda.
 CoulSu:  requested number of processors reduced to:   7 ShMem   1 Linda.
 PrRfSu:  requested number of processors reduced to:   4 ShMem   1 Linda.
 CoulSu:  requested number of processors reduced to:   7 ShMem   1 Linda.
 PrRfSu:  requested number of processors reduced to:   4 ShMem   1 Linda.
 CoulSu:  requested number of processors reduced to:   7 ShMem   1 Linda.
 PrRfSu:  requested number of processors reduced to:   4 ShMem   1 Linda.
 CoulSu:  requested number of processors reduced to:   7 ShMem   1 Linda.
 PrRfSu:  requested number of processors reduced to:   4 ShMem   1 Linda.
 CoulSu:  requested number of processors reduced to:   7 ShMem   1 Linda.
 PrRfSu:  requested number of processors reduced to:   4 ShMem   1 Linda.
     54 vectors produced by pass  3 Test12= 3.15D-14 1.67D-09 XBig12= 3.04D-06 1.84D-04.
 CoulSu:  requested number of processors reduced to:   7 ShMem   1 Linda.
 PrRfSu:  requested number of processors reduced to:   4 ShMem   1 Linda.
 CoulSu:  requested number of processors reduced to:   7 ShMem   1 Linda.
 PrRfSu:  requested number of processors reduced to:   4 ShMem   1 Linda.
 CoulSu:  requested number of processors reduced to:   7 ShMem   1 Linda.
 PrRfSu:  requested number of processors reduced to:   4 ShMem   1 Linda.
 CoulSu:  requested number of processors reduced to:   7 ShMem   1 Linda.
 PrRfSu:  requested number of processors reduced to:   4 ShMem   1 Linda.
 CoulSu:  requested number of processors reduced to:   7 ShMem   1 Linda.
 PrRfSu:  requested number of processors reduced to:   4 ShMem   1 Linda.
 CoulSu:  requested number of processors reduced to:   7 ShMem   1 Linda.
 PrRfSu:  requested number of processors reduced to:   4 ShMem   1 Linda.
 CoulSu:  requested number of processors reduced to:   7 ShMem   1 Linda.
 PrRfSu:  requested number of processors reduced to:   4 ShMem   1 Linda.
     54 vectors produced by pass  4 Test12= 3.15D-14 1.67D-09 XBig12= 7.66D-09 7.92D-06.
 CoulSu:  requested number of processors reduced to:   7 ShMem   1 Linda.
 PrRfSu:  requested number of processors reduced to:   4 ShMem   1 Linda.
 CoulSu:  requested number of processors reduced to:   7 ShMem   1 Linda.
 PrRfSu:  requested number of processors reduced to:   4 ShMem   1 Linda.
 CoulSu:  requested number of processors reduced to:   7 ShMem   1 Linda.
 PrRfSu:  requested number of processors reduced to:   4 ShMem   1 Linda.
 CoulSu:  requested number of processors reduced to:   7 ShMem   1 Linda.
 PrRfSu:  requested number of processors reduced to:   4 ShMem   1 Linda.
 CoulSu:  requested number of processors reduced to:   7 ShMem   1 Linda.
 PrRfSu:  requested number of processors reduced to:   4 ShMem   1 Linda.
 CoulSu:  requested number of processors reduced to:   7 ShMem   1 Linda.
 PrRfSu:  requested number of processors reduced to:   4 ShMem   1 Linda.
 CoulSu:  requested number of processors reduced to:   7 ShMem   1 Linda.
 PrRfSu:  requested number of processors reduced to:   4 ShMem   1 Linda.
     54 vectors produced by pass  5 Test12= 3.15D-14 1.67D-09 XBig12= 1.68D-11 2.71D-07.
 CoulSu:  requested number of processors reduced to:   7 ShMem   1 Linda.
 PrRfSu:  requested number of processors reduced to:   4 ShMem   1 Linda.
 CoulSu:  requested number of processors reduced to:   7 ShMem   1 Linda.
 PrRfSu:  requested number of processors reduced to:   4 ShMem   1 Linda.
 CoulSu:  requested number of processors reduced to:   7 ShMem   1 Linda.
 PrRfSu:  requested number of processors reduced to:   4 ShMem   1 Linda.
 CoulSu:  requested number of processors reduced to:   7 ShMem   1 Linda.
 PrRfSu:  requested number of processors reduced to:   4 ShMem   1 Linda.
 CoulSu:  requested number of processors reduced to:   7 ShMem   1 Linda.
 PrRfSu:  requested number of processors reduced to:   4 ShMem   1 Linda.
 CoulSu:  requested number of processors reduced to:   7 ShMem   1 Linda.
 PrRfSu:  requested number of processors reduced to:   4 ShMem   1 Linda.
 CoulSu:  requested number of processors reduced to:   7 ShMem   1 Linda.
 PrRfSu:  requested number of processors reduced to:   4 ShMem   1 Linda.
     35 vectors produced by pass  6 Test12= 3.15D-14 1.67D-09 XBig12= 1.20D-13 2.63D-08.
 CoulSu:  requested number of processors reduced to:   7 ShMem   1 Linda.
 PrRfSu:  requested number of processors reduced to:   4 ShMem   1 Linda.
 CoulSu:  requested number of processors reduced to:   7 ShMem   1 Linda.
 PrRfSu:  requested number of processors reduced to:   4 ShMem   1 Linda.
 CoulSu:  requested number of processors reduced to:   7 ShMem   1 Linda.
 PrRfSu:  requested number of processors reduced to:   4 ShMem   1 Linda.
 CoulSu:  requested number of processors reduced to:   7 ShMem   1 Linda.
 PrRfSu:  requested number of processors reduced to:   4 ShMem   1 Linda.
 CoulSu:  requested number of processors reduced to:   7 ShMem   1 Linda.
 PrRfSu:  requested number of processors reduced to:   4 ShMem   1 Linda.
      2 vectors produced by pass  7 Test12= 3.15D-14 1.67D-09 XBig12= 1.86D-15 3.67D-09.
 InvSVY:  IOpt=1 It=  1 EMax= 7.22D-16
 Solved reduced A of dimension   364 with    60 vectors.
 End of Minotr F.D. properties file   721 does not exist.
 End of Minotr F.D. properties file   722 does not exist.
 End of Minotr F.D. properties file   788 does not exist.

 **********************************************************************

            Population analysis using the SCF density.

 **********************************************************************

 Orbital symmetries:
       Occupied  (A) (A) (A) (A) (A) (A) (A) (A) (A) (A) (A) (A)
                 (A) (A) (A) (A) (A) (A) (A) (A) (A) (A) (A) (A)
                 (A) (A) (A) (A) (A) (A) (A) (A) (A) (A)
       Virtual   (A) (A) (A) (A) (A) (A) (A) (A) (A) (A) (A) (A)
                 (A) (A) (A) (A) (A) (A) (A) (A) (A) (A) (A) (A)
                 (A) (A) (A) (A) (A) (A) (A) (A) (A) (A) (A) (A)
                 (A) (A) (A) (A) (A) (A) (A) (A) (A) (A) (A) (A)
                 (A) (A) (A) (A) (A) (A) (A) (A) (A) (A) (A) (A)
                 (A) (A) (A) (A) (A) (A) (A) (A) (A) (A) (A) (A)
                 (A) (A) (A) (A) (A) (A) (A) (A) (A) (A) (A) (A)
                 (A) (A) (A) (A) (A) (A) (A) (A) (A) (A) (A) (A)
                 (A) (A) (A) (A) (A) (A) (A) (A) (A) (A) (A) (A)
                 (A) (A) (A) (A) (A) (A) (A) (A) (A) (A) (A) (A)
                 (A) (A) (A) (A) (A) (A) (A) (A) (A) (A) (A) (A)
                 (A) (A) (A) (A) (A) (A) (A) (A) (A) (A) (A) (A)
                 (A) (A) (A) (A) (A) (A) (A) (A) (A) (A) (A) (A)
                 (A) (A) (A) (A) (A) (A) (A) (A) (A) (A) (A) (A)
                 (A) (A) (A) (A) (A) (A) (A) (A) (A) (A) (A) (A)
                 (A) (A) (A) (A) (A) (A) (A) (A) (A) (A) (A) (A)
                 (A) (A) (A) (A) (A) (A) (A) (A) (A) (A) (A) (A)
                 (A) (A) (A) (A) (A) (A) (A) (A) (A) (A) (A) (A)
                 (A) (A) (A) (A) (A) (A) (A) (A) (A) (A) (A) (A)
                 (A) (A) (A) (A) (A) (A) (A) (A) (A) (A) (A) (A)
                 (A) (A) (A) (A) (A) (A) (A) (A) (A) (A) (A) (A)
                 (A) (A) (A) (A) (A) (A) (A) (A) (A) (A) (A) (A)
                 (A) (A) (A) (A) (A) (A) (A) (A) (A) (A) (A) (A)
                 (A) (A) (A) (A) (A) (A) (A) (A) (A) (A) (A) (A)
                 (A) (A) (A) (A) (A) (A) (A) (A) (A) (A) (A) (A)
                 (A) (A) (A) (A) (A) (A) (A) (A) (A) (A) (A) (A)
                 (A) (A) (A) (A) (A) (A) (A) (A) (A) (A) (A) (A)
                 (A) (A) (A) (A) (A) (A) (A) (A) (A) (A) (A) (A)
                 (A) (A) (A) (A) (A) (A) (A) (A) (A) (A) (A) (A)
                 (A) (A) (A) (A) (A) (A) (A) (A) (A) (A) (A) (A)
                 (A) (A) (A) (A) (A) (A) (A) (A) (A) (A) (A) (A)
                 (A) (A) (A) (A) (A) (A) (A) (A) (A) (A) (A) (A)
                 (A) (A) (A) (A) (A) (A) (A) (A) (A) (A) (A) (A)
                 (A) (A) (A) (A) (A) (A) (A) (A) (A) (A) (A) (A)
                 (A) (A) (A) (A) (A) (A) (A) (A) (A) (A) (A) (A)
                 (A) (A) (A) (A) (A) (A) (A) (A) (A) (A) (A) (A)
                 (A) (A) (A) (A) (A) (A) (A) (A) (A) (A) (A) (A)
                 (A) (A) (A) (A) (A) (A) (A) (A) (A) (A) (A) (A)
                 (A) (A) (A) (A) (A) (A) (A) (A) (A) (A) (A) (A)
                 (A) (A) (A) (A) (A) (A) (A) (A) (A) (A) (A) (A)
                 (A) (A) (A) (A) (A) (A) (A) (A) (A) (A) (A) (A)
                 (A) (A) (A) (A) (A) (A) (A) (A) (A) (A) (A) (A)
                 (A) (A) (A) (A) (A) (A) (A) (A) (A) (A) (A) (A)
                 (A) (A) (A) (A) (A) (A) (A) (A) (A) (A) (A) (A)
                 (A) (A) (A) (A) (A) (A) (A) (A) (A) (A) (A) (A)
                 (A) (A) (A) (A) (A) (A) (A) (A) (A) (A) (A) (A)
                 (A) (A) (A)
 The electronic state is 1-A.
 Alpha  occ. eigenvalues --  -24.66903 -19.16604 -19.16315 -19.07822 -10.33870
 Alpha  occ. eigenvalues --  -10.23760 -10.23715 -10.18459  -1.21373  -1.05848
 Alpha  occ. eigenvalues --   -1.02492  -0.98815  -0.75516  -0.71111  -0.69730
 Alpha  occ. eigenvalues --   -0.59553  -0.54400  -0.53590  -0.52228  -0.49240
 Alpha  occ. eigenvalues --   -0.47249  -0.46077  -0.45444  -0.45151  -0.41625
 Alpha  occ. eigenvalues --   -0.41099  -0.40338  -0.38476  -0.37101  -0.36167
 Alpha  occ. eigenvalues --   -0.34796  -0.30217  -0.27441  -0.26078
 Alpha virt. eigenvalues --   -0.01960  -0.00385   0.00406   0.00609   0.01969
 Alpha virt. eigenvalues --    0.02076   0.02891   0.03341   0.04109   0.04951
 Alpha virt. eigenvalues --    0.05188   0.05384   0.06187   0.06486   0.06740
 Alpha virt. eigenvalues --    0.07851   0.08239   0.08482   0.08585   0.09399
 Alpha virt. eigenvalues --    0.09487   0.09863   0.10155   0.10459   0.10749
 Alpha virt. eigenvalues --    0.10907   0.11665   0.11794   0.12685   0.13717
 Alpha virt. eigenvalues --    0.14202   0.14822   0.15260   0.15739   0.15892
 Alpha virt. eigenvalues --    0.16566   0.17540   0.18195   0.18637   0.18872
 Alpha virt. eigenvalues --    0.20065   0.20737   0.21221   0.21835   0.21985
 Alpha virt. eigenvalues --    0.22571   0.23832   0.24173   0.24424   0.25105
 Alpha virt. eigenvalues --    0.25823   0.25832   0.25995   0.26555   0.27216
 Alpha virt. eigenvalues --    0.27270   0.28342   0.28471   0.29196   0.29390
 Alpha virt. eigenvalues --    0.30183   0.30430   0.30892   0.31011   0.32023
 Alpha virt. eigenvalues --    0.32553   0.32860   0.33358   0.33824   0.34045
 Alpha virt. eigenvalues --    0.35020   0.35248   0.35780   0.36345   0.36529
 Alpha virt. eigenvalues --    0.37010   0.37368   0.37908   0.38454   0.39385
 Alpha virt. eigenvalues --    0.39609   0.40121   0.40254   0.41125   0.41356
 Alpha virt. eigenvalues --    0.42099   0.42407   0.43213   0.43666   0.44359
 Alpha virt. eigenvalues --    0.45007   0.45723   0.45928   0.46713   0.47317
 Alpha virt. eigenvalues --    0.48182   0.49580   0.49832   0.50236   0.50907
 Alpha virt. eigenvalues --    0.51472   0.52531   0.53160   0.53524   0.54824
 Alpha virt. eigenvalues --    0.55304   0.56121   0.57129   0.57192   0.58644
 Alpha virt. eigenvalues --    0.59216   0.60556   0.61431   0.61868   0.62619
 Alpha virt. eigenvalues --    0.64433   0.65564   0.65651   0.67300   0.67455
 Alpha virt. eigenvalues --    0.67642   0.68843   0.69423   0.70059   0.70388
 Alpha virt. eigenvalues --    0.71058   0.71756   0.72731   0.73575   0.74152
 Alpha virt. eigenvalues --    0.74701   0.75434   0.75764   0.77364   0.78129
 Alpha virt. eigenvalues --    0.78754   0.79271   0.79549   0.79939   0.80718
 Alpha virt. eigenvalues --    0.81668   0.82022   0.82378   0.83158   0.84063
 Alpha virt. eigenvalues --    0.85292   0.85482   0.86220   0.86828   0.87673
 Alpha virt. eigenvalues --    0.88534   0.89092   0.90026   0.90186   0.91255
 Alpha virt. eigenvalues --    0.92038   0.92498   0.92875   0.93355   0.94058
 Alpha virt. eigenvalues --    0.94703   0.95208   0.96632   0.97405   0.98342
 Alpha virt. eigenvalues --    0.98910   0.99492   0.99886   1.00675   1.01365
 Alpha virt. eigenvalues --    1.01896   1.01991   1.03490   1.03708   1.04300
 Alpha virt. eigenvalues --    1.04906   1.06286   1.06578   1.07411   1.08190
 Alpha virt. eigenvalues --    1.09687   1.10310   1.10954   1.12017   1.12205
 Alpha virt. eigenvalues --    1.13566   1.14616   1.15004   1.15525   1.17253
 Alpha virt. eigenvalues --    1.17561   1.18291   1.19506   1.20893   1.21543
 Alpha virt. eigenvalues --    1.21856   1.23105   1.23433   1.24658   1.25315
 Alpha virt. eigenvalues --    1.26293   1.26688   1.27427   1.28919   1.29765
 Alpha virt. eigenvalues --    1.30102   1.30808   1.31695   1.33010   1.33829
 Alpha virt. eigenvalues --    1.34448   1.35211   1.36010   1.37272   1.37587
 Alpha virt. eigenvalues --    1.38441   1.39979   1.40505   1.41414   1.42441
 Alpha virt. eigenvalues --    1.43198   1.43796   1.44351   1.45016   1.45647
 Alpha virt. eigenvalues --    1.47073   1.48929   1.49088   1.50392   1.51271
 Alpha virt. eigenvalues --    1.51470   1.52463   1.53179   1.53957   1.54400
 Alpha virt. eigenvalues --    1.55872   1.56290   1.56788   1.57608   1.57867
 Alpha virt. eigenvalues --    1.58564   1.59958   1.60401   1.61037   1.63759
 Alpha virt. eigenvalues --    1.64179   1.65175   1.65457   1.65930   1.67616
 Alpha virt. eigenvalues --    1.68164   1.68598   1.70151   1.70818   1.71841
 Alpha virt. eigenvalues --    1.72986   1.73414   1.74128   1.75062   1.76983
 Alpha virt. eigenvalues --    1.78912   1.79323   1.80933   1.81504   1.84360
 Alpha virt. eigenvalues --    1.84927   1.86662   1.86986   1.87830   1.89422
 Alpha virt. eigenvalues --    1.91170   1.91719   1.92171   1.93610   1.93906
 Alpha virt. eigenvalues --    1.95467   1.96998   1.99291   1.99417   2.00526
 Alpha virt. eigenvalues --    2.01689   2.02587   2.03136   2.03579   2.04950
 Alpha virt. eigenvalues --    2.05191   2.05903   2.08923   2.09673   2.10498
 Alpha virt. eigenvalues --    2.12338   2.14076   2.16292   2.17967   2.22089
 Alpha virt. eigenvalues --    2.23886   2.24401   2.25999   2.30713   2.33654
 Alpha virt. eigenvalues --    2.35041   2.36102   2.38852   2.39682   2.40538
 Alpha virt. eigenvalues --    2.43449   2.44743   2.46463   2.50251   2.51537
 Alpha virt. eigenvalues --    2.52050   2.52803   2.55622   2.57764   2.59475
 Alpha virt. eigenvalues --    2.62739   2.64075   2.64859   2.66116   2.69768
 Alpha virt. eigenvalues --    2.71419   2.73446   2.74531   2.76614   2.78082
 Alpha virt. eigenvalues --    2.78706   2.79735   2.82249   2.83229   2.86602
 Alpha virt. eigenvalues --    2.88421   2.90110   2.91237   2.92387   2.94935
 Alpha virt. eigenvalues --    2.98716   3.00026   3.00758   3.04086   3.04597
 Alpha virt. eigenvalues --    3.06337   3.07982   3.09242   3.13244   3.14655
 Alpha virt. eigenvalues --    3.17688   3.20034   3.21252   3.23332   3.24075
 Alpha virt. eigenvalues --    3.26191   3.28632   3.29327   3.31030   3.31857
 Alpha virt. eigenvalues --    3.33305   3.33741   3.35410   3.36993   3.38093
 Alpha virt. eigenvalues --    3.39328   3.39911   3.41415   3.42220   3.42875
 Alpha virt. eigenvalues --    3.44326   3.45033   3.46560   3.49015   3.50562
 Alpha virt. eigenvalues --    3.51660   3.53460   3.53793   3.55074   3.56224
 Alpha virt. eigenvalues --    3.57319   3.57733   3.59629   3.60832   3.62711
 Alpha virt. eigenvalues --    3.63703   3.64676   3.65124   3.69132   3.70021
 Alpha virt. eigenvalues --    3.70982   3.73200   3.73856   3.74480   3.75456
 Alpha virt. eigenvalues --    3.79381   3.79943   3.80934   3.84407   3.85664
 Alpha virt. eigenvalues --    3.86286   3.87069   3.88621   3.90347   3.91160
 Alpha virt. eigenvalues --    3.92285   3.93459   3.95560   3.96246   3.98822
 Alpha virt. eigenvalues --    3.99538   4.00325   4.01650   4.03415   4.04243
 Alpha virt. eigenvalues --    4.07538   4.08276   4.09580   4.12036   4.12812
 Alpha virt. eigenvalues --    4.13817   4.15138   4.16805   4.17828   4.20736
 Alpha virt. eigenvalues --    4.22290   4.23517   4.25329   4.27294   4.27956
 Alpha virt. eigenvalues --    4.28810   4.31220   4.32562   4.34882   4.38368
 Alpha virt. eigenvalues --    4.40378   4.41950   4.43007   4.44397   4.46048
 Alpha virt. eigenvalues --    4.46527   4.47103   4.48719   4.50256   4.51251
 Alpha virt. eigenvalues --    4.51784   4.54354   4.55576   4.56500   4.57729
 Alpha virt. eigenvalues --    4.59834   4.62740   4.63197   4.66697   4.69170
 Alpha virt. eigenvalues --    4.71568   4.73119   4.73771   4.75869   4.76846
 Alpha virt. eigenvalues --    4.77828   4.79628   4.82366   4.83405   4.84588
 Alpha virt. eigenvalues --    4.85355   4.88593   4.90020   4.92074   4.94354
 Alpha virt. eigenvalues --    4.97183   4.97883   5.00133   5.01304   5.05511
 Alpha virt. eigenvalues --    5.06553   5.08379   5.10232   5.12553   5.14525
 Alpha virt. eigenvalues --    5.19152   5.19909   5.21694   5.24272   5.24913
 Alpha virt. eigenvalues --    5.27454   5.29160   5.32246   5.34187   5.37681
 Alpha virt. eigenvalues --    5.40118   5.42005   5.43996   5.50084   5.53252
 Alpha virt. eigenvalues --    5.57836   5.63610   5.65702   5.67538   5.69396
 Alpha virt. eigenvalues --    5.71100   5.73140   5.74666   5.77413   5.79829
 Alpha virt. eigenvalues --    5.82633   5.87946   5.96964   6.04182   6.16015
 Alpha virt. eigenvalues --    6.23815   6.31331   6.34889   6.36634   6.38354
 Alpha virt. eigenvalues --    6.40054   6.49317   6.55542   6.58603   6.61956
 Alpha virt. eigenvalues --    6.64930   6.67204   6.68730   6.71920   6.74044
 Alpha virt. eigenvalues --    6.76262   6.80314   6.81537   6.85647   6.86703
 Alpha virt. eigenvalues --    6.90618   6.93460   7.00362   7.01084   7.04662
 Alpha virt. eigenvalues --    7.09093   7.15654   7.16855   7.21704   7.23576
 Alpha virt. eigenvalues --    7.27295   7.30279   7.43146   7.44714   7.50916
 Alpha virt. eigenvalues --    7.57366   7.61345   7.74390   7.79037   7.84855
 Alpha virt. eigenvalues --    7.96751   8.13328   8.36620  14.94016  15.21097
 Alpha virt. eigenvalues --   15.39802  16.47808  17.13329  17.65482  18.04751
          Condensed to atoms (all electrons):
               1          2          3          4          5          6
     1  C    5.343492   0.087294   0.145353  -0.021009  -0.009392  -0.003624
     2  O    0.087294   8.851275  -0.140685  -0.048779   0.021430  -0.004756
     3  O    0.145353  -0.140685   8.504751  -0.250847   0.007493  -0.006785
     4  O   -0.021009  -0.048779  -0.250847   8.574194   0.016069   0.003926
     5  C   -0.009392   0.021430   0.007493   0.016069   5.322334   0.351472
     6  H   -0.003624  -0.004756  -0.006785   0.003926   0.351472   0.337201
     7  H    0.000296  -0.000734  -0.004380   0.001538   0.387837   0.005534
     8  H   -0.002799   0.004855   0.005173  -0.038596   0.424187  -0.005434
     9  H   -0.081456   0.026610   0.057793   0.084057   0.013774  -0.003119
    10  H   -0.017112   0.053867   0.042876   0.066981   0.009693   0.005869
    11  C   -0.407281   0.045954  -0.015627  -0.014107   0.002575  -0.000248
    12  H   -0.088288  -0.031650   0.001325   0.000347  -0.000509  -0.000226
    13  H   -0.049101   0.014969  -0.023803  -0.000703   0.000082   0.000302
    14  H    0.024322   0.019274  -0.000104  -0.001523  -0.000238   0.000558
    15  C   -0.060226   0.010119   0.013785   0.018591  -0.001591   0.003974
    16  H    0.042904   0.000941  -0.033557   0.009224  -0.000224   0.000582
    17  H   -0.042505   0.001916  -0.010168  -0.010867   0.001714   0.000878
    18  H   -0.014334   0.013502   0.005321  -0.006920   0.007113  -0.003009
    19  F   -0.001050  -0.032261  -0.024675   0.002769   0.002840  -0.000665
               7          8          9         10         11         12
     1  C    0.000296  -0.002799  -0.081456  -0.017112  -0.407281  -0.088288
     2  O   -0.000734   0.004855   0.026610   0.053867   0.045954  -0.031650
     3  O   -0.004380   0.005173   0.057793   0.042876  -0.015627   0.001325
     4  O    0.001538  -0.038596   0.084057   0.066981  -0.014107   0.000347
     5  C    0.387837   0.424187   0.013774   0.009693   0.002575  -0.000509
     6  H    0.005534  -0.005434  -0.003119   0.005869  -0.000248  -0.000226
     7  H    0.350339  -0.004226  -0.003068  -0.000598   0.000103  -0.000030
     8  H   -0.004226   0.376748   0.003116   0.012416   0.000929  -0.000084
     9  H   -0.003068   0.003116   0.618269   0.026901   0.008591   0.002940
    10  H   -0.000598   0.012416   0.026901   0.583538  -0.000191   0.000250
    11  C    0.000103   0.000929   0.008591  -0.000191   5.852205   0.438614
    12  H   -0.000030  -0.000084   0.002940   0.000250   0.438614   0.558149
    13  H   -0.000067   0.000033  -0.003497  -0.001762   0.375005  -0.037137
    14  H   -0.000070   0.000112  -0.008218  -0.003980   0.344288  -0.073992
    15  C    0.001171   0.000140   0.001999   0.001541   0.004195  -0.009214
    16  H    0.000296  -0.000374   0.016885   0.001484  -0.014717   0.003951
    17  H   -0.001428   0.001239  -0.010965  -0.001069   0.016412  -0.001689
    18  H    0.001013   0.000232   0.010605  -0.004333   0.019632   0.001919
    19  F    0.000303   0.000561   0.036592   0.033891   0.142223   0.039099
              13         14         15         16         17         18
     1  C   -0.049101   0.024322  -0.060226   0.042904  -0.042505  -0.014334
     2  O    0.014969   0.019274   0.010119   0.000941   0.001916   0.013502
     3  O   -0.023803  -0.000104   0.013785  -0.033557  -0.010168   0.005321
     4  O   -0.000703  -0.001523   0.018591   0.009224  -0.010867  -0.006920
     5  C    0.000082  -0.000238  -0.001591  -0.000224   0.001714   0.007113
     6  H    0.000302   0.000558   0.003974   0.000582   0.000878  -0.003009
     7  H   -0.000067  -0.000070   0.001171   0.000296  -0.001428   0.001013
     8  H    0.000033   0.000112   0.000140  -0.000374   0.001239   0.000232
     9  H   -0.003497  -0.008218   0.001999   0.016885  -0.010965   0.010605
    10  H   -0.001762  -0.003980   0.001541   0.001484  -0.001069  -0.004333
    11  C    0.375005   0.344288   0.004195  -0.014717   0.016412   0.019632
    12  H   -0.037137  -0.073992  -0.009214   0.003951  -0.001689   0.001919
    13  H    0.487159   0.019898   0.015476  -0.015760   0.004740   0.000999
    14  H    0.019898   0.472029   0.018672  -0.013202   0.008287  -0.003984
    15  C    0.015476   0.018672   5.410525   0.399548   0.416220   0.317880
    16  H   -0.015760  -0.013202   0.399548   0.419330  -0.039874  -0.001984
    17  H    0.004740   0.008287   0.416220  -0.039874   0.468704  -0.020425
    18  H    0.000999  -0.003984   0.317880  -0.001984  -0.020425   0.383468
    19  F   -0.004718  -0.008032   0.003446  -0.002311   0.001432   0.002509
              19
     1  C   -0.001050
     2  O   -0.032261
     3  O   -0.024675
     4  O    0.002769
     5  C    0.002840
     6  H   -0.000665
     7  H    0.000303
     8  H    0.000561
     9  H    0.036592
    10  H    0.033891
    11  C    0.142223
    12  H    0.039099
    13  H   -0.004718
    14  H   -0.008032
    15  C    0.003446
    16  H   -0.002311
    17  H    0.001432
    18  H    0.002509
    19  F    9.042921
 Mulliken charges:
               1
     1  C    1.154515
     2  O   -0.893140
     3  O   -0.273240
     4  O   -0.384348
     5  C   -0.556660
     6  H    0.317569
     7  H    0.266171
     8  H    0.221771
     9  H    0.202192
    10  H    0.189737
    11  C   -0.798557
    12  H    0.196227
    13  H    0.217884
    14  H    0.205904
    15  C   -0.566252
    16  H    0.226859
    17  H    0.217447
    18  H    0.290796
    19  F   -0.234874
 Sum of Mulliken charges =   0.00000
 Mulliken charges with hydrogens summed into heavy atoms:
               1
     1  C    1.154515
     2  O   -0.893140
     3  O   -0.071049
     4  O   -0.194611
     5  C    0.248851
    11  C   -0.178542
    15  C    0.168851
    19  F   -0.234874
 APT charges:
               1
     1  C    1.070838
     2  O   -0.877644
     3  O   -0.323478
     4  O   -0.394393
     5  C   -1.533156
     6  H    0.222537
     7  H    0.641417
     8  H    0.845170
     9  H    0.317330
    10  H    0.340230
    11  C   -1.993837
    12  H    0.594785
    13  H    0.562106
    14  H    0.585926
    15  C   -1.493067
    16  H    0.604093
    17  H    0.625137
    18  H    0.379930
    19  F   -0.173923
 Sum of APT charges =   0.00000
 APT charges with hydrogens summed into heavy atoms:
               1
     1  C    1.070838
     2  O   -0.877644
     3  O   -0.006148
     4  O   -0.054163
     5  C    0.175968
    11  C   -0.251021
    15  C    0.116093
    19  F   -0.173923
 Electronic spatial extent (au):  <R**2>=           1147.0139
 Charge=              0.0000 electrons
 Dipole moment (field-independent basis, Debye):
    X=             -1.2009    Y=              3.6703    Z=              1.0874  Tot=              4.0119
 Quadrupole moment (field-independent basis, Debye-Ang):
   XX=            -40.7915   YY=            -49.0373   ZZ=            -54.1695
   XY=              0.9406   XZ=              0.3712   YZ=             -0.4533
 Traceless Quadrupole moment (field-independent basis, Debye-Ang):
   XX=              7.2079   YY=             -1.0379   ZZ=             -6.1700
   XY=              0.9406   XZ=              0.3712   YZ=             -0.4533
 Octapole moment (field-independent basis, Debye-Ang**2):
  XXX=             -5.8387  YYY=             -1.4243  ZZZ=             -8.0812  XYY=             -2.2416
  XXY=             -0.8902  XXZ=              7.1249  XZZ=             -1.0707  YZZ=              1.7143
  YYZ=             -3.1606  XYZ=              1.7674
 Hexadecapole moment (field-independent basis, Debye-Ang**3):
 XXXX=           -831.2006 YYYY=           -366.6548 ZZZZ=           -189.9152 XXXY=             -6.6596
 XXXZ=            -10.4862 YYYX=              1.1555 YYYZ=             -0.4640 ZZZX=             -3.9443
 ZZZY=             10.0157 XXYY=           -206.6806 XXZZ=           -180.9763 YYZZ=            -95.6806
[...]
 0698,0.00819006,0.43283065,-0.00258652,-0.02358546,0.02464833,0.036770
 60,0.01684941,0.00215573,-0.06407927,-0.01169969,0.00065073,-0.0582784
 7,0.20955200,0.00352023,0.02160417,-0.03421740,-0.06465873,-0.00292508
 ,0.00166394,0.03370668,0.00888104,0.01633209,-0.03154896,-0.01556319,0
 .24087985,-0.00365949,-0.00048341,0.00229432,0.00885529,0.00005208,0.0
 0012538,0.00838172,0.00362340,-0.00031205,-0.16069834,0.04193957,0.042
 74494,0.49124944,0.00153697,-0.00191151,0.00121405,-0.00171573,0.00124
 109,-0.00047678,-0.01129175,-0.00901490,-0.00094113,0.04817275,-0.1014
 4479,-0.01031701,0.04396064,0.56632356,0.00246029,0.00212509,-0.004621
 32,-0.01251970,-0.00124361,-0.00509514,-0.00285528,-0.00235072,0.00132
 003,0.05547594,-0.01484942,-0.10805610,0.05157679,-0.03448426,0.561439
 58,-0.00006853,0.00006001,0.00067306,0.00007426,-0.00041636,-0.0004668
 4,-0.00073225,-0.00040786,-0.00035775,-0.00369420,0.02500104,0.0306066
 0,-0.07005238,-0.04447788,-0.05627965,0.07499839,-0.00018111,0.0003689
 6,-0.00069001,0.00054661,-0.00010487,0.00103012,0.00146276,0.00059434,
 0.00002049,0.00874319,-0.00682940,-0.01188851,-0.04064480,-0.14201680,
 -0.11167005,0.03844781,0.15071797,-0.00031292,-0.00092288,0.00070023,0
 .00192063,0.00025990,0.00030661,0.00103967,0.00143551,-0.00014927,0.01
 008010,-0.01056522,-0.00979553,-0.05120699,-0.11231153,-0.19614094,0.0
 4857632,0.13072196,0.21230761,0.00094621,0.00123989,-0.00206955,-0.004
 03355,-0.00070738,-0.00116355,-0.00035337,-0.00106147,0.00055649,-0.02
 899220,0.02166719,-0.01693293,-0.10665007,0.05834782,-0.08806288,-0.00
 245937,0.00340028,-0.00718521,0.12634330,-0.00050331,-0.00021189,0.000
 75566,0.00195001,0.00020069,0.00071347,0.00054178,0.00035286,0.0000168
 5,0.01413400,-0.00679173,0.00599220,0.06151212,-0.11670533,0.09359483,
 -0.01034538,0.01191455,-0.01392957,-0.07589405,0.12287419,-0.00000947,
 -0.00020203,0.00045049,0.00149279,0.00016047,0.00086845,-0.00035945,-0
 .00013810,-0.00013665,0.01350066,-0.01264192,0.01610784,-0.09618534,0.
 09913869,-0.19043058,-0.01029888,0.01275682,-0.01548928,0.09640557,-0.
 10247840,0.19704088,0.00069562,-0.00108489,0.00070812,-0.00047455,0.00
 052750,-0.00080602,-0.00361143,-0.00231310,-0.00044317,-0.03125066,-0.
 01739511,0.01833517,-0.12236937,-0.10810090,0.04075202,-0.00281651,-0.
 00789394,0.00165520,0.01124347,0.01196928,-0.00466819,0.14425848,0.000
 02644,0.00011055,-0.00019538,-0.00024479,-0.00011090,0.00001546,0.0015
 6377,0.00129002,0.00004625,0.01366829,0.01712934,-0.00870177,-0.116348
 73,-0.21395376,0.06847238,-0.00903318,-0.01340939,0.00649181,-0.008338
 87,-0.01128529,0.00362764,0.11881796,0.22217149,-0.00039402,0.00035081
 ,-0.00004943,0.00043380,0.00002143,0.00015769,0.00198976,0.00149690,0.
 00002339,0.01684240,0.00891769,-0.00628276,0.04200169,0.06336855,-0.07
 681238,-0.01398994,-0.01947165,0.00971171,0.01246232,0.01875701,-0.006
 30945,-0.05612890,-0.06972279,0.07971444,-0.01613734,0.04160513,-0.035
 14711,-0.02942010,-0.01364960,0.00935762,0.00341954,0.01363470,0.01115
 453,-0.02404317,0.02024522,-0.01810195,-0.02167070,0.00606977,0.008501
 49,0.00256586,-0.00217273,-0.00216705,0.00114138,-0.00144092,0.0001023
 4,0.00427460,-0.00035032,-0.00238770,0.02095400,0.00973844,0.03563749,
 -0.01868997,-0.02043448,-0.00906933,0.00509005,0.04402031,-0.02832387,
 0.00708976,-0.00343262,-0.06578843,0.00217709,-0.00012869,0.02267292,-
 0.00326806,0.00167471,-0.00129469,-0.00215258,0.00112714,-0.00043049,0
 .00050580,0.00642970,-0.00229577,-0.00332644,-0.04702143,0.09235086,-0
 .01295872,-0.00872969,0.01049665,0.00968085,0.00147883,-0.00227478,0.0
 0166368,-0.00016903,-0.03255897,0.00160466,-0.00065686,-0.02866027,0.0
 0769726,0.00098633,-0.00627478,0.00016233,0.00096080,0.00021209,-0.001
 23360,0.00011388,0.00060408,-0.00066024,-0.00044033,0.00043139,0.00750
 254,-0.01279010,0.07845128,-0.03554193,-0.03625620,0.05647579,0.041809
 63,0.01383888,0.00001917,-0.02706238,0.00793835,-0.01144364,-0.0536431
 3,-0.00406919,0.00025007,-0.02466624,0.00979819,0.00130614,0.00270624,
 -0.00158123,-0.00265837,0.00316534,-0.00215095,0.00007859,0.00083053,0
 .00011367,-0.00116884,0.04374423,0.01671658,-0.00224804,0.04170295,-0.
 00708337,0.00458189,-0.01090389,-0.00948410,-0.02600123,0.00242716,0.0
 0538127,0.00083596,0.00009926,0.01634970,-0.03847395,0.01533599,0.0095
 1113,-0.00632545,0.00207961,-0.00024620,0.00041025,0.00114937,0.000124
 67,0.00022223,-0.00079429,-0.00137661,0.00056329,0.00004314,-0.0040416
 1,-0.01737141,0.02232669,-0.00649243,0.08325477,0.00394790,-0.01708042
 ,0.04496175,0.03318092,0.00989413,-0.03705249,-0.01580618,0.00504088,-
 0.00790714,-0.03367383,0.02212577,-0.09716116,0.00285989,-0.00664660,0
 .02257827,0.00156945,-0.00201645,-0.00147472,0.00652779,-0.00318654,-0
 .00255552,0.00119480,0.00041476,-0.00038560,0.01825074,0.02641031,-0.0
 1540209,-0.02117897,-0.03678277,0.10887838,-0.17014883,-0.04598261,-0.
 03069763,-0.02981967,-0.01548477,0.00530151,-0.01560910,0.00442989,-0.
 00879260,-0.00189134,0.00054454,-0.00111246,0.00049580,-0.00016906,-0.
 00031735,-0.00001938,0.00002259,0.00004137,-0.00009601,0.00007658,0.00
 000574,-0.00005889,-0.00001359,0.00004487,0.00067853,0.00143045,-0.000
 51859,0.00359156,-0.00160091,0.00256878,0.49199965,-0.04091643,-0.0870
 7190,-0.01334733,-0.02493823,0.00052576,0.00261019,0.02692942,-0.00257
 599,0.01375708,-0.00086381,0.00361656,-0.00382492,0.00003302,0.0002543
 9,-0.00028502,-0.00000116,-0.00004384,0.00008765,-0.00017074,0.0000366
 7,0.00004244,0.00012228,-0.00003100,-0.00004147,-0.00434720,-0.0055592
 6,0.00254469,0.00485568,-0.00073708,0.00374218,-0.01774725,0.57161287,
 -0.02890952,-0.01433687,-0.08061242,0.03572308,0.01409963,0.00655282,-
 0.01508759,0.00323930,-0.00417727,0.00231041,-0.00314528,0.00391194,-0
 .00027135,-0.00002270,0.00054452,-0.00000106,0.00001882,-0.00010286,0.
 00021788,-0.00008672,-0.00008071,-0.00004246,0.00000740,-0.00002077,0.
 00251125,0.00260979,-0.00132914,-0.00535447,0.00283208,-0.00510927,-0.
 03675982,-0.00351458,0.58735744,-0.01797030,0.02645539,-0.01035580,0.0
 0240624,-0.00243923,0.00078769,-0.00571459,-0.00019111,-0.00223678,-0.
 00002788,-0.00096386,0.00088723,0.00009106,-0.00009746,0.00003098,-0.0
 0000253,0.00001874,-0.00001375,0.00002851,-0.00000201,-0.00000655,-0.0
 0004926,0.00000693,0.00001889,0.00142262,0.00162070,-0.00070984,-0.000
 99697,0.00014023,-0.00065972,-0.12374261,0.11024998,-0.04826923,0.1342
 7113,-0.00534387,0.00728893,-0.00333866,0.00014996,0.00006595,-0.00022
 843,-0.00273883,0.00121827,-0.00179901,-0.00002402,-0.00011761,0.00009
 579,0.00003555,-0.00001047,-0.00003244,-0.00000530,-0.00000180,0.00001
 240,-0.00000669,0.00000238,-0.00000257,0.00000095,0.00000597,0.0000040
 5,-0.00000125,0.00022786,-0.00014135,0.00004239,0.00010449,-0.00007192
 ,0.11220264,-0.20623379,0.07015502,-0.12155147,0.22209906,-0.00563590,
 0.00816114,-0.00455742,0.00159897,-0.00001391,-0.00013152,-0.00327080,
 -0.00025885,-0.00035878,-0.00018219,-0.00052048,0.00039680,0.00003349,
 -0.00005712,0.00000809,-0.00000671,0.00000786,-0.00000312,0.00001157,0
 .00000203,-0.00000512,-0.00002454,0.00000955,0.00001595,0.00077505,0.0
 0094381,-0.00030301,-0.00045705,0.00000487,-0.00028592,-0.04825045,0.0
 6928221,-0.07437640,0.05463327,-0.07587808,0.07785190,-0.01107377,-0.0
 1095464,0.02825481,-0.00918178,-0.00369140,-0.00178827,0.00223663,0.00
 097678,-0.00060850,-0.00081608,0.00137866,-0.00153923,0.00017975,0.000
 03016,-0.00023939,-0.00000270,-0.00001331,0.00004949,-0.00010499,0.000
 04116,0.00002838,0.00002238,-0.00000926,0.00000813,-0.00126555,-0.0011
 5017,0.00042999,0.00253189,-0.00107855,0.00198824,-0.10528938,-0.05242
 115,0.09465392,0.00969220,0.00646770,-0.01444792,0.11397027,-0.0015039
 4,-0.00580527,0.01117201,-0.00409125,0.00036064,-0.00063709,0.00084421
 ,-0.00000581,-0.00055260,-0.00074431,0.00041196,-0.00071583,0.00014086
 ,-0.00004750,-0.00015243,0.00000425,0.00000753,0.00002323,-0.00004913,
 0.00003051,0.00002310,-0.00001063,-0.00000700,0.00001069,-0.00020891,-
 0.00020878,0.00012055,0.00124005,-0.00011214,0.00100897,-0.05362499,-0
 .09371080,0.08459648,-0.01281118,-0.00950562,0.01828634,0.05850722,0.0
 9752865,-0.00328705,-0.00404200,0.00587216,-0.00309627,-0.00098972,0.0
 0147897,0.00018831,-0.00053272,0.00068356,-0.00007493,0.00001284,-0.00
 016509,0.00002568,-0.00001412,0.00002249,-0.00000442,-0.00000004,-0.00
 000825,0.00001041,0.00000442,-0.00000334,-0.00000182,-0.00000339,0.000
 00078,0.00006295,0.00003527,0.00005746,-0.00001455,-0.00006085,0.00029
 288,0.10027376,0.08732689,-0.21440506,0.00435113,0.00302434,-0.0075976
 0,-0.10727584,-0.09564856,0.22851175,0.00708223,-0.01996418,-0.0214772
 4,0.00084135,0.00210046,0.00082605,0.00081759,0.00083653,0.00127213,0.
 00017119,0.00003575,0.00002197,0.00000590,-0.00001531,-0.00001664,-0.0
 0002118,0.00000862,0.00002095,0.00000381,-0.00000130,0.00000014,0.0000
 1082,0.00000812,0.00000149,-0.00025079,-0.00031579,0.00005778,-0.00015
 675,0.00019938,-0.00013147,-0.05189702,0.01875282,0.02405519,-0.001766
 91,0.01068876,0.01405572,-0.00181942,0.01125964,0.00938884,0.05311035,
 0.00549663,-0.00867440,-0.00767664,-0.00054065,0.00101122,0.00167684,-
 0.00043509,-0.00010951,-0.00008909,-0.00008207,-0.00013262,0.00012656,
 0.00008376,-0.00005578,-0.00002242,-0.00001025,0.00002013,0.00000806,0
 .00000198,0.00000643,0.00000223,-0.00001765,-0.00000075,0.00000324,0.0
 0024382,0.00013115,-0.00014001,-0.00016490,0.00012439,-0.00006440,0.01
 517634,-0.16476038,-0.13279959,0.00138687,-0.01567490,-0.01853335,-0.0
 0024144,0.01100122,0.01069278,-0.01974158,0.17770111,0.00357440,-0.005
 74611,-0.00888527,0.00045733,0.00134321,0.00093573,-0.00040736,0.00114
 087,0.00020592,0.00006274,0.00009757,-0.00004669,0.00001902,-0.0000093
 6,-0.00002743,-0.00001643,0.00000104,0.00003331,-0.00001053,-0.0000034
 7,-0.00000617,0.00000935,0.00001292,0.00000365,-0.00024747,-0.00020280
 ,0.00002563,-0.00005731,-0.00001434,-0.00002863,0.01995631,-0.13318758
 ,-0.19571894,-0.00023208,0.00759140,0.00931605,0.00106411,-0.01627410,
 -0.01573190,-0.02166019,0.14699510,0.20966615,0.00248580,0.00216846,0.
 01312405,0.00176294,0.00030783,-0.00157221,-0.08332203,0.00520385,-0.0
 1191758,-0.00644781,-0.00191545,0.00433547,-0.00034514,-0.00170509,0.0
 0051766,-0.00012096,-0.00005248,0.00002336,-0.00009741,-0.00000469,-0.
 00009526,-0.00059513,0.00016492,0.00017039,0.01321820,-0.00972926,-0.0
 1079745,-0.00170733,0.00034022,-0.00137461,-0.00140541,0.00115463,-0.0
 0151545,0.00006382,-0.00024466,0.00017571,-0.00059015,0.00053155,0.000
 22256,-0.00038141,0.00070281,-0.00037813,0.58935289,0.01142235,-0.0324
 9252,0.00482746,0.00163199,0.00629971,-0.00618750,0.00330257,-0.171418
 32,-0.05094854,0.01026984,0.00787022,-0.00294462,-0.00387746,0.0021125
 0,0.00209496,0.00018236,-0.00045133,-0.00085008,0.00055516,-0.00014361
 ,0.00014817,0.00052251,-0.00048223,-0.00048139,-0.01494532,-0.01894887
 ,-0.00279198,-0.00088001,-0.00149117,0.00016648,-0.00029692,0.00234718
 ,0.00065752,-0.00173459,-0.00078654,-0.00085501,0.00002222,0.00047435,
 0.00043599,0.00061362,-0.00040088,-0.00110987,0.00828640,0.47160531,0.
 01109530,-0.01067267,0.02043819,0.00348481,0.00569153,-0.00940856,-0.0
 1100751,-0.05997994,-0.11142359,0.00649666,0.00282556,-0.00110792,-0.0
 0153245,0.00158365,0.00173931,0.00044757,-0.00025692,-0.00058197,0.000
 05807,-0.00022320,-0.00016061,0.00022127,-0.00025869,-0.00046045,-0.00
 721304,-0.00514439,-0.00000825,-0.00217799,0.00013696,-0.00061660,-0.0
 0150878,0.00222236,-0.00093218,-0.00034632,-0.00004432,-0.00031313,0.0
 0027309,-0.00022814,-0.00014210,-0.00125945,0.00048340,-0.00015508,0.0
 1357881,-0.06152318,0.54274563,-0.00085265,0.00135409,-0.00114110,0.00
 021637,-0.00024301,0.00026648,0.00860252,-0.00293662,-0.00282501,-0.00
 009147,-0.00007235,0.00011714,-0.00001832,-0.00002088,0.00014217,0.000
 00691,-0.00001168,-0.00014708,0.00005531,0.00002898,0.00003055,-0.0000
 2325,-0.00006857,-0.00002936,0.00127900,0.00130653,0.00019568,-0.00016
 731,0.00018909,-0.00013269,-0.00010783,0.00053307,-0.00067681,0.000218
 16,0.00028818,0.00027827,-0.00015559,0.00003277,-0.00008509,-0.0003423
 2,0.00056409,0.00030485,-0.26295284,-0.10126822,0.02299612,0.27890667,
 -0.00403591,0.00204704,-0.00186199,0.00094524,-0.00056989,0.00108823,-
 0.02923302,-0.03023604,-0.00656759,-0.00350460,-0.00182141,0.00184868,
 0.00041831,-0.00084411,-0.00013170,-0.00004037,0.00004472,0.00014690,-
 0.00010089,0.00002414,-0.00005015,-0.00028901,0.00014064,0.00011471,0.
 00706417,0.00133521,-0.00211011,-0.00048946,0.00045472,-0.00056087,0.0
 0008037,-0.00035511,0.00023150,0.00020110,0.00031911,-0.00001496,0.000
 52213,-0.00026887,-0.00032973,0.00027049,-0.00026182,0.00056691,-0.094
 04999,-0.09183512,0.01318943,0.11106867,0.11223774,0.00057184,0.001369
 60,-0.00081993,-0.00057171,0.00007374,0.00065934,-0.01776720,-0.015309
 68,0.00068086,-0.00204091,-0.00083003,0.00072422,0.00021261,-0.0005380
 7,-0.00038696,-0.00012138,0.00008232,0.00020934,0.00001072,0.00003668,
 0.00003405,-0.00009212,0.00010849,0.00017902,0.00348706,0.00035642,-0.
 00113351,-0.00003669,-0.00001096,-0.00023302,-0.00013262,-0.00014674,0
 .00055317,0.00007115,-0.00012771,-0.00017100,0.00009448,0.00003171,0.0
 0007366,-0.00017205,0.00039186,-0.00051626,0.02588332,0.01395871,-0.05
 352348,-0.02283649,-0.00561243,0.05271653,0.00006526,-0.00175488,0.000
 56856,0.00028458,0.00020286,-0.00021416,0.00388700,0.00309892,0.002810
 92,0.00057865,0.00058617,-0.00036061,-0.00017675,0.00008581,0.00012189
 ,-0.00000244,-0.00007474,0.00001020,0.00000957,-0.00003248,-0.00003558
 ,0.00002431,0.00000025,-0.00000957,-0.00060628,-0.00080996,0.00050883,
 0.00003143,-0.00001828,0.00002928,0.00006390,-0.00001803,-0.00024921,0
 .00014363,0.00020505,0.00014309,0.00009827,-0.00016191,-0.00017300,-0.
 00017138,0.00010606,0.00035875,-0.17696836,0.09656530,-0.08732383,-0.0
 1912960,0.01521272,-0.01494266,0.18481079,-0.00361805,0.00584391,-0.00
 794204,-0.00174128,-0.00133034,0.00246671,0.02368712,-0.03523497,0.010
 62870,-0.00170240,-0.00005386,-0.00047021,0.00042583,-0.00029359,-0.00
 021151,-0.00003561,-0.00001467,0.00023900,-0.00023907,-0.00000848,-0.0
 0007926,-0.00007267,0.00013712,0.00004012,0.00204861,0.00032155,0.0003
 3873,0.00171887,-0.00014190,0.00090559,-0.00006608,-0.00016872,0.00019
 874,0.00019362,0.00022271,0.00018067,0.00007105,-0.00010110,-0.0001373
 1,0.00012153,0.00004642,0.00033570,0.09173385,-0.11741351,0.06631035,-
 0.00861281,0.00959492,-0.00655040,-0.10774191,0.14219623,-0.00097682,0
 .00209289,-0.00396475,-0.00085244,-0.00067223,0.00173741,0.01484831,-0
 .01654777,0.01017605,0.00037637,0.00016311,-0.00032424,-0.00016593,0.0
 0014497,0.00025247,-0.00005184,0.00002236,-0.00023532,0.00006149,0.000
 05646,0.00007862,0.00002646,-0.00010656,-0.00006409,-0.00040351,0.0000
 1919,0.00073064,0.00014932,0.00002992,0.00004979,-0.00002468,-0.000372
 35,-0.00022173,0.00005542,0.00013163,0.00016601,0.00000247,0.00006972,
 0.00004798,0.00021952,0.00019093,0.00031561,-0.08996733,0.07157836,-0.
 11131500,0.00320212,-0.00204974,0.00221606,0.09471653,-0.06898132,0.11
 350992,0.00088805,-0.00000328,0.00150974,-0.00075304,-0.00012664,-0.00
 040672,0.00308924,0.00417472,0.00108799,-0.00003608,0.00054698,-0.0001
 4390,-0.00009271,-0.00018461,-0.00034956,-0.00022488,-0.00011172,0.000
 15223,-0.00000626,0.00003038,0.00003409,0.00002099,0.00005509,0.000050
 11,-0.00050339,-0.00038242,-0.00058118,0.00070462,-0.00032796,0.000422
 28,-0.00021916,0.00009864,0.00062936,0.00006265,-0.00010810,-0.0002314
 8,0.00013404,-0.00005024,-0.00012541,-0.00053171,-0.00001775,-0.000366
 03,-0.06899952,-0.00977153,0.05748834,-0.00572134,-0.00472476,0.028455
 82,0.00696885,0.00243631,-0.02202635,0.06545062,0.00056740,0.00281721,
 -0.00429531,-0.00107335,0.00073255,0.00153700,0.00829317,-0.00964473,-
 0.03931077,-0.00052352,-0.00071010,0.00063837,-0.00000633,-0.00019188,
 0.00001234,-0.00021910,0.00004721,-0.00000143,0.00001386,0.00002721,0.
 00002877,-0.00004523,0.00001359,0.00002458,0.00239611,0.00157844,-0.00
 081607,-0.00058901,-0.00013940,-0.00058743,0.00010177,-0.00049731,0.00
 023045,0.00009894,0.00003353,0.00004101,-0.00007522,-0.00002512,-0.000
 04157,0.00019112,0.00012844,0.00005874,-0.01014010,-0.05540978,0.03929
 281,-0.00174615,-0.00001592,0.01280579,-0.00560699,-0.00077968,0.01572
 644,0.00843318,0.06207472,-0.00204247,0.00465068,-0.00385570,-0.001470
 33,-0.00120641,0.00242432,0.00288847,-0.01548047,-0.01519515,-0.002028
 40,-0.00084206,0.00050137,0.00055185,-0.00053163,-0.00073821,-0.000151
 80,0.00009599,0.00043489,-0.00004441,0.00003639,0.00000836,-0.00004375
 ,0.00018546,0.00022923,0.00322743,0.00148210,-0.00081773,0.00065543,-0
 .00013302,0.00017316,0.00014159,-0.00042325,-0.00001141,0.00011292,0.0
 0009495,0.00016647,-0.00009971,0.00007751,0.00004799,0.00010015,0.0001
 7141,0.00029171,0.05858174,0.03340684,-0.27739749,0.00037706,0.0019913
 6,-0.00118456,0.00401010,0.00341043,-0.01290342,-0.06526473,-0.0264156
 6,0.30739749,-0.07002917,-0.01306782,0.00067318,0.00109626,0.01730834,
 0.04092362,-0.00068486,0.02799808,0.00851965,-0.00285521,0.00064452,-0
 .00012673,0.00114054,-0.00022343,-0.00024493,-0.00013437,0.00008713,0.
 00012186,-0.00014367,0.00009079,-0.00002014,-0.00013215,-0.00001813,0.
 00008449,0.00119936,-0.00065974,0.00020405,0.00312362,-0.00048566,0.00
 041740,0.00347519,-0.02130553,-0.02296412,0.00187103,-0.00005699,0.000
 80189,0.00143399,0.00069593,-0.00038526,-0.00470435,-0.00251099,-0.002
 43131,-0.00295014,-0.00060030,-0.00377067,0.00027759,0.00068482,-0.000
 07318,0.00008859,0.00139309,0.00081088,-0.00023097,-0.00007056,0.00049
 888,0.06815873,-0.02068712,-0.09738766,-0.04316137,0.01442919,0.021165
 10,-0.01047901,0.01604726,-0.04768265,-0.01769610,0.00494970,0.0020195
 7,0.00065127,-0.00024683,0.00021140,0.00032242,-0.00013153,0.00004112,
 0.00015751,0.00009029,-0.00011503,-0.00004740,0.00020955,0.00001411,-0
 .00010918,-0.00512823,-0.00496458,-0.00008497,-0.00358927,0.00024172,-
 0.00271167,0.00092101,-0.01664823,-0.02497100,-0.00058160,0.00074249,-
 0.00078774,0.00161806,-0.00001684,0.00026747,-0.00504869,-0.00009946,-
 0.00159586,0.00724720,0.00056460,0.00659539,-0.00038521,0.00001006,-0.
 00008930,0.00015604,-0.00282204,-0.00149601,0.00003371,-0.00003899,-0.
 00057063,-0.00990355,0.14476532,-0.01848269,-0.04250436,-0.10986785,0.
 04843513,-0.01723613,-0.06559424,0.00299775,-0.00759899,0.00873590,0.0
 0568602,-0.00198288,0.00529911,-0.00046880,-0.00008594,0.00067910,-0.0
 0028862,0.00027505,0.00006547,0.00038035,-0.00017199,-0.00001536,0.000
 00883,0.00003679,-0.00008231,0.00073484,-0.00114525,-0.00224669,-0.012
 13860,0.00223508,-0.00872207,-0.00021893,-0.02647248,-0.02182174,0.001
 88138,0.00055492,0.00018174,-0.00084826,-0.00121158,0.00096365,-0.0053
 0290,-0.00141694,0.00032259,0.00100494,0.00041767,0.00262328,-0.000036
 79,0.00011155,-0.00007754,0.00003050,-0.00068268,-0.00025199,-0.000334
 59,0.00107196,0.00042870,-0.02303956,0.09580619,0.18938026\\-0.0000059
 0,0.00000947,-0.00001053,0.00001177,-0.00001959,0.00000244,-0.00000501
 ,0.00000802,-0.00000719,-0.00001730,0.00000065,0.00000733,-0.00000456,
 0.00000537,0.00000152,0.00000279,-0.00000099,0.00000662,-0.00000231,0.
 00000699,0.00000846,0.00000032,0.00000310,0.00000344,0.00000822,0.0000
 1657,-0.00000405,-0.00000187,-0.00000343,-0.00000498,-0.00000143,-0.00
 000359,-0.00000739,-0.00000032,-0.00000825,-0.00001144,-0.00000018,-0.
 00000353,-0.00000703,0.00000266,-0.00000821,-0.00000443,0.00000634,0.0
 0000130,0.00000880,0.00000289,0.00000117,0.00000640,0.00000114,0.00000
 365,0.00001100,0.00000371,-0.00000371,0.00000726,-0.00000095,-0.000005
 01,-0.00000622\\\@


  ON THE CHOICE OF THE CORRECT LANGUAGE -
 I SPEAK SPANISH TO GOD, ITALIAN TO WOMEN,
 FRENCH TO MEN, AND GERMAN TO MY HORSE.
          -- CHARLES V
 Job cpu time:       1 days 11 hours 35 minutes 39.4 seconds.
 File lengths (MBytes):  RWF=    369 Int=      0 D2E=      0 Chk=     25 Scr=      1
 Normal termination of Gaussian 09 at Fri Mar 27 05:25:35 2015.
