 Entering Gaussian System, Link 0=g09
 Initial command:
 /opt/gridware/applications/gaussian/g09/l1.exe "/lustre/SCRATCH5/gau/mlawal/854268.sched01/Gau-16579.inp" -scrdir="/lustre/SCRATCH5/gau/mlawal/854268.sched01/"
 Entering Link 1 = /opt/gridware/applications/gaussian/g09/l1.exe PID=     16580.
  
 Copyright (c) 1988,1990,1992,1993,1995,1998,2003,2009,2013,
            Gaussian, Inc.  All Rights Reserved.
  
 This is part of the Gaussian(R) 09 program.  It is based on
 the Gaussian(R) 03 system (copyright 2003, Gaussian, Inc.),
 the Gaussian(R) 98 system (copyright 1998, Gaussian, Inc.),
 the Gaussian(R) 94 system (copyright 1995, Gaussian, Inc.),
 the Gaussian 92(TM) system (copyright 1992, Gaussian, Inc.),
 the Gaussian 90(TM) system (copyright 1990, Gaussian, Inc.),
 the Gaussian 88(TM) system (copyright 1988, Gaussian, Inc.),
 the Gaussian 86(TM) system (copyright 1986, Carnegie Mellon
 University), and the Gaussian 82(TM) system (copyright 1983,
 Carnegie Mellon University). Gaussian is a federally registered
 trademark of Gaussian, Inc.
  
 This software contains proprietary and confidential information,
 including trade secrets, belonging to Gaussian, Inc.
  
 This software is provided under written license and may be
 used, copied, transmitted, or stored only in accord with that
 written license.
  
 The following legend is applicable only to US Government
 contracts under FAR:
  
                    RESTRICTED RIGHTS LEGEND
  
 Use, reproduction and disclosure by the US Government is
 subject to restrictions as set forth in subparagraphs (a)
 and (c) of the Commercial Computer Software - Restricted
 Rights clause in FAR 52.227-19.
  
 Gaussian, Inc.
 340 Quinnipiac St., Bldg. 40, Wallingford CT 06492
  
  
 ---------------------------------------------------------------
 Warning -- This program may not be used in any manner that
 competes with the business of Gaussian, Inc. or will provide
 assistance to any competitor of Gaussian, Inc.  The licensee
 of this program is prohibited from giving any competitor of
 Gaussian, Inc. access to this program.  By using this program,
 the user acknowledges that Gaussian, Inc. is engaged in the
 business of creating and licensing software in the field of
 computational chemistry and represents and warrants to the
 licensee that it is not a competitor of Gaussian, Inc. and that
 it will not use this program in any manner prohibited above.
 ---------------------------------------------------------------
  

 Cite this work as:
 Gaussian 09, Revision D.01,
 M. J. Frisch, G. W. Trucks, H. B. Schlegel, G. E. Scuseria, 
 M. A. Robb, J. R. Cheeseman, G. Scalmani, V. Barone, B. Mennucci, 
 G. A. Petersson, H. Nakatsuji, M. Caricato, X. Li, H. P. Hratchian, 
 A. F. Izmaylov, J. Bloino, G. Zheng, J. L. Sonnenberg, M. Hada, 
 M. Ehara, K. Toyota, R. Fukuda, J. Hasegawa, M. Ishida, T. Nakajima, 
 Y. Honda, O. Kitao, H. Nakai, T. Vreven, J. A. Montgomery, Jr., 
 J. E. Peralta, F. Ogliaro, M. Bearpark, J. J. Heyd, E. Brothers, 
 K. N. Kudin, V. N. Staroverov, T. Keith, R. Kobayashi, J. Normand, 
 K. Raghavachari, A. Rendell, J. C. Burant, S. S. Iyengar, J. Tomasi, 
 M. Cossi, N. Rega, J. M. Millam, M. Klene, J. E. Knox, J. B. Cross, 
 V. Bakken, C. Adamo, J. Jaramillo, R. Gomperts, R. E. Stratmann, 
 O. Yazyev, A. J. Austin, R. Cammi, C. Pomelli, J. W. Ochterski, 
 R. L. Martin, K. Morokuma, V. G. Zakrzewski, G. A. Voth, 
 P. Salvador, J. J. Dannenberg, S. Dapprich, A. D. Daniels, 
 O. Farkas, J. B. Foresman, J. V. Ortiz, J. Cioslowski, 
 and D. J. Fox, Gaussian, Inc., Wallingford CT, 2013.
 
 ******************************************
 Gaussian 09:  EM64L-G09RevD.01 24-Apr-2013
                27-Mar-2015 
 ******************************************
 %nprocshared=8
 Will use up to    8 processors via shared memory.
 %nprocl=1
 Will use up to    1 processors via Linda.
 ----------------------------------------------------------------------
 # opt=(calcfc,ts,noeigentest) freq=noraman b3lyp/gen geom=connectivity
  gfinput pseudo=read
 ----------------------------------------------------------------------
 1/5=1,10=4,11=1,14=-1,18=20,26=3,38=1,57=2/1,3;
 2/9=110,12=2,17=6,18=5,40=1/2;
 3/5=7,11=2,16=1,17=8,24=10,25=1,30=1,71=2,74=-5,140=1/1,2,3;
 4//1;
 5/5=2,38=5/2;
 8/6=4,10=90,11=11/1;
 11/6=1,8=1,9=11,15=111,16=1/1,2,10;
 10/6=1,13=1/2;
 6/7=2,8=2,9=2,10=2,28=1/1;
 7/10=1,18=20,25=1/1,2,3,16;
 1/5=1,10=4,11=1,14=-1,18=20,26=3/3(2);
 2/9=110/2;
 99//99;
 2/9=110/2;
 3/5=7,6=1,11=2,16=1,17=8,25=1,30=1,71=1,74=-5,82=7/1,2,3;
 4/5=5,16=3,69=1/1;
 5/5=2,38=5/2;
 7//1,2,3,16;
 1/5=1,11=1,14=-1,18=20,26=3/3(-5);
 2/9=110/2;
 6/7=2,8=2,9=2,10=2,19=2,28=1/1;
 99/9=1/99;
 ---------------------------------------------------
 gen calculation ts624cl-C H O=aug-ccpvtz/Cl=lanl2dz
 ---------------------------------------------------
 Symbolic Z-matrix:
 Charge =  0 Multiplicity = 1
 C                     0.88456   0.11663   0.41891 
 C                    -0.39856   2.08642  -0.60959 
 H                    -1.16612   2.27151  -1.36713 
 H                    -0.77958   2.23626   0.40602 
 H                     0.47888   2.71442  -0.79914 
 C                     2.12077   0.93679   0.59068 
 H                     2.88275   0.36133   1.14581 
 H                     2.57087   1.21375  -0.37438 
 H                     1.92442   1.84967   1.16978 
 O                     0.01831   0.71086  -0.79507 
 O                    -1.76363  -0.8697   -0.10176 
 C                    -3.04071  -0.26804   0.23386 
 H                    -3.56304  -0.12891  -0.71933 
 H                    -3.57601  -0.99358   0.85919 
 H                    -2.90073   0.67793   0.76431 
 H                    -1.12805  -0.88883   0.81811 
 H                    -1.03451  -0.03214  -0.7197 
 Cl                    1.32383  -1.44391  -0.5023 
 O                     0.04404  -0.08688   1.34089 
 
 Add virtual bond connecting atoms H16        and O11        Dist= 2.11D+00.
 Add virtual bond connecting atoms H17        and O11        Dist= 2.40D+00.
 Add virtual bond connecting atoms H17        and O10        Dist= 2.44D+00.
 Add virtual bond connecting atoms C1         and O10        Dist= 3.03D+00.
 Add virtual bond connecting atoms O19        and H16        Dist= 2.86D+00.

 GradGradGradGradGradGradGradGradGradGradGradGradGradGradGradGradGradGrad
 Berny optimization.
 Initialization pass.
                           ----------------------------
                           !    Initial Parameters    !
                           ! (Angstroms and Degrees)  !
 --------------------------                            --------------------------
 ! Name  Definition              Value          Derivative Info.                !
 --------------------------------------------------------------------------------
 ! R1    R(1,6)                  1.4934         calculate D2E/DX2 analytically  !
 ! R2    R(1,10)                 1.6054         calculate D2E/DX2 analytically  !
 ! R3    R(1,18)                 1.8646         calculate D2E/DX2 analytically  !
 ! R4    R(1,19)                 1.2641         calculate D2E/DX2 analytically  !
 ! R5    R(2,3)                  1.0942         calculate D2E/DX2 analytically  !
 ! R6    R(2,4)                  1.095          calculate D2E/DX2 analytically  !
 ! R7    R(2,5)                  1.0955         calculate D2E/DX2 analytically  !
 ! R8    R(2,10)                 1.4493         calculate D2E/DX2 analytically  !
 ! R9    R(6,7)                  1.1045         calculate D2E/DX2 analytically  !
 ! R10   R(6,8)                  1.1003         calculate D2E/DX2 analytically  !
 ! R11   R(6,9)                  1.0988         calculate D2E/DX2 analytically  !
 ! R12   R(10,17)                1.2908         calculate D2E/DX2 analytically  !
 ! R13   R(11,12)                1.4511         calculate D2E/DX2 analytically  !
 ! R14   R(11,16)                1.1182         calculate D2E/DX2 analytically  !
 ! R15   R(11,17)                1.2708         calculate D2E/DX2 analytically  !
 ! R16   R(12,13)                1.0958         calculate D2E/DX2 analytically  !
 ! R17   R(12,14)                1.0973         calculate D2E/DX2 analytically  !
 ! R18   R(12,15)                1.0935         calculate D2E/DX2 analytically  !
 ! R19   R(16,19)                1.5133         calculate D2E/DX2 analytically  !
 ! A1    A(6,1,10)             109.29           calculate D2E/DX2 analytically  !
 ! A2    A(6,1,18)             108.7494         calculate D2E/DX2 analytically  !
 ! A3    A(6,1,19)             123.7047         calculate D2E/DX2 analytically  !
 ! A4    A(10,1,18)             93.6298         calculate D2E/DX2 analytically  !
 ! A5    A(10,1,19)            104.6163         calculate D2E/DX2 analytically  !
 ! A6    A(18,1,19)            112.4725         calculate D2E/DX2 analytically  !
 ! A7    A(3,2,4)              112.0175         calculate D2E/DX2 analytically  !
 ! A8    A(3,2,5)              110.1863         calculate D2E/DX2 analytically  !
 ! A9    A(3,2,10)             105.8855         calculate D2E/DX2 analytically  !
 ! A10   A(4,2,5)              111.1443         calculate D2E/DX2 analytically  !
 ! A11   A(4,2,10)             110.4062         calculate D2E/DX2 analytically  !
 ! A12   A(5,2,10)             106.9508         calculate D2E/DX2 analytically  !
 ! A13   A(1,6,7)              110.0441         calculate D2E/DX2 analytically  !
 ! A14   A(1,6,8)              112.0838         calculate D2E/DX2 analytically  !
 ! A15   A(1,6,9)              111.652          calculate D2E/DX2 analytically  !
 ! A16   A(7,6,8)              106.8439         calculate D2E/DX2 analytically  !
 ! A17   A(7,6,9)              106.9335         calculate D2E/DX2 analytically  !
 ! A18   A(8,6,9)              109.0408         calculate D2E/DX2 analytically  !
 ! A19   A(1,10,2)             114.1896         calculate D2E/DX2 analytically  !
 ! A20   A(1,10,17)            100.5379         calculate D2E/DX2 analytically  !
 ! A21   A(2,10,17)            107.7134         calculate D2E/DX2 analytically  !
 ! A22   A(12,11,16)           108.4848         calculate D2E/DX2 analytically  !
 ! A23   A(12,11,17)           110.1294         calculate D2E/DX2 analytically  !
 ! A24   A(16,11,17)            94.8855         calculate D2E/DX2 analytically  !
 ! A25   A(11,12,13)           105.722          calculate D2E/DX2 analytically  !
 ! A26   A(11,12,14)           106.6785         calculate D2E/DX2 analytically  !
 ! A27   A(11,12,15)           110.9905         calculate D2E/DX2 analytically  !
 ! A28   A(13,12,14)           110.3134         calculate D2E/DX2 analytically  !
 ! A29   A(13,12,15)           111.9091         calculate D2E/DX2 analytically  !
 ! A30   A(14,12,15)           110.9771         calculate D2E/DX2 analytically  !
 ! A31   A(11,16,19)           135.6682         calculate D2E/DX2 analytically  !
 ! A32   A(10,17,11)           151.1314         calculate D2E/DX2 analytically  !
 ! A33   A(1,19,16)            110.3856         calculate D2E/DX2 analytically  !
 ! D1    D(10,1,6,7)          -159.762          calculate D2E/DX2 analytically  !
 ! D2    D(10,1,6,8)           -41.0181         calculate D2E/DX2 analytically  !
 ! D3    D(10,1,6,9)            81.6562         calculate D2E/DX2 analytically  !
 ! D4    D(18,1,6,7)           -58.8302         calculate D2E/DX2 analytically  !
 ! D5    D(18,1,6,8)            59.9137         calculate D2E/DX2 analytically  !
 ! D6    D(18,1,6,9)          -177.412          calculate D2E/DX2 analytically  !
 ! D7    D(19,1,6,7)            76.5385         calculate D2E/DX2 analytically  !
 ! D8    D(19,1,6,8)          -164.7176         calculate D2E/DX2 analytically  !
 ! D9    D(19,1,6,9)           -42.0433         calculate D2E/DX2 analytically  !
 ! D10   D(6,1,10,2)           -59.7896         calculate D2E/DX2 analytically  !
 ! D11   D(6,1,10,17)         -174.8027         calculate D2E/DX2 analytically  !
 ! D12   D(18,1,10,2)         -171.101          calculate D2E/DX2 analytically  !
 ! D13   D(18,1,10,17)          73.8859         calculate D2E/DX2 analytically  !
 ! D14   D(19,1,10,2)           74.5458         calculate D2E/DX2 analytically  !
 ! D15   D(19,1,10,17)         -40.4674         calculate D2E/DX2 analytically  !
 ! D16   D(6,1,19,16)          176.7496         calculate D2E/DX2 analytically  !
 ! D17   D(10,1,19,16)          50.9937         calculate D2E/DX2 analytically  !
 ! D18   D(18,1,19,16)         -49.2991         calculate D2E/DX2 analytically  !
 ! D19   D(3,2,10,1)          -166.3283         calculate D2E/DX2 analytically  !
 ! D20   D(3,2,10,17)          -55.5997         calculate D2E/DX2 analytically  !
 ! D21   D(4,2,10,1)           -44.879          calculate D2E/DX2 analytically  !
 ! D22   D(4,2,10,17)           65.8496         calculate D2E/DX2 analytically  !
 ! D23   D(5,2,10,1)            76.1679         calculate D2E/DX2 analytically  !
 ! D24   D(5,2,10,17)         -173.1035         calculate D2E/DX2 analytically  !
 ! D25   D(1,10,17,11)          13.1394         calculate D2E/DX2 analytically  !
 ! D26   D(2,10,17,11)        -106.6587         calculate D2E/DX2 analytically  !
 ! D27   D(16,11,12,13)        171.4295         calculate D2E/DX2 analytically  !
 ! D28   D(16,11,12,14)        -71.1302         calculate D2E/DX2 analytically  !
 ! D29   D(16,11,12,15)         49.8827         calculate D2E/DX2 analytically  !
 ! D30   D(17,11,12,13)         68.8279         calculate D2E/DX2 analytically  !
 ! D31   D(17,11,12,14)       -173.7318         calculate D2E/DX2 analytically  !
 ! D32   D(17,11,12,15)        -52.7189         calculate D2E/DX2 analytically  !
 ! D33   D(12,11,16,19)       -103.5454         calculate D2E/DX2 analytically  !
 ! D34   D(17,11,16,19)          9.581          calculate D2E/DX2 analytically  !
 ! D35   D(12,11,17,10)        114.9612         calculate D2E/DX2 analytically  !
 ! D36   D(16,11,17,10)          3.2308         calculate D2E/DX2 analytically  !
 ! D37   D(11,16,19,1)         -43.6502         calculate D2E/DX2 analytically  !
 --------------------------------------------------------------------------------
 Trust Radius=3.00D-01 FncErr=1.00D-07 GrdErr=1.00D-06
 Number of steps in this run=     99 maximum allowed number of steps=    114.
 Search for a saddle point of order  1.
 GradGradGradGradGradGradGradGradGradGradGradGradGradGradGradGradGradGrad

                          Input orientation:                          
 ---------------------------------------------------------------------
 Center     Atomic      Atomic             Coordinates (Angstroms)
 Number     Number       Type             X           Y           Z
 ---------------------------------------------------------------------
      1          6           0        0.884558    0.116628    0.418907
      2          6           0       -0.398563    2.086422   -0.609586
      3          1           0       -1.166118    2.271506   -1.367134
      4          1           0       -0.779578    2.236265    0.406015
      5          1           0        0.478877    2.714415   -0.799143
      6          6           0        2.120771    0.936787    0.590683
      7          1           0        2.882752    0.361331    1.145809
      8          1           0        2.570868    1.213746   -0.374381
      9          1           0        1.924419    1.849674    1.169780
     10          8           0        0.018310    0.710864   -0.795072
     11          8           0       -1.763632   -0.869703   -0.101762
     12          6           0       -3.040711   -0.268041    0.233857
     13          1           0       -3.563040   -0.128910   -0.719331
     14          1           0       -3.576005   -0.993577    0.859193
     15          1           0       -2.900725    0.677932    0.764309
     16          1           0       -1.128054   -0.888828    0.818105
     17          1           0       -1.034514   -0.032144   -0.719698
     18         17           0        1.323828   -1.443907   -0.502301
     19          8           0        0.044036   -0.086882    1.340889
 ---------------------------------------------------------------------
                    Distance matrix (angstroms):
                    1          2          3          4          5
     1  C    0.000000
     2  C    2.565986   0.000000
     3  H    3.469685   1.094201   0.000000
     4  H    2.694880   1.095021   1.815134   0.000000
     5  H    2.897709   1.095540   1.795770   1.806860   0.000000
     6  C    1.493449   3.018170   4.051933   3.183515   2.790590
     7  H    2.140338   4.101753   5.133907   4.180351   3.885673
     8  H    2.162548   3.103934   4.008675   3.588879   2.609379
     9  H    2.156054   2.935718   4.020609   2.836263   2.591144
    10  O    1.605381   1.449258   2.041012   2.099067   2.055810
    11  O    2.873474   3.295447   3.438805   3.297459   4.284984
    12  C    3.948411   3.638109   3.539289   3.378448   4.727540
    13  H    4.597500   3.864409   3.453532   3.822057   4.942465
    14  H    4.617687   4.662600   4.628699   4.296191   5.739456
    15  H    3.842230   3.183119   3.176695   2.656321   4.244214
    16  H    2.284931   3.379729   3.842451   3.171350   4.263928
    17  H    2.236379   2.214696   2.396518   2.545172   3.136917
    18  Cl   1.864632   3.929550   4.555443   4.335092   4.253669
    19  O    1.264098   2.953557   3.789440   2.636160   3.551913
                    6          7          8          9         10
     6  C    0.000000
     7  H    1.104504   0.000000
     8  H    1.100292   1.770554   0.000000
     9  H    1.098758   1.770351   1.790736   0.000000
    10  O    2.528181   3.477675   2.635417   2.964925   0.000000
    11  O    4.339524   4.965960   4.816946   4.755371   2.480764
    12  C    5.312234   6.026208   5.835706   5.478429   3.372619
    13  H    5.929381   6.728099   6.288604   6.131537   3.679270
    14  H    6.020935   6.605563   6.646655   6.199613   4.308226
    15  H    5.031160   5.804686   5.614449   4.981907   3.309610
    16  H    3.733558   4.213888   4.418695   4.115903   2.544701
    17  H    3.551302   4.356594   3.830178   3.983296   1.290806
    18  Cl   2.738145   2.899206   2.938468   3.742224   2.536362
    19  O    2.433831   2.880496   3.319437   2.704694   2.280217
                   11         12         13         14         15
    11  O    0.000000
    12  C    1.451058   0.000000
    13  H    2.041577   1.095788   0.000000
    14  H    2.055110   1.097264   1.799876   0.000000
    15  H    2.106712   1.093545   1.814068   1.805256   0.000000
    16  H    1.118249   2.094034   2.978312   2.450536   2.366431
    17  H    1.270812   2.233773   2.530377   3.142678   2.487816
    18  Cl   3.165841   4.579715   5.065353   5.105372   4.894216
    19  O    2.441662   3.282378   4.154187   3.762821   3.096611
                   16         17         18         19
    16  H    0.000000
    17  H    1.762809   0.000000
    18  Cl   2.839597   2.757193   0.000000
    19  O    1.513346   2.326432   2.622353   0.000000
 Stoichiometry    C4H11ClO3
 Framework group  C1[X(C4H11ClO3)]
 Deg. of freedom    51
 Full point group                 C1      NOp   1
 Largest Abelian subgroup         C1      NOp   1
 Largest concise Abelian subgroup C1      NOp   1
                         Standard orientation:                         
 ---------------------------------------------------------------------
 Center     Atomic      Atomic             Coordinates (Angstroms)
 Number     Number       Type             X           Y           Z
 ---------------------------------------------------------------------
      1          6           0        0.884558    0.116628    0.418907
      2          6           0       -0.398563    2.086422   -0.609586
      3          1           0       -1.166118    2.271506   -1.367134
      4          1           0       -0.779578    2.236265    0.406015
      5          1           0        0.478877    2.714415   -0.799143
      6          6           0        2.120771    0.936787    0.590683
      7          1           0        2.882752    0.361331    1.145809
      8          1           0        2.570868    1.213746   -0.374381
      9          1           0        1.924419    1.849674    1.169780
     10          8           0        0.018310    0.710864   -0.795072
     11          8           0       -1.763632   -0.869703   -0.101762
     12          6           0       -3.040711   -0.268041    0.233857
     13          1           0       -3.563040   -0.128910   -0.719331
     14          1           0       -3.576005   -0.993577    0.859193
     15          1           0       -2.900725    0.677932    0.764309
     16          1           0       -1.128054   -0.888828    0.818105
     17          1           0       -1.034514   -0.032144   -0.719698
     18         17           0        1.323828   -1.443907   -0.502301
     19          8           0        0.044036   -0.086882    1.340889
 ---------------------------------------------------------------------
 Rotational constants (GHZ):      2.0335794      1.2248437      0.9612350
 General basis read from cards:  (5D, 7F)
 ======================================================================================================
                                       Pseudopotential Parameters
 ======================================================================================================
  Center     Atomic      Valence      Angular      Power
  Number     Number     Electrons     Momentum     of R      Exponent        Coefficient   SO-Coeffient
 ======================================================================================================
    1          6
                                   No pseudopotential on this center.
    2          6
                                   No pseudopotential on this center.
    3          1
                                   No pseudopotential on this center.
    4          1
                                   No pseudopotential on this center.
    5          1
                                   No pseudopotential on this center.
    6          6
                                   No pseudopotential on this center.
    7          1
                                   No pseudopotential on this center.
    8          1
                                   No pseudopotential on this center.
    9          1
                                   No pseudopotential on this center.
   10          8
                                   No pseudopotential on this center.
   11          8
                                   No pseudopotential on this center.
   12          6
                                   No pseudopotential on this center.
   13          1
                                   No pseudopotential on this center.
   14          1
                                   No pseudopotential on this center.
   15          1
                                   No pseudopotential on this center.
   16          1
                                   No pseudopotential on this center.
   17          1
                                   No pseudopotential on this center.
   18         17            7
                                      D and up 
                                                     1       94.8130000      -10.00000000    0.00000000
                                                     2      165.6440000       66.27291700    0.00000000
                                                     2       30.8317000      -28.96859500    0.00000000
                                                     2       10.5841000      -12.86633700    0.00000000
                                                     2        3.7704000       -1.71021700    0.00000000
                                      S - D
                                                     0      128.8391000        3.00000000    0.00000000
                                                     1      120.3786000       12.85285100    0.00000000
                                                     2       63.5622000      275.67239800    0.00000000
                                                     2       18.0695000      115.67771200    0.00000000
                                                     2        3.8142000       35.06060900    0.00000000
                                      P - D
                                                     0      216.5263000        5.00000000    0.00000000
                                                     1       46.5723000        7.47948600    0.00000000
                                                     2      147.4685000      613.03200000    0.00000000
                                                     2       48.9869000      280.80068500    0.00000000
                                                     2       13.2096000      107.87882400    0.00000000
                                                     2        3.1831000       15.34395600    0.00000000
   19          8
                                   No pseudopotential on this center.
 ======================================================================================================
 AO basis set in the form of general basis input (Overlap normalization):
      1 0
 S   7 1.00       0.000000000000
      0.8236000000D+04  0.5419783203D-03
      0.1235000000D+04  0.4192873817D-02
      0.2808000000D+03  0.2152216205D-01
      0.7927000000D+02  0.8353432195D-01
      0.2559000000D+02  0.2395828457D+00
      0.8997000000D+01  0.4428528419D+00
      0.3319000000D+01  0.3517995618D+00
 S   6 1.00       0.000000000000
      0.2808000000D+03 -0.5949224937D-04
      0.7927000000D+02 -0.1148158310D-02
      0.2559000000D+02 -0.1001913745D-01
      0.8997000000D+01 -0.6121949230D-01
      0.3319000000D+01 -0.1732698541D+00
      0.3643000000D+00  0.1072915192D+01
 S   1 1.00       0.000000000000
      0.9059000000D+00  0.1000000000D+01
 S   1 1.00       0.000000000000
      0.1285000000D+00  0.1000000000D+01
 S   1 1.00       0.000000000000
      0.4402000000D-01  0.1000000000D+01
 P   3 1.00       0.000000000000
      0.1871000000D+02  0.3942638716D-01
      0.4133000000D+01  0.2440889849D+00
      0.1200000000D+01  0.8154920089D+00
 P   1 1.00       0.000000000000
      0.3827000000D+00  0.1000000000D+01
 P   1 1.00       0.000000000000
      0.1209000000D+00  0.1000000000D+01
 P   1 1.00       0.000000000000
      0.3569000000D-01  0.1000000000D+01
 D   1 1.00       0.000000000000
      0.1097000000D+01  0.1000000000D+01
 D   1 1.00       0.000000000000
      0.3180000000D+00  0.1000000000D+01
 D   1 1.00       0.000000000000
      0.1000000000D+00  0.1000000000D+01
 F   1 1.00       0.000000000000
      0.7610000000D+00  0.1000000000D+01
 F   1 1.00       0.000000000000
      0.2680000000D+00  0.1000000000D+01
 ****
      2 0
 S   7 1.00       0.000000000000
      0.8236000000D+04  0.5419783203D-03
      0.1235000000D+04  0.4192873817D-02
      0.2808000000D+03  0.2152216205D-01
      0.7927000000D+02  0.8353432195D-01
      0.2559000000D+02  0.2395828457D+00
      0.8997000000D+01  0.4428528419D+00
      0.3319000000D+01  0.3517995618D+00
 S   6 1.00       0.000000000000
      0.2808000000D+03 -0.5949224937D-04
      0.7927000000D+02 -0.1148158310D-02
      0.2559000000D+02 -0.1001913745D-01
      0.8997000000D+01 -0.6121949230D-01
      0.3319000000D+01 -0.1732698541D+00
      0.3643000000D+00  0.1072915192D+01
 S   1 1.00       0.000000000000
      0.9059000000D+00  0.1000000000D+01
 S   1 1.00       0.000000000000
      0.1285000000D+00  0.1000000000D+01
 S   1 1.00       0.000000000000
      0.4402000000D-01  0.1000000000D+01
 P   3 1.00       0.000000000000
      0.1871000000D+02  0.3942638716D-01
      0.4133000000D+01  0.2440889849D+00
      0.1200000000D+01  0.8154920089D+00
 P   1 1.00       0.000000000000
      0.3827000000D+00  0.1000000000D+01
 P   1 1.00       0.000000000000
      0.1209000000D+00  0.1000000000D+01
 P   1 1.00       0.000000000000
      0.3569000000D-01  0.1000000000D+01
 D   1 1.00       0.000000000000
      0.1097000000D+01  0.1000000000D+01
 D   1 1.00       0.000000000000
      0.3180000000D+00  0.1000000000D+01
 D   1 1.00       0.000000000000
      0.1000000000D+00  0.1000000000D+01
 F   1 1.00       0.000000000000
      0.7610000000D+00  0.1000000000D+01
 F   1 1.00       0.000000000000
      0.2680000000D+00  0.1000000000D+01
 ****
      3 0
 S   3 1.00       0.000000000000
      0.3387000000D+02  0.2549486323D-01
      0.5095000000D+01  0.1903627659D+00
      0.1159000000D+01  0.8521620222D+00
 S   1 1.00       0.000000000000
      0.3258000000D+00  0.1000000000D+01
 S   1 1.00       0.000000000000
      0.1027000000D+00  0.1000000000D+01
 S   1 1.00       0.000000000000
      0.2526000000D-01  0.1000000000D+01
 P   1 1.00       0.000000000000
      0.1407000000D+01  0.1000000000D+01
 P   1 1.00       0.000000000000
      0.3880000000D+00  0.1000000000D+01
 P   1 1.00       0.000000000000
      0.1020000000D+00  0.1000000000D+01
 D   1 1.00       0.000000000000
      0.1057000000D+01  0.1000000000D+01
 D   1 1.00       0.000000000000
      0.2470000000D+00  0.1000000000D+01
 ****
      4 0
 S   3 1.00       0.000000000000
      0.3387000000D+02  0.2549486323D-01
      0.5095000000D+01  0.1903627659D+00
      0.1159000000D+01  0.8521620222D+00
 S   1 1.00       0.000000000000
      0.3258000000D+00  0.1000000000D+01
 S   1 1.00       0.000000000000
      0.1027000000D+00  0.1000000000D+01
 S   1 1.00       0.000000000000
      0.2526000000D-01  0.1000000000D+01
 P   1 1.00       0.000000000000
      0.1407000000D+01  0.1000000000D+01
 P   1 1.00       0.000000000000
      0.3880000000D+00  0.1000000000D+01
 P   1 1.00       0.000000000000
      0.1020000000D+00  0.1000000000D+01
 D   1 1.00       0.000000000000
      0.1057000000D+01  0.1000000000D+01
 D   1 1.00       0.000000000000
      0.2470000000D+00  0.1000000000D+01
 ****
      5 0
 S   3 1.00       0.000000000000
      0.3387000000D+02  0.2549486323D-01
      0.5095000000D+01  0.1903627659D+00
      0.1159000000D+01  0.8521620222D+00
 S   1 1.00       0.000000000000
      0.3258000000D+00  0.1000000000D+01
 S   1 1.00       0.000000000000
      0.1027000000D+00  0.1000000000D+01
 S   1 1.00       0.000000000000
      0.2526000000D-01  0.1000000000D+01
 P   1 1.00       0.000000000000
      0.1407000000D+01  0.1000000000D+01
 P   1 1.00       0.000000000000
      0.3880000000D+00  0.1000000000D+01
 P   1 1.00       0.000000000000
      0.1020000000D+00  0.1000000000D+01
 D   1 1.00       0.000000000000
      0.1057000000D+01  0.1000000000D+01
 D   1 1.00       0.000000000000
      0.2470000000D+00  0.1000000000D+01
 ****
      6 0
 S   7 1.00       0.000000000000
      0.8236000000D+04  0.5419783203D-03
      0.1235000000D+04  0.4192873817D-02
      0.2808000000D+03  0.2152216205D-01
      0.7927000000D+02  0.8353432195D-01
      0.2559000000D+02  0.2395828457D+00
      0.8997000000D+01  0.4428528419D+00
      0.3319000000D+01  0.3517995618D+00
 S   6 1.00       0.000000000000
      0.2808000000D+03 -0.5949224937D-04
      0.7927000000D+02 -0.1148158310D-02
      0.2559000000D+02 -0.1001913745D-01
      0.8997000000D+01 -0.6121949230D-01
      0.3319000000D+01 -0.1732698541D+00
      0.3643000000D+00  0.1072915192D+01
 S   1 1.00       0.000000000000
      0.9059000000D+00  0.1000000000D+01
 S   1 1.00       0.000000000000
      0.1285000000D+00  0.1000000000D+01
 S   1 1.00       0.000000000000
      0.4402000000D-01  0.1000000000D+01
 P   3 1.00       0.000000000000
      0.1871000000D+02  0.3942638716D-01
      0.4133000000D+01  0.2440889849D+00
      0.1200000000D+01  0.8154920089D+00
 P   1 1.00       0.000000000000
      0.3827000000D+00  0.1000000000D+01
 P   1 1.00       0.000000000000
      0.1209000000D+00  0.1000000000D+01
 P   1 1.00       0.000000000000
      0.3569000000D-01  0.1000000000D+01
 D   1 1.00       0.000000000000
      0.1097000000D+01  0.1000000000D+01
 D   1 1.00       0.000000000000
      0.3180000000D+00  0.1000000000D+01
 D   1 1.00       0.000000000000
      0.1000000000D+00  0.1000000000D+01
 F   1 1.00       0.000000000000
      0.7610000000D+00  0.1000000000D+01
 F   1 1.00       0.000000000000
      0.2680000000D+00  0.1000000000D+01
 ****
      7 0
 S   3 1.00       0.000000000000
      0.3387000000D+02  0.2549486323D-01
      0.5095000000D+01  0.1903627659D+00
      0.1159000000D+01  0.8521620222D+00
 S   1 1.00       0.000000000000
      0.3258000000D+00  0.1000000000D+01
 S   1 1.00       0.000000000000
      0.1027000000D+00  0.1000000000D+01
 S   1 1.00       0.000000000000
      0.2526000000D-01  0.1000000000D+01
 P   1 1.00       0.000000000000
      0.1407000000D+01  0.1000000000D+01
 P   1 1.00       0.000000000000
      0.3880000000D+00  0.1000000000D+01
 P   1 1.00       0.000000000000
      0.1020000000D+00  0.1000000000D+01
 D   1 1.00       0.000000000000
      0.1057000000D+01  0.1000000000D+01
 D   1 1.00       0.000000000000
      0.2470000000D+00  0.1000000000D+01
 ****
      8 0
 S   3 1.00       0.000000000000
      0.3387000000D+02  0.2549486323D-01
      0.5095000000D+01  0.1903627659D+00
      0.1159000000D+01  0.8521620222D+00
 S   1 1.00       0.000000000000
      0.3258000000D+00  0.1000000000D+01
 S   1 1.00       0.000000000000
      0.1027000000D+00  0.1000000000D+01
 S   1 1.00       0.000000000000
      0.2526000000D-01  0.1000000000D+01
 P   1 1.00       0.000000000000
      0.1407000000D+01  0.1000000000D+01
 P   1 1.00       0.000000000000
      0.3880000000D+00  0.1000000000D+01
 P   1 1.00       0.000000000000
      0.1020000000D+00  0.1000000000D+01
 D   1 1.00       0.000000000000
      0.1057000000D+01  0.1000000000D+01
 D   1 1.00       0.000000000000
      0.2470000000D+00  0.1000000000D+01
 ****
      9 0
 S   3 1.00       0.000000000000
      0.3387000000D+02  0.2549486323D-01
      0.5095000000D+01  0.1903627659D+00
      0.1159000000D+01  0.8521620222D+00
 S   1 1.00       0.000000000000
      0.3258000000D+00  0.1000000000D+01
 S   1 1.00       0.000000000000
      0.1027000000D+00  0.1000000000D+01
 S   1 1.00       0.000000000000
      0.2526000000D-01  0.1000000000D+01
 P   1 1.00       0.000000000000
      0.1407000000D+01  0.1000000000D+01
 P   1 1.00       0.000000000000
      0.3880000000D+00  0.1000000000D+01
 P   1 1.00       0.000000000000
      0.1020000000D+00  0.1000000000D+01
 D   1 1.00       0.000000000000
      0.1057000000D+01  0.1000000000D+01
 D   1 1.00       0.000000000000
      0.2470000000D+00  0.1000000000D+01
 ****
     10 0
 S   7 1.00       0.000000000000
      0.1533000000D+05  0.5198089434D-03
      0.2299000000D+04  0.4020256215D-02
      0.5224000000D+03  0.2071282673D-01
      0.1473000000D+03  0.8101055358D-01
      0.4755000000D+02  0.2359629851D+00
      0.1676000000D+02  0.4426534455D+00
      0.6207000000D+01  0.3570644227D+00
 S   6 1.00       0.000000000000
      0.5224000000D+03 -0.4421150084D-04
      0.1473000000D+03 -0.1225910413D-02
      0.4755000000D+02 -0.1055177248D-01
      0.1676000000D+02 -0.6744526326D-01
      0.6207000000D+01 -0.1711986073D+00
      0.6882000000D+00  0.1073298561D+01
 S   1 1.00       0.000000000000
      0.1752000000D+01  0.1000000000D+01
 S   1 1.00       0.000000000000
      0.2384000000D+00  0.1000000000D+01
 S   1 1.00       0.000000000000
      0.7376000000D-01  0.1000000000D+01
 P   3 1.00       0.000000000000
      0.3446000000D+02  0.4116348957D-01
      0.7749000000D+01  0.2577628359D+00
      0.2280000000D+01  0.8024192744D+00
 P   1 1.00       0.000000000000
      0.7156000000D+00  0.1000000000D+01
 P   1 1.00       0.000000000000
      0.2140000000D+00  0.1000000000D+01
 P   1 1.00       0.000000000000
      0.5974000000D-01  0.1000000000D+01
 D   1 1.00       0.000000000000
      0.2314000000D+01  0.1000000000D+01
 D   1 1.00       0.000000000000
      0.6450000000D+00  0.1000000000D+01
 D   1 1.00       0.000000000000
      0.2140000000D+00  0.1000000000D+01
 F   1 1.00       0.000000000000
      0.1428000000D+01  0.1000000000D+01
 F   1 1.00       0.000000000000
      0.5000000000D+00  0.1000000000D+01
 ****
     11 0
 S   7 1.00       0.000000000000
      0.1533000000D+05  0.5198089434D-03
      0.2299000000D+04  0.4020256215D-02
      0.5224000000D+03  0.2071282673D-01
      0.1473000000D+03  0.8101055358D-01
      0.4755000000D+02  0.2359629851D+00
      0.1676000000D+02  0.4426534455D+00
      0.6207000000D+01  0.3570644227D+00
 S   6 1.00       0.000000000000
      0.5224000000D+03 -0.4421150084D-04
      0.1473000000D+03 -0.1225910413D-02
      0.4755000000D+02 -0.1055177248D-01
      0.1676000000D+02 -0.6744526326D-01
      0.6207000000D+01 -0.1711986073D+00
      0.6882000000D+00  0.1073298561D+01
 S   1 1.00       0.000000000000
      0.1752000000D+01  0.1000000000D+01
 S   1 1.00       0.000000000000
      0.2384000000D+00  0.1000000000D+01
 S   1 1.00       0.000000000000
      0.7376000000D-01  0.1000000000D+01
 P   3 1.00       0.000000000000
      0.3446000000D+02  0.4116348957D-01
      0.7749000000D+01  0.2577628359D+00
      0.2280000000D+01  0.8024192744D+00
 P   1 1.00       0.000000000000
      0.7156000000D+00  0.1000000000D+01
 P   1 1.00       0.000000000000
      0.2140000000D+00  0.1000000000D+01
 P   1 1.00       0.000000000000
      0.5974000000D-01  0.1000000000D+01
 D   1 1.00       0.000000000000
      0.2314000000D+01  0.1000000000D+01
 D   1 1.00       0.000000000000
      0.6450000000D+00  0.1000000000D+01
 D   1 1.00       0.000000000000
      0.2140000000D+00  0.1000000000D+01
 F   1 1.00       0.000000000000
      0.1428000000D+01  0.1000000000D+01
 F   1 1.00       0.000000000000
      0.5000000000D+00  0.1000000000D+01
 ****
     12 0
 S   7 1.00       0.000000000000
      0.8236000000D+04  0.5419783203D-03
      0.1235000000D+04  0.4192873817D-02
      0.2808000000D+03  0.2152216205D-01
      0.7927000000D+02  0.8353432195D-01
      0.2559000000D+02  0.2395828457D+00
      0.8997000000D+01  0.4428528419D+00
      0.3319000000D+01  0.3517995618D+00
 S   6 1.00       0.000000000000
      0.2808000000D+03 -0.5949224937D-04
      0.7927000000D+02 -0.1148158310D-02
      0.2559000000D+02 -0.1001913745D-01
      0.8997000000D+01 -0.6121949230D-01
      0.3319000000D+01 -0.1732698541D+00
      0.3643000000D+00  0.1072915192D+01
 S   1 1.00       0.000000000000
      0.9059000000D+00  0.1000000000D+01
 S   1 1.00       0.000000000000
      0.1285000000D+00  0.1000000000D+01
 S   1 1.00       0.000000000000
      0.4402000000D-01  0.1000000000D+01
 P   3 1.00       0.000000000000
      0.1871000000D+02  0.3942638716D-01
      0.4133000000D+01  0.2440889849D+00
      0.1200000000D+01  0.8154920089D+00
 P   1 1.00       0.000000000000
      0.3827000000D+00  0.1000000000D+01
 P   1 1.00       0.000000000000
      0.1209000000D+00  0.1000000000D+01
 P   1 1.00       0.000000000000
      0.3569000000D-01  0.1000000000D+01
 D   1 1.00       0.000000000000
      0.1097000000D+01  0.1000000000D+01
 D   1 1.00       0.000000000000
      0.3180000000D+00  0.1000000000D+01
 D   1 1.00       0.000000000000
      0.1000000000D+00  0.1000000000D+01
 F   1 1.00       0.000000000000
      0.7610000000D+00  0.1000000000D+01
 F   1 1.00       0.000000000000
      0.2680000000D+00  0.1000000000D+01
 ****
     13 0
 S   3 1.00       0.000000000000
      0.3387000000D+02  0.2549486323D-01
      0.5095000000D+01  0.1903627659D+00
      0.1159000000D+01  0.8521620222D+00
 S   1 1.00       0.000000000000
      0.3258000000D+00  0.1000000000D+01
 S   1 1.00       0.000000000000
      0.1027000000D+00  0.1000000000D+01
 S   1 1.00       0.000000000000
      0.2526000000D-01  0.1000000000D+01
 P   1 1.00       0.000000000000
      0.1407000000D+01  0.1000000000D+01
 P   1 1.00       0.000000000000
      0.3880000000D+00  0.1000000000D+01
 P   1 1.00       0.000000000000
      0.1020000000D+00  0.1000000000D+01
 D   1 1.00       0.000000000000
      0.1057000000D+01  0.1000000000D+01
 D   1 1.00       0.000000000000
      0.2470000000D+00  0.1000000000D+01
 ****
     14 0
 S   3 1.00       0.000000000000
      0.3387000000D+02  0.2549486323D-01
      0.5095000000D+01  0.1903627659D+00
      0.1159000000D+01  0.8521620222D+00
 S   1 1.00       0.000000000000
      0.3258000000D+00  0.1000000000D+01
 S   1 1.00       0.000000000000
      0.1027000000D+00  0.1000000000D+01
 S   1 1.00       0.000000000000
      0.2526000000D-01  0.1000000000D+01
 P   1 1.00       0.000000000000
      0.1407000000D+01  0.1000000000D+01
 P   1 1.00       0.000000000000
      0.3880000000D+00  0.1000000000D+01
 P   1 1.00       0.000000000000
      0.1020000000D+00  0.1000000000D+01
 D   1 1.00       0.000000000000
      0.1057000000D+01  0.1000000000D+01
 D   1 1.00       0.000000000000
      0.2470000000D+00  0.1000000000D+01
 ****
     15 0
 S   3 1.00       0.000000000000
      0.3387000000D+02  0.2549486323D-01
      0.5095000000D+01  0.1903627659D+00
      0.1159000000D+01  0.8521620222D+00
 S   1 1.00       0.000000000000
      0.3258000000D+00  0.1000000000D+01
 S   1 1.00       0.000000000000
      0.1027000000D+00  0.1000000000D+01
 S   1 1.00       0.000000000000
      0.2526000000D-01  0.1000000000D+01
 P   1 1.00       0.000000000000
      0.1407000000D+01  0.1000000000D+01
 P   1 1.00       0.000000000000
      0.3880000000D+00  0.1000000000D+01
 P   1 1.00       0.000000000000
      0.1020000000D+00  0.1000000000D+01
 D   1 1.00       0.000000000000
      0.1057000000D+01  0.1000000000D+01
 D   1 1.00       0.000000000000
      0.2470000000D+00  0.1000000000D+01
 ****
     16 0
 S   3 1.00       0.000000000000
      0.3387000000D+02  0.2549486323D-01
      0.5095000000D+01  0.1903627659D+00
      0.1159000000D+01  0.8521620222D+00
 S   1 1.00       0.000000000000
      0.3258000000D+00  0.1000000000D+01
 S   1 1.00       0.000000000000
      0.1027000000D+00  0.1000000000D+01
 S   1 1.00       0.000000000000
      0.2526000000D-01  0.1000000000D+01
 P   1 1.00       0.000000000000
      0.1407000000D+01  0.1000000000D+01
 P   1 1.00       0.000000000000
      0.3880000000D+00  0.1000000000D+01
 P   1 1.00       0.000000000000
      0.1020000000D+00  0.1000000000D+01
 D   1 1.00       0.000000000000
      0.1057000000D+01  0.1000000000D+01
 D   1 1.00       0.000000000000
      0.2470000000D+00  0.1000000000D+01
 ****
     17 0
 S   3 1.00       0.000000000000
      0.3387000000D+02  0.2549486323D-01
      0.5095000000D+01  0.1903627659D+00
      0.1159000000D+01  0.8521620222D+00
 S   1 1.00       0.000000000000
      0.3258000000D+00  0.1000000000D+01
 S   1 1.00       0.000000000000
      0.1027000000D+00  0.1000000000D+01
 S   1 1.00       0.000000000000
      0.2526000000D-01  0.1000000000D+01
 P   1 1.00       0.000000000000
      0.1407000000D+01  0.1000000000D+01
 P   1 1.00       0.000000000000
      0.3880000000D+00  0.1000000000D+01
 P   1 1.00       0.000000000000
      0.1020000000D+00  0.1000000000D+01
 D   1 1.00       0.000000000000
      0.1057000000D+01  0.1000000000D+01
 D   1 1.00       0.000000000000
      0.2470000000D+00  0.1000000000D+01
 ****
     18 0
 S   2 1.00       0.000000000000
      0.2231000000D+01 -0.4900589089D+00
      0.4720000000D+00  0.1254268423D+01
 S   1 1.00       0.000000000000
      0.1631000000D+00  0.1000000000D+01
 P   2 1.00       0.000000000000
      0.6296000000D+01 -0.6356409792D-01
      0.6333000000D+00  0.1014135467D+01
 P   1 1.00       0.000000000000
      0.1819000000D+00  0.1000000000D+01
 ****
     19 0
 S   7 1.00       0.000000000000
      0.1533000000D+05  0.5198089434D-03
      0.2299000000D+04  0.4020256215D-02
      0.5224000000D+03  0.2071282673D-01
      0.1473000000D+03  0.8101055358D-01
      0.4755000000D+02  0.2359629851D+00
      0.1676000000D+02  0.4426534455D+00
      0.6207000000D+01  0.3570644227D+00
 S   6 1.00       0.000000000000
      0.5224000000D+03 -0.4421150084D-04
      0.1473000000D+03 -0.1225910413D-02
      0.4755000000D+02 -0.1055177248D-01
      0.1676000000D+02 -0.6744526326D-01
      0.6207000000D+01 -0.1711986073D+00
      0.6882000000D+00  0.1073298561D+01
 S   1 1.00       0.000000000000
      0.1752000000D+01  0.1000000000D+01
 S   1 1.00       0.000000000000
      0.2384000000D+00  0.1000000000D+01
 S   1 1.00       0.000000000000
      0.7376000000D-01  0.1000000000D+01
 P   3 1.00       0.000000000000
      0.3446000000D+02  0.4116348957D-01
      0.7749000000D+01  0.2577628359D+00
      0.2280000000D+01  0.8024192744D+00
 P   1 1.00       0.000000000000
      0.7156000000D+00  0.1000000000D+01
 P   1 1.00       0.000000000000
      0.2140000000D+00  0.1000000000D+01
 P   1 1.00       0.000000000000
      0.5974000000D-01  0.1000000000D+01
 D   1 1.00       0.000000000000
      0.2314000000D+01  0.1000000000D+01
 D   1 1.00       0.000000000000
      0.6450000000D+00  0.1000000000D+01
 D   1 1.00       0.000000000000
      0.2140000000D+00  0.1000000000D+01
 F   1 1.00       0.000000000000
      0.1428000000D+01  0.1000000000D+01
 F   1 1.00       0.000000000000
      0.5000000000D+00  0.1000000000D+01
 ****

 There are   668 symmetry adapted cartesian basis functions of A   symmetry.
 There are   583 symmetry adapted basis functions of A   symmetry.
   583 basis functions,   813 primitive gaussians,   668 cartesian basis functions
    33 alpha electrons       33 beta electrons
       nuclear repulsion energy       417.7327370508 Hartrees.
 NAtoms=   19 NActive=   19 NUniq=   19 SFac= 1.00D+00 NAtFMM=   60 NAOKFM=F Big=F
 Integral buffers will be    131072 words long.
 Raffenetti 2 integral format.
 Two-electron integral symmetry is turned on.
 One-electron integrals computed using PRISM.
 PrsmSu:  requested number of processors reduced to:   3 ShMem   1 Linda.
   1 Symmetry operations used in ECPInt.
 ECPInt:  NShTT=   20301 NPrTT=   50394 LenC2=   20078 LenP2D=   42431.
 LDataN:  DoStor=T MaxTD1= 6 Len=  172
 Number of processors reduced to   7 by ecpmxn.
 NBasis=   583 RedAO= T EigKep=  9.25D-06  NBF=   583
 NBsUse=   583 1.00D-06 EigRej= -1.00D+00 NBFU=   583
 ExpMin= 2.53D-02 ExpMax= 1.53D+04 ExpMxC= 5.22D+02 IAcc=3 IRadAn=         5 AccDes= 0.00D+00
 Harris functional with IExCor=  402 and IRadAn=       5 diagonalized for initial guess.
 HarFok:  IExCor=  402 AccDes= 0.00D+00 IRadAn=         5 IDoV= 1 UseB2=F ITyADJ=14
 ICtDFT=  3500011 ScaDFX=  1.000000  1.000000  1.000000  1.000000
 FoFCou: FMM=F IPFlag=           0 FMFlag=      100000 FMFlg1=           0
         NFxFlg=           0 DoJE=T BraDBF=F KetDBF=T FulRan=T
         wScrn=  0.000000 ICntrl=     500 IOpCl=  0 I1Cent=   200000004 NGrid=           0
         NMat0=    1 NMatS0=      1 NMatT0=    0 NMatD0=    1 NMtDS0=    0 NMtDT0=    0
 Petite list used in FoFCou.
 Requested convergence on RMS density matrix=1.00D-08 within 128 cycles.
 Requested convergence on MAX density matrix=1.00D-06.
 Requested convergence on             energy=1.00D-06.
 No special actions if energy rises.
 SCF Done:  E(RB3LYP) =  -399.776703948     A.U. after   13 cycles
            NFock= 13  Conv=0.47D-08     -V/T= 2.0307
 DoSCS=F DFT=T ScalE2(SS,OS)=  1.000000  1.000000
 Range of M.O.s used for correlation:     1   583
 NBasis=   583 NAE=    33 NBE=    33 NFC=     0 NFV=     0
 NROrb=    583 NOA=    33 NOB=    33 NVA=   550 NVB=   550

 **** Warning!!: The largest alpha MO coefficient is  0.58751526D+02

 PrsmSu:  requested number of processors reduced to:   3 ShMem   1 Linda.
 PrsmSu:  requested number of processors reduced to:   1 ShMem   1 Linda.
   1 Symmetry operations used in ECPInt.
 ECPInt:  NShTT=   20301 NPrTT=   50394 LenC2=   20078 LenP2D=   42431.
 LDataN:  DoStor=T MaxTD1= 7 Len=  274
 Number of processors reduced to   1 by ecpmxn.
 Symmetrizing basis deriv contribution to polar:
 IMax=3 JMax=2 DiffMx= 0.00D+00
 G2DrvN: will do     1 centers at a time, making   20 passes.
 Estimated number of processors is:    6
 Calling FoFCou, ICntrl=  3107 FMM=F I1Cent=   0 AccDes= 0.00D+00.
 CoulSu:  requested number of processors reduced to:   7 ShMem   1 Linda.
 Calling FoFCou, ICntrl=  3107 FMM=F I1Cent=   0 AccDes= 0.00D+00.
 CoulSu:  requested number of processors reduced to:   6 ShMem   1 Linda.
 Calling FoFCou, ICntrl=  3107 FMM=F I1Cent=   0 AccDes= 0.00D+00.
 CoulSu:  requested number of processors reduced to:   6 ShMem   1 Linda.
 Calling FoFCou, ICntrl=  3107 FMM=F I1Cent=   0 AccDes= 0.00D+00.
 CoulSu:  requested number of processors reduced to:   6 ShMem   1 Linda.
 Calling FoFCou, ICntrl=  3107 FMM=F I1Cent=   0 AccDes= 0.00D+00.
 CoulSu:  requested number of processors reduced to:   6 ShMem   1 Linda.
 Calling FoFCou, ICntrl=  3107 FMM=F I1Cent=   0 AccDes= 0.00D+00.
 CoulSu:  requested number of processors reduced to:   6 ShMem   1 Linda.
 Calling FoFCou, ICntrl=  3107 FMM=F I1Cent=   0 AccDes= 0.00D+00.
 CoulSu:  requested number of processors reduced to:   6 ShMem   1 Linda.
 Calling FoFCou, ICntrl=  3107 FMM=F I1Cent=   0 AccDes= 0.00D+00.
 CoulSu:  requested number of processors reduced to:   6 ShMem   1 Linda.
 Calling FoFCou, ICntrl=  3107 FMM=F I1Cent=   0 AccDes= 0.00D+00.
 CoulSu:  requested number of processors reduced to:   6 ShMem   1 Linda.
 Calling FoFCou, ICntrl=  3107 FMM=F I1Cent=   0 AccDes= 0.00D+00.
 CoulSu:  requested number of processors reduced to:   6 ShMem   1 Linda.
 Calling FoFCou, ICntrl=  3107 FMM=F I1Cent=   0 AccDes= 0.00D+00.
 CoulSu:  requested number of processors reduced to:   6 ShMem   1 Linda.
 Calling FoFCou, ICntrl=  3107 FMM=F I1Cent=   0 AccDes= 0.00D+00.
 CoulSu:  requested number of processors reduced to:   6 ShMem   1 Linda.
 Calling FoFCou, ICntrl=  3107 FMM=F I1Cent=   0 AccDes= 0.00D+00.
 CoulSu:  requested number of processors reduced to:   6 ShMem   1 Linda.
 Calling FoFCou, ICntrl=  3107 FMM=F I1Cent=   0 AccDes= 0.00D+00.
 CoulSu:  requested number of processors reduced to:   6 ShMem   1 Linda.
 Calling FoFCou, ICntrl=  3107 FMM=F I1Cent=   0 AccDes= 0.00D+00.
 CoulSu:  requested number of processors reduced to:   6 ShMem   1 Linda.
 Calling FoFCou, ICntrl=  3107 FMM=F I1Cent=   0 AccDes= 0.00D+00.
 CoulSu:  requested number of processors reduced to:   6 ShMem   1 Linda.
 Calling FoFCou, ICntrl=  3107 FMM=F I1Cent=   0 AccDes= 0.00D+00.
 CoulSu:  requested number of processors reduced to:   6 ShMem   1 Linda.
 Calling FoFCou, ICntrl=  3107 FMM=F I1Cent=   0 AccDes= 0.00D+00.
 CoulSu:  requested number of processors reduced to:   6 ShMem   1 Linda.
 Calling FoFCou, ICntrl=  3107 FMM=F I1Cent=   0 AccDes= 0.00D+00.
 CoulSu:  requested number of processors reduced to:   6 ShMem   1 Linda.
 Calling FoFCou, ICntrl=  3107 FMM=F I1Cent=   0 AccDes= 0.00D+00.
 CoulSu:  requested number of processors reduced to:   6 ShMem   1 Linda.
 End of G2Drv F.D. properties file   721 does not exist.
 End of G2Drv F.D. properties file   722 does not exist.
 End of G2Drv F.D. properties file   788 does not exist.
          IDoAtm=1111111111111111111
          Differentiating once with respect to nuclear coordinates.
 PrRfSu:  requested number of processors reduced to:   4 ShMem   1 Linda.
 PrRfSu:  requested number of processors reduced to:   4 ShMem   1 Linda.
 PrRfSu:  requested number of processors reduced to:   4 ShMem   1 Linda.
 PrRfSu:  requested number of processors reduced to:   4 ShMem   1 Linda.
 PrRfSu:  requested number of processors reduced to:   4 ShMem   1 Linda.
 PrRfSu:  requested number of processors reduced to:   4 ShMem   1 Linda.
 PrRfSu:  requested number of processors reduced to:   4 ShMem   1 Linda.
 PrRfSu:  requested number of processors reduced to:   4 ShMem   1 Linda.
          There are    60 degrees of freedom in the 1st order CPHF.  IDoFFX=6 NUNeed=     0.
     57 vectors produced by pass  0 Test12= 3.02D-14 1.67D-09 XBig12= 2.56D-01 8.85D-02.
 AX will form     7 AO Fock derivatives at one time.
 PrRfSu:  requested number of processors reduced to:   4 ShMem   1 Linda.
 PrRfSu:  requested number of processors reduced to:   4 ShMem   1 Linda.
 PrRfSu:  requested number of processors reduced to:   4 ShMem   1 Linda.
 PrRfSu:  requested number of processors reduced to:   4 ShMem   1 Linda.
 PrRfSu:  requested number of processors reduced to:   4 ShMem   1 Linda.
 PrRfSu:  requested number of processors reduced to:   4 ShMem   1 Linda.
 PrRfSu:  requested number of processors reduced to:   4 ShMem   1 Linda.
 PrRfSu:  requested number of processors reduced to:   4 ShMem   1 Linda.
     57 vectors produced by pass  1 Test12= 3.02D-14 1.67D-09 XBig12= 7.29D-02 3.76D-02.
 PrRfSu:  requested number of processors reduced to:   4 ShMem   1 Linda.
 PrRfSu:  requested number of processors reduced to:   4 ShMem   1 Linda.
 PrRfSu:  requested number of processors reduced to:   4 ShMem   1 Linda.
 PrRfSu:  requested number of processors reduced to:   4 ShMem   1 Linda.
 PrRfSu:  requested number of processors reduced to:   4 ShMem   1 Linda.
 PrRfSu:  requested number of processors reduced to:   4 ShMem   1 Linda.
 PrRfSu:  requested number of processors reduced to:   4 ShMem   1 Linda.
 PrRfSu:  requested number of processors reduced to:   4 ShMem   1 Linda.
     54 vectors produced by pass  2 Test12= 3.02D-14 1.67D-09 XBig12= 9.72D-04 3.05D-03.
 PrRfSu:  requested number of processors reduced to:   4 ShMem   1 Linda.
 PrRfSu:  requested number of processors reduced to:   4 ShMem   1 Linda.
 PrRfSu:  requested number of processors reduced to:   4 ShMem   1 Linda.
 PrRfSu:  requested number of processors reduced to:   4 ShMem   1 Linda.
 PrRfSu:  requested number of processors reduced to:   4 ShMem   1 Linda.
 PrRfSu:  requested number of processors reduced to:   4 ShMem   1 Linda.
 PrRfSu:  requested number of processors reduced to:   4 ShMem   1 Linda.
     54 vectors produced by pass  3 Test12= 3.02D-14 1.67D-09 XBig12= 4.38D-06 1.82D-04.
 PrRfSu:  requested number of processors reduced to:   4 ShMem   1 Linda.
 PrRfSu:  requested number of processors reduced to:   4 ShMem   1 Linda.
 PrRfSu:  requested number of processors reduced to:   4 ShMem   1 Linda.
 PrRfSu:  requested number of processors reduced to:   4 ShMem   1 Linda.
 PrRfSu:  requested number of processors reduced to:   4 ShMem   1 Linda.
 PrRfSu:  requested number of processors reduced to:   4 ShMem   1 Linda.
 PrRfSu:  requested number of processors reduced to:   4 ShMem   1 Linda.
     54 vectors produced by pass  4 Test12= 3.02D-14 1.67D-09 XBig12= 1.62D-08 1.55D-05.
 PrRfSu:  requested number of processors reduced to:   4 ShMem   1 Linda.
 PrRfSu:  requested number of processors reduced to:   4 ShMem   1 Linda.
 PrRfSu:  requested number of processors reduced to:   4 ShMem   1 Linda.
 PrRfSu:  requested number of processors reduced to:   4 ShMem   1 Linda.
 PrRfSu:  requested number of processors reduced to:   4 ShMem   1 Linda.
 PrRfSu:  requested number of processors reduced to:   4 ShMem   1 Linda.
 PrRfSu:  requested number of processors reduced to:   4 ShMem   1 Linda.
     54 vectors produced by pass  5 Test12= 3.02D-14 1.67D-09 XBig12= 2.92D-11 4.93D-07.
 PrRfSu:  requested number of processors reduced to:   4 ShMem   1 Linda.
 PrRfSu:  requested number of processors reduced to:   4 ShMem   1 Linda.
 PrRfSu:  requested number of processors reduced to:   4 ShMem   1 Linda.
 PrRfSu:  requested number of processors reduced to:   4 ShMem   1 Linda.
 PrRfSu:  requested number of processors reduced to:   4 ShMem   1 Linda.
 PrRfSu:  requested number of processors reduced to:   4 ShMem   1 Linda.
 PrRfSu:  requested number of processors reduced to:   4 ShMem   1 Linda.
     38 vectors produced by pass  6 Test12= 3.02D-14 1.67D-09 XBig12= 1.42D-13 2.66D-08.
 PrRfSu:  requested number of processors reduced to:   4 ShMem   1 Linda.
 PrRfSu:  requested number of processors reduced to:   4 ShMem   1 Linda.
 PrRfSu:  requested number of processors reduced to:   4 ShMem   1 Linda.
 PrRfSu:  requested number of processors reduced to:   4 ShMem   1 Linda.
 PrRfSu:  requested number of processors reduced to:   4 ShMem   1 Linda.
      6 vectors produced by pass  7 Test12= 3.02D-14 1.67D-09 XBig12= 4.64D-15 5.27D-09.
 PrRfSu:  requested number of processors reduced to:   5 ShMem   1 Linda.
 InvSVY:  IOpt=1 It=  1 EMax= 5.55D-16
 Solved reduced A of dimension   374 with    60 vectors.
 End of Minotr F.D. properties file   721 does not exist.
 End of Minotr F.D. properties file   722 does not exist.
 End of Minotr F.D. properties file   788 does not exist.

 **********************************************************************

            Population analysis using the SCF density.

 **********************************************************************

 Orbital symmetries:
       Occupied  (A) (A) (A) (A) (A) (A) (A) (A) (A) (A) (A) (A)
                 (A) (A) (A) (A) (A) (A) (A) (A) (A) (A) (A) (A)
                 (A) (A) (A) (A) (A) (A) (A) (A) (A)
       Virtual   (A) (A) (A) (A) (A) (A) (A) (A) (A) (A) (A) (A)
                 (A) (A) (A) (A) (A) (A) (A) (A) (A) (A) (A) (A)
                 (A) (A) (A) (A) (A) (A) (A) (A) (A) (A) (A) (A)
                 (A) (A) (A) (A) (A) (A) (A) (A) (A) (A) (A) (A)
                 (A) (A) (A) (A) (A) (A) (A) (A) (A) (A) (A) (A)
                 (A) (A) (A) (A) (A) (A) (A) (A) (A) (A) (A) (A)
                 (A) (A) (A) (A) (A) (A) (A) (A) (A) (A) (A) (A)
                 (A) (A) (A) (A) (A) (A) (A) (A) (A) (A) (A) (A)
                 (A) (A) (A) (A) (A) (A) (A) (A) (A) (A) (A) (A)
                 (A) (A) (A) (A) (A) (A) (A) (A) (A) (A) (A) (A)
                 (A) (A) (A) (A) (A) (A) (A) (A) (A) (A) (A) (A)
                 (A) (A) (A) (A) (A) (A) (A) (A) (A) (A) (A) (A)
                 (A) (A) (A) (A) (A) (A) (A) (A) (A) (A) (A) (A)
                 (A) (A) (A) (A) (A) (A) (A) (A) (A) (A) (A) (A)
                 (A) (A) (A) (A) (A) (A) (A) (A) (A) (A) (A) (A)
                 (A) (A) (A) (A) (A) (A) (A) (A) (A) (A) (A) (A)
                 (A) (A) (A) (A) (A) (A) (A) (A) (A) (A) (A) (A)
                 (A) (A) (A) (A) (A) (A) (A) (A) (A) (A) (A) (A)
                 (A) (A) (A) (A) (A) (A) (A) (A) (A) (A) (A) (A)
                 (A) (A) (A) (A) (A) (A) (A) (A) (A) (A) (A) (A)
                 (A) (A) (A) (A) (A) (A) (A) (A) (A) (A) (A) (A)
                 (A) (A) (A) (A) (A) (A) (A) (A) (A) (A) (A) (A)
                 (A) (A) (A) (A) (A) (A) (A) (A) (A) (A) (A) (A)
                 (A) (A) (A) (A) (A) (A) (A) (A) (A) (A) (A) (A)
                 (A) (A) (A) (A) (A) (A) (A) (A) (A) (A) (A) (A)
                 (A) (A) (A) (A) (A) (A) (A) (A) (A) (A) (A) (A)
                 (A) (A) (A) (A) (A) (A) (A) (A) (A) (A) (A) (A)
                 (A) (A) (A) (A) (A) (A) (A) (A) (A) (A) (A) (A)
                 (A) (A) (A) (A) (A) (A) (A) (A) (A) (A) (A) (A)
                 (A) (A) (A) (A) (A) (A) (A) (A) (A) (A) (A) (A)
                 (A) (A) (A) (A) (A) (A) (A) (A) (A) (A) (A) (A)
                 (A) (A) (A) (A) (A) (A) (A) (A) (A) (A) (A) (A)
                 (A) (A) (A) (A) (A) (A) (A) (A) (A) (A) (A) (A)
                 (A) (A) (A) (A) (A) (A) (A) (A) (A) (A) (A) (A)
                 (A) (A) (A) (A) (A) (A) (A) (A) (A) (A) (A) (A)
                 (A) (A) (A) (A) (A) (A) (A) (A) (A) (A) (A) (A)
                 (A) (A) (A) (A) (A) (A) (A) (A) (A) (A) (A) (A)
                 (A) (A) (A) (A) (A) (A) (A) (A) (A) (A) (A) (A)
                 (A) (A) (A) (A) (A) (A) (A) (A) (A) (A) (A) (A)
                 (A) (A) (A) (A) (A) (A) (A) (A) (A) (A) (A) (A)
                 (A) (A) (A) (A) (A) (A) (A) (A) (A) (A) (A) (A)
                 (A) (A) (A) (A) (A) (A) (A) (A) (A) (A) (A) (A)
                 (A) (A) (A) (A) (A) (A) (A) (A) (A) (A) (A) (A)
                 (A) (A) (A) (A) (A) (A) (A) (A) (A) (A) (A) (A)
                 (A) (A) (A) (A) (A) (A) (A) (A) (A) (A) (A) (A)
                 (A) (A) (A) (A) (A) (A) (A) (A) (A) (A)
 The electronic state is 1-A.
 Alpha  occ. eigenvalues --  -19.17892 -19.17403 -19.09383 -10.32733 -10.24601
 Alpha  occ. eigenvalues --  -10.24126 -10.18497  -1.08332  -1.04047  -1.00109
 Alpha  occ. eigenvalues --   -0.80850  -0.74278  -0.71532  -0.70278  -0.57425
 Alpha  occ. eigenvalues --   -0.54932  -0.53810  -0.49822  -0.48221  -0.47097
 Alpha  occ. eigenvalues --   -0.46131  -0.44807  -0.43662  -0.41885  -0.40722
 Alpha  occ. eigenvalues --   -0.38715  -0.37412  -0.35997  -0.31021  -0.29780
 Alpha  occ. eigenvalues --   -0.28849  -0.26965  -0.26430
 Alpha virt. eigenvalues --   -0.02223  -0.00532   0.00118   0.00426   0.01714
 Alpha virt. eigenvalues --    0.01959   0.02335   0.02882   0.03677   0.04094
 Alpha virt. eigenvalues --    0.04943   0.05199   0.05296   0.06167   0.06524
 Alpha virt. eigenvalues --    0.06612   0.07690   0.07921   0.08345   0.08607
 Alpha virt. eigenvalues --    0.09289   0.09411   0.09849   0.10491   0.10581
 Alpha virt. eigenvalues --    0.10792   0.11009   0.11714   0.11978   0.13026
 Alpha virt. eigenvalues --    0.13471   0.14110   0.14951   0.15046   0.15139
 Alpha virt. eigenvalues --    0.15898   0.16752   0.17231   0.17822   0.18516
 Alpha virt. eigenvalues --    0.19010   0.19661   0.20648   0.21440   0.21822
 Alpha virt. eigenvalues --    0.21987   0.22844   0.23806   0.24019   0.24274
 Alpha virt. eigenvalues --    0.25014   0.25213   0.25647   0.26181   0.26683
 Alpha virt. eigenvalues --    0.26925   0.27555   0.27873   0.28911   0.29255
 Alpha virt. eigenvalues --    0.29544   0.30011   0.30436   0.30997   0.31207
 Alpha virt. eigenvalues --    0.31626   0.32466   0.33240   0.33476   0.33804
 Alpha virt. eigenvalues --    0.34237   0.35099   0.35309   0.35577   0.35986
 Alpha virt. eigenvalues --    0.36366   0.36656   0.37116   0.37473   0.38980
 Alpha virt. eigenvalues --    0.39346   0.39734   0.40153   0.40820   0.40991
 Alpha virt. eigenvalues --    0.41414   0.42266   0.42724   0.43186   0.44252
 Alpha virt. eigenvalues --    0.44475   0.45034   0.45548   0.46253   0.46677
 Alpha virt. eigenvalues --    0.46982   0.47993   0.48393   0.49359   0.50030
 Alpha virt. eigenvalues --    0.51052   0.52247   0.52480   0.53430   0.53683
 Alpha virt. eigenvalues --    0.55020   0.55837   0.56177   0.56656   0.58362
 Alpha virt. eigenvalues --    0.59134   0.60024   0.61157   0.61599   0.62366
 Alpha virt. eigenvalues --    0.63187   0.64360   0.65122   0.65405   0.66679
 Alpha virt. eigenvalues --    0.66979   0.67348   0.67883   0.69018   0.69394
 Alpha virt. eigenvalues --    0.70164   0.70915   0.72574   0.73117   0.73762
 Alpha virt. eigenvalues --    0.74107   0.74736   0.75236   0.75729   0.77118
 Alpha virt. eigenvalues --    0.77475   0.78193   0.79050   0.79566   0.79735
 Alpha virt. eigenvalues --    0.79972   0.80831   0.81634   0.82002   0.82576
 Alpha virt. eigenvalues --    0.83450   0.83952   0.84297   0.85313   0.86138
 Alpha virt. eigenvalues --    0.86425   0.86908   0.87957   0.88431   0.89507
 Alpha virt. eigenvalues --    0.90267   0.91455   0.92485   0.92794   0.93469
 Alpha virt. eigenvalues --    0.94107   0.94518   0.95647   0.96365   0.97405
 Alpha virt. eigenvalues --    0.97927   0.98661   0.99439   0.99819   1.00231
 Alpha virt. eigenvalues --    1.00903   1.01681   1.02005   1.02955   1.03218
 Alpha virt. eigenvalues --    1.04184   1.04860   1.05604   1.05872   1.06561
 Alpha virt. eigenvalues --    1.07057   1.08331   1.08937   1.10506   1.10727
 Alpha virt. eigenvalues --    1.12176   1.12940   1.13025   1.13785   1.14850
 Alpha virt. eigenvalues --    1.15595   1.16136   1.17460   1.19270   1.20339
 Alpha virt. eigenvalues --    1.20732   1.20821   1.22757   1.23741   1.24499
 Alpha virt. eigenvalues --    1.25124   1.25861   1.26192   1.27550   1.28403
 Alpha virt. eigenvalues --    1.29662   1.30093   1.31271   1.32022   1.32084
 Alpha virt. eigenvalues --    1.32565   1.34133   1.34618   1.36348   1.37177
 Alpha virt. eigenvalues --    1.38711   1.39499   1.39967   1.41123   1.41880
 Alpha virt. eigenvalues --    1.42621   1.43435   1.45112   1.45361   1.45878
 Alpha virt. eigenvalues --    1.46703   1.47476   1.48073   1.49072   1.49488
 Alpha virt. eigenvalues --    1.50302   1.50860   1.52316   1.52980   1.54269
 Alpha virt. eigenvalues --    1.55574   1.55642   1.56262   1.57069   1.57907
 Alpha virt. eigenvalues --    1.58206   1.58705   1.59625   1.59952   1.60255
 Alpha virt. eigenvalues --    1.62120   1.62325   1.63641   1.65001   1.65610
 Alpha virt. eigenvalues --    1.66668   1.68028   1.68940   1.70234   1.71126
 Alpha virt. eigenvalues --    1.71927   1.72617   1.73837   1.74480   1.75431
 Alpha virt. eigenvalues --    1.76734   1.78121   1.78631   1.79744   1.80680
 Alpha virt. eigenvalues --    1.81875   1.83700   1.84739   1.86790   1.88387
 Alpha virt. eigenvalues --    1.88756   1.89882   1.90605   1.91915   1.93161
 Alpha virt. eigenvalues --    1.93267   1.95914   1.96290   1.98600   1.99808
 Alpha virt. eigenvalues --    1.99937   2.01041   2.01524   2.02650   2.03373
 Alpha virt. eigenvalues --    2.04091   2.06244   2.06809   2.08847   2.09682
 Alpha virt. eigenvalues --    2.11140   2.12386   2.13698   2.17460   2.19906
 Alpha virt. eigenvalues --    2.20577   2.25291   2.28010   2.30432   2.32304
 Alpha virt. eigenvalues --    2.34312   2.35608   2.37849   2.40808   2.42075
 Alpha virt. eigenvalues --    2.44578   2.45039   2.46491   2.48891   2.50330
 Alpha virt. eigenvalues --    2.51149   2.54118   2.57052   2.58985   2.61892
 Alpha virt. eigenvalues --    2.63177   2.64554   2.66191   2.67523   2.69916
 Alpha virt. eigenvalues --    2.71203   2.73226   2.74623   2.76700   2.78671
 Alpha virt. eigenvalues --    2.79624   2.81876   2.84057   2.86658   2.88573
 Alpha virt. eigenvalues --    2.90735   2.90935   2.92652   2.95637   2.98259
 Alpha virt. eigenvalues --    2.99612   3.03054   3.04147   3.08441   3.09579
 Alpha virt. eigenvalues --    3.13047   3.14537   3.15511   3.20279   3.22227
 Alpha virt. eigenvalues --    3.23176   3.23858   3.27980   3.28505   3.28728
 Alpha virt. eigenvalues --    3.30041   3.32072   3.32854   3.34650   3.35464
 Alpha virt. eigenvalues --    3.36006   3.36790   3.38029   3.38239   3.40837
 Alpha virt. eigenvalues --    3.41787   3.42985   3.44846   3.46117   3.47501
 Alpha virt. eigenvalues --    3.50444   3.51890   3.52661   3.53328   3.56054
 Alpha virt. eigenvalues --    3.57123   3.57480   3.57648   3.59343   3.61409
 Alpha virt. eigenvalues --    3.62234   3.63658   3.64633   3.66291   3.67137
 Alpha virt. eigenvalues --    3.70179   3.71522   3.72901   3.73469   3.75263
 Alpha virt. eigenvalues --    3.76313   3.77929   3.79696   3.80538   3.83937
 Alpha virt. eigenvalues --    3.85365   3.86959   3.87392   3.88003   3.89652
 Alpha virt. eigenvalues --    3.90668   3.92427   3.92862   3.94258   3.94966
 Alpha virt. eigenvalues --    3.96918   3.97294   3.99104   4.00072   4.03577
 Alpha virt. eigenvalues --    4.05664   4.06170   4.07239   4.08040   4.11330
 Alpha virt. eigenvalues --    4.13158   4.15520   4.16440   4.18907   4.20742
 Alpha virt. eigenvalues --    4.20899   4.21710   4.23880   4.27385   4.28432
 Alpha virt. eigenvalues --    4.29059   4.32370   4.33230   4.35285   4.38281
 Alpha virt. eigenvalues --    4.39649   4.40774   4.42987   4.43731   4.45825
 Alpha virt. eigenvalues --    4.47190   4.47366   4.49837   4.50077   4.50700
 Alpha virt. eigenvalues --    4.51391   4.52862   4.55204   4.55978   4.57282
 Alpha virt. eigenvalues --    4.59927   4.61393   4.63270   4.66327   4.69543
 Alpha virt. eigenvalues --    4.70894   4.72566   4.74277   4.75341   4.77052
 Alpha virt. eigenvalues --    4.77940   4.81796   4.82228   4.83763   4.85088
 Alpha virt. eigenvalues --    4.87461   4.88085   4.90307   4.93241   4.94115
 Alpha virt. eigenvalues --    4.97354   5.00467   5.01594   5.03784   5.06494
 Alpha virt. eigenvalues --    5.07429   5.09538   5.11737   5.13921   5.17832
 Alpha virt. eigenvalues --    5.18629   5.18952   5.23467   5.24573   5.26252
 Alpha virt. eigenvalues --    5.29186   5.32443   5.33608   5.38001   5.38217
 Alpha virt. eigenvalues --    5.40871   5.42250   5.48506   5.52795   5.56584
 Alpha virt. eigenvalues --    5.61880   5.64553   5.64887   5.67667   5.69288
 Alpha virt. eigenvalues --    5.69714   5.74649   5.76589   5.79688   5.79916
 Alpha virt. eigenvalues --    5.86058   5.95716   6.03170   6.12653   6.23760
 Alpha virt. eigenvalues --    6.30875   6.34626   6.35451   6.39576   6.40221
 Alpha virt. eigenvalues --    6.45734   6.52892   6.54188   6.61343   6.63717
 Alpha virt. eigenvalues --    6.65538   6.68169   6.69383   6.75070   6.75594
 Alpha virt. eigenvalues --    6.78706   6.81039   6.82173   6.86044   6.88525
 Alpha virt. eigenvalues --    6.93120   6.96151   6.99782   7.02962   7.06763
 Alpha virt. eigenvalues --    7.14135   7.16256   7.19365   7.21725   7.26435
 Alpha virt. eigenvalues --    7.27781   7.38452   7.42690   7.48416   7.56591
 Alpha virt. eigenvalues --    7.61773   7.71183   7.78258   7.82093   7.93386
 Alpha virt. eigenvalues --    8.11793   8.31684  14.87430  15.13836  15.63594
 Alpha virt. eigenvalues --   15.86598  17.13878  17.60081  17.63617  25.33067
          Condensed to atoms (all electrons):
               1          2          3          4          5          6
     1  C    7.674144  -0.059322  -0.017509  -0.029425   0.062074  -2.423027
     2  C   -0.059322   5.635738   0.314818   0.266251   0.411439  -0.057660
     3  H   -0.017509   0.314818   0.568870  -0.040773   0.018582   0.053899
     4  H   -0.029425   0.266251  -0.040773   0.461865  -0.051909   0.027655
     5  H    0.062074   0.411439   0.018582  -0.051909   0.448538  -0.031818
     6  C   -2.423027  -0.057660   0.053899   0.027655  -0.031818   8.214120
     7  H    0.019205   0.003611   0.000790   0.002190  -0.000854   0.361939
     8  H   -0.075662   0.002695   0.006429  -0.000493  -0.011106   0.263457
     9  H    0.033878   0.003564   0.006644  -0.011996   0.004721   0.313684
    10  O    0.137194   0.094336  -0.170331   0.033975  -0.064389  -0.033072
    11  O   -0.046245   0.008679  -0.004772  -0.001138   0.008631   0.046378
    12  C   -0.012326  -0.019964   0.007642   0.011220  -0.005909   0.032198
    13  H    0.005383  -0.002061   0.001356   0.001725  -0.000334   0.001306
    14  H    0.016832  -0.006020   0.003586   0.000682  -0.002111   0.009800
    15  H   -0.010123   0.006824   0.002095  -0.008332   0.003081   0.005412
    16  H    0.034937   0.027904  -0.003656  -0.004788   0.006851  -0.049122
    17  H   -0.058521  -0.056600   0.024942   0.012660  -0.006828   0.002993
    18  Cl   0.565226  -0.001138   0.005890  -0.002505   0.004400  -0.200359
    19  O   -0.079716  -0.004572   0.011029   0.016139  -0.013804   0.139524
               7          8          9         10         11         12
     1  C    0.019205  -0.075662   0.033878   0.137194  -0.046245  -0.012326
     2  C    0.003611   0.002695   0.003564   0.094336   0.008679  -0.019964
     3  H    0.000790   0.006429   0.006644  -0.170331  -0.004772   0.007642
     4  H    0.002190  -0.000493  -0.011996   0.033975  -0.001138   0.011220
     5  H   -0.000854  -0.011106   0.004721  -0.064389   0.008631  -0.005909
     6  C    0.361939   0.263457   0.313684  -0.033072   0.046378   0.032198
     7  H    0.467996   0.006618  -0.059217  -0.008931   0.000905   0.000162
     8  H    0.006618   0.541836   0.002460  -0.043462   0.002238   0.001046
     9  H   -0.059217   0.002460   0.531702  -0.012724   0.000177  -0.001244
    10  O   -0.008931  -0.043462  -0.012724   8.747786  -0.230222  -0.032586
    11  O    0.000905   0.002238   0.000177  -0.230222   8.574295  -0.013434
    12  C    0.000162   0.001046  -0.001244  -0.032586  -0.013434   5.365888
    13  H    0.000087   0.000273  -0.000064  -0.016284  -0.006451   0.396297
    14  H    0.000001   0.000592  -0.000025  -0.014116  -0.071284   0.438329
    15  H    0.000009   0.000166   0.000760  -0.008523   0.017065   0.334405
    16  H   -0.000369  -0.001385   0.001376   0.096857   0.050889  -0.000254
    17  H    0.001295   0.005593  -0.001742   0.061244   0.076754   0.019421
    18  Cl   0.004821   0.011108   0.003808  -0.155005   0.027939   0.014110
    19  O   -0.026116   0.017191   0.005903  -0.247893  -0.079648   0.030113
              13         14         15         16         17         18
     1  C    0.005383   0.016832  -0.010123   0.034937  -0.058521   0.565226
     2  C   -0.002061  -0.006020   0.006824   0.027904  -0.056600  -0.001138
     3  H    0.001356   0.003586   0.002095  -0.003656   0.024942   0.005890
     4  H    0.001725   0.000682  -0.008332  -0.004788   0.012660  -0.002505
     5  H   -0.000334  -0.002111   0.003081   0.006851  -0.006828   0.004400
     6  C    0.001306   0.009800   0.005412  -0.049122   0.002993  -0.200359
     7  H    0.000087   0.000001   0.000009  -0.000369   0.001295   0.004821
     8  H    0.000273   0.000592   0.000166  -0.001385   0.005593   0.011108
     9  H   -0.000064  -0.000025   0.000760   0.001376  -0.001742   0.003808
    10  O   -0.016284  -0.014116  -0.008523   0.096857   0.061244  -0.155005
    11  O   -0.006451  -0.071284   0.017065   0.050889   0.076754   0.027939
    12  C    0.396297   0.438329   0.334405  -0.000254   0.019421   0.014110
    13  H    0.352327   0.009646  -0.000099  -0.008071  -0.005803   0.000122
    14  H    0.009646   0.420047  -0.025798  -0.005692   0.000355   0.003791
    15  H   -0.000099  -0.025798   0.360000   0.008700  -0.002440   0.001281
    16  H   -0.008071  -0.005692   0.008700   0.643146  -0.046290  -0.019995
    17  H   -0.005803   0.000355  -0.002440  -0.046290   0.663702  -0.012600
    18  Cl   0.000122   0.003791   0.001281  -0.019995  -0.012600   6.565163
    19  O    0.002467   0.002495   0.001418   0.043505   0.038507  -0.053314
              19
     1  C   -0.079716
     2  C   -0.004572
     3  H    0.011029
     4  H    0.016139
     5  H   -0.013804
     6  C    0.139524
     7  H   -0.026116
     8  H    0.017191
     9  H    0.005903
    10  O   -0.247893
    11  O   -0.079648
    12  C    0.030113
    13  H    0.002467
    14  H    0.002495
    15  H    0.001418
    16  H    0.043505
    17  H    0.038507
    18  Cl  -0.053314
    19  O    9.124277
 Mulliken charges:
               1
     1  C    0.263001
     2  C   -0.568523
     3  H    0.210470
     4  H    0.316997
     5  H    0.220746
     6  C   -0.677308
     7  H    0.225858
     8  H    0.270409
     9  H    0.178337
    10  O   -0.133852
    11  O   -0.360756
    12  C   -0.565113
    13  H    0.268177
    14  H    0.218891
    15  H    0.314100
    16  H    0.225457
    17  H    0.283357
    18  Cl   0.237255
    19  O   -0.927503
 Sum of Mulliken charges =   0.00000
 Mulliken charges with hydrogens summed into heavy atoms:
               1
     1  C    0.263001
     2  C    0.179690
     6  C   -0.002704
    10  O   -0.133852
    11  O    0.148058
    12  C    0.236054
    18  Cl   0.237255
    19  O   -0.927503
 APT charges:
               1
     1  C   -0.153624
     2  C   -1.564065
     3  H    0.653770
     4  H    0.416914
     5  H    0.624687
     6  C   -1.444361
     7  H    0.609697
     8  H    0.439162
     9  H    0.639976
    10  O   -0.081644
    11  O   -0.304130
    12  C   -1.627171
    13  H    0.663716
    14  H    0.818599
    15  H    0.319935
    16  H    0.337462
    17  H    0.355996
    18  Cl   0.100127
    19  O   -0.805045
 Sum of APT charges =   0.00000
 APT charges with hydrogens summed into heavy atoms:
               1
     1  C   -0.153624
     2  C    0.131306
     6  C    0.244473
    10  O   -0.081644
    11  O    0.389328
    12  C    0.175079
    18  Cl   0.100127
    19  O   -0.805045
 Electronic spatial extent (au):  <R**2>=           1190.5965
 Charge=              0.0000 electrons
 Dipole moment (field-independent basis, Debye):
    X=             -2.8878    Y=              3.8305    Z=             -0.3251  Tot=              4.8081
 Quadrupole moment (field-independent basis, Debye-Ang):
   XX=            -47.0564   YY=            -55.9194   ZZ=            -60.7862
   XY=              2.9345   XZ=              1.1978   YZ=             -2.3307
 Traceless Quadrupole moment (field-independent basis, Debye-Ang):
   XX=              7.5309   YY=             -1.3320   ZZ=             -6.1989
   XY=              2.9345   XZ=              1.1978   YZ=             -2.3307
 Octapole moment (field-independent basis, Debye-Ang**2):
  XXX=            -22.5390  YYY=              4.7031  ZZZ=             -8.6994  XYY=             -2.8169
  XXY=              2.7065  XXZ=              5.7443  XZZ=             -4.8000  YZZ=             -1.4834
  YYZ=             -0.6279  XYZ=              3.1307
 Hexadecapole moment (field-independent basis, Debye-Ang**3):
 XXXX=           -903.1270 YYYY=           -516.8755 ZZZZ=           -245.3096 XXXY=             16.5791
 XXXZ=              1.6406 YYYX=             -1.5371 YYYZ=             -2.9837 ZZZX=              0.4611
 ZZZY=             -0.8286 XXYY=           -254.5324 XXZZ=           -189.9389 YYZZ=           -120.6215
 XXYZ=             -8.7524 YYXZ=             -5.3513 ZZXY=              0.6815
 N-N= 4.177327370508D+02 E-N=-1.766473772306D+03  KE= 3.878538458092D+02
  Exact polarizability:   0.000   0.000   0.000   0.000   0.000   0.000
 Approx polarizability: 121.924  -3.274 126.420  -4.306   6.573 117.590
 PrsmSu:  requested number of processors reduced to:   4 ShMem   1 Linda.
 PrsmSu:  requested number of processors reduced to:   4 ShMem   1 Linda.
   1 Symmetry operations used in ECPInt.
 ECPInt:  NShTT=   20301 NPrTT=   50394 LenC2=   20078 LenP2D=   42431.
 LDataN:  DoStor=T MaxTD1= 8 Len=  415
 Calling FoFJK, ICntrl=    100147 FMM=F ISym2X=0 I1Cent= 0 IOpClX= 0 NMat=1 NMatS=1 NMatT=0.
 CoulSu:  requested number of processors reduced to:   4 ShMem   1 Linda.
 ***** Axes restored to original set *****
 -------------------------------------------------------------------
 Center     Atomic                   Forces (Hartrees/Bohr)
 Number     Number              X              Y              Z
 -------------------------------------------------------------------
      1        6          -0.036232649   -0.005075493    0.004089127
      2        6           0.008178793   -0.007311341   -0.004396425
      3        1           0.002390132    0.002934710    0.004695168
      4        1           0.000114440    0.001338418   -0.003609814
      5        1          -0.006819768    0.001410903    0.001571947
      6        6           0.018761844    0.010090837    0.004711498
      7        1          -0.009676710    0.002721004   -0.004199185
      8        1          -0.004951798   -0.003293357    0.005808384
      9        1          -0.002322396   -0.005132658   -0.002938287
     10        8          -0.021219254    0.011222965   -0.018237503
     11        8           0.011322375    0.012356071    0.016048934
     12        6           0.003183310   -0.012689807   -0.004957302
     13        1          -0.001313845    0.001879699    0.007354375
     14        1          -0.000877125    0.007176190   -0.003048740
     15        1          -0.002027439   -0.002058158   -0.001379814
     16        1          -0.005897241    0.016364870   -0.037606748
     17        1           0.014735776   -0.009151261    0.021119334
     18       17           0.015098028   -0.021138548   -0.007842589
     19        8           0.017553526   -0.001645044    0.022817640
 -------------------------------------------------------------------
 Cartesian Forces:  Max     0.037606748 RMS     0.011925951
 FormGI is forming the generalized inverse of G from B-inverse, IUseBI=4.

 GradGradGradGradGradGradGradGradGradGradGradGradGradGradGradGradGradGrad
 Berny optimization.
 Internal  Forces:  Max     0.025126904 RMS     0.006982828
 Search for a saddle point.
 Step number   1 out of a maximum of   99
[...]
 00017488,0.00285545,-0.07803386,0.00987028,0.07204825,0.00933196,-0.00
 462111,-0.02180845,0.07686739,-0.00030756,0.00230260,-0.00609628,0.009
 98781,-0.05543130,-0.03161073,-0.00309600,0.00251184,0.00492297,-0.017
 41637,0.06855608,-0.00232029,0.00186605,-0.00248734,0.07445650,-0.0375
 6808,-0.27237209,0.00722016,-0.00211352,-0.01778431,-0.08258403,0.0475
 9841,0.29167649,-0.00001120,0.00048232,-0.00075649,-0.23195388,-0.1178
 3738,0.04789213,-0.01781642,-0.01108889,0.00581028,-0.00677587,-0.0040
 5005,0.00082246,0.24331889,-0.00380363,0.00104133,-0.00288652,-0.10939
 706,-0.11550895,0.02981169,0.00442898,0.00536044,-0.00209393,0.0037227
 7,0.00526422,-0.00001715,0.12402722,0.14225619,0.00161093,0.00091522,-
 0.00023611,0.04807061,0.03024099,-0.06417729,-0.01832868,-0.01188461,0
 .00571003,0.02561262,0.01553307,-0.00500604,-0.05033583,-0.03097168,0.
 06054034,-0.14269663,-0.05735048,-0.01630125,-0.00119532,-0.00134827,-
 0.00137182,0.00003241,-0.00020258,0.00006276,-0.00027726,0.00017690,0.
 00004605,-0.00031937,0.00008386,-0.00019876,0.51086226,-0.06675455,-0.
 11093037,-0.01230150,-0.00015681,0.00332112,0.00074619,0.00008245,-0.0
 0035719,-0.00032382,0.00036320,-0.00032882,-0.00024208,0.00026764,0.00
 001500,0.00008593,-0.04646847,0.53428019,-0.01859135,-0.01126021,-0.07
 269246,-0.00159489,-0.00080370,-0.00135719,-0.00018612,-0.00011487,-0.
 00017222,0.00047245,0.00058707,-0.00005880,-0.00110536,0.00049968,0.00
 043836,-0.03004209,-0.02224550,0.58750079,-0.01866952,0.01519637,-0.01
 598271,0.00040008,-0.00150372,0.00029326,0.00007450,0.00012753,-0.0000
 3444,0.00007832,0.00012865,0.00002090,0.00010890,0.00018946,0.00005711
 ,-0.15404786,0.08651947,-0.10006715,0.16737817,-0.01210852,0.00878822,
 -0.01070192,0.00016629,-0.00155262,0.00032435,0.00020376,0.00040090,0.
 00007369,-0.00019650,0.00008202,0.00013051,0.00039864,0.00031051,-0.00
 024923,0.08992405,-0.11626307,0.08421806,-0.09411737,0.12539506,-0.004
 54847,0.00296433,-0.00502856,0.00040497,-0.00061741,-0.00004138,0.0000
 4988,0.00013646,0.00007866,-0.00020520,0.00001773,0.00010905,0.0002145
 3,-0.00014267,-0.00007243,-0.10066822,0.08195060,-0.13758882,0.1111874
 1,-0.08866213,0.14669194,-0.01087873,-0.00270282,0.02661905,-0.0007338
 0,-0.00011524,0.00030690,0.00011745,0.00012997,-0.00004341,0.00017556,
 -0.00004116,-0.00008530,-0.00020571,0.00052970,-0.00014783,-0.10231038
 ,-0.02901602,0.10379314,0.01129167,0.00420827,-0.01776549,0.11059888,-
 0.00518264,-0.00400523,0.01939602,0.00038942,0.00058037,-0.00040810,-0
 .00017260,-0.00011709,0.00011168,-0.00006470,-0.00002097,0.00007262,0.
 00002651,-0.00019093,0.00017111,-0.02767510,-0.06167024,0.04947652,-0.
 00824960,-0.00401546,0.01294610,0.03260287,0.06309432,-0.00325129,-0.0
 0223277,0.00362451,-0.00008013,0.00032405,-0.00014360,-0.00013785,-0.0
 0011089,0.00006340,-0.00009468,-0.00004977,0.00001461,-0.00010928,-0.0
 0020702,0.00013361,0.10932065,0.05441206,-0.25123801,0.00871217,0.0030
 3386,-0.01459508,-0.11654098,-0.05761326,0.26927174,0.00696507,-0.0219
 1337,-0.01173725,-0.00064872,0.00048965,-0.00157019,-0.00019423,0.0000
 0596,0.00012507,-0.00060307,0.00020011,-0.00004350,-0.00051487,0.00010
 200,-0.00023762,-0.06982463,0.06065349,0.03753050,-0.00542376,0.016145
 36,0.01123742,-0.00439249,0.01220905,0.00458131,0.07309055,0.00766072,
 -0.01792863,-0.00966950,0.00055862,-0.00046876,0.00035745,0.00012545,0
 .00037468,0.00027376,-0.00014593,0.00003286,0.00030128,0.00058304,0.00
 013280,0.00014579,0.05895966,-0.22616032,-0.10351916,0.00384935,-0.012
 78693,-0.00787561,-0.00190649,0.00842585,0.00370626,-0.06692660,0.2474
 8493,0.00190440,-0.00580124,-0.00473668,-0.00050249,-0.00100299,-0.000
 13555,0.00023981,0.00042493,0.00014012,-0.00028656,0.00002903,0.000235
 60,0.00007956,0.00036105,-0.00082429,0.03662577,-0.10403712,-0.1081204
 8,-0.00413808,0.01573020,0.01023919,0.00587491,-0.02264078,-0.01053822
 ,-0.03858366,0.11616836,0.11288703,-0.04657938,-0.05127405,0.03565920,
 -0.08505841,0.01660817,-0.00958765,-0.00357179,0.03224470,0.00533812,-
 0.00070004,0.01460031,0.00150966,0.01396305,-0.02445928,-0.00551819,-0
 .01935230,0.01864134,-0.02402907,-0.00497024,-0.00563432,-0.00222186,0
 .00162452,0.00118477,0.00024090,0.00096402,-0.00026640,-0.00033644,0.1
 8132702,-0.02851707,-0.03887562,-0.02387204,0.01781991,-0.18519016,-0.
 02719503,0.00827988,-0.02416773,-0.00007442,0.00949855,-0.02404380,-0.
 00933606,0.00610718,-0.03872557,-0.00362616,-0.00483570,0.00614572,-0.
 00588040,-0.00200111,-0.00076872,-0.00099986,0.00134267,0.00014174,0.0
 0000512,0.00108525,0.00048906,0.00102042,-0.00644190,0.37995454,0.0193
 5230,-0.05261188,-0.01437084,-0.01175767,-0.01930163,-0.08135009,-0.00
 399221,0.02715452,0.00623663,0.00542086,-0.03286464,0.00376593,-0.0023
 0564,0.00458512,0.00363811,-0.01268141,0.01073247,-0.00977297,-0.00194
 283,-0.00278502,0.00033277,-0.00095384,-0.00038502,0.00080917,0.001122
 69,0.00022385,-0.00001516,-0.00597086,0.01161336,0.16920100,0.01374049
 ,-0.00521064,-0.01862953,-0.00834874,0.00886899,0.00175367,0.00059721,
 -0.00106631,0.00084849,0.00015382,-0.00118127,-0.00143075,0.00066882,-
 0.00357984,-0.00061049,-0.00222227,0.00027654,0.00237681,0.00001053,-0
 .00009992,-0.00011142,-0.00055620,-0.00066533,0.00015281,0.00030301,0.
 00007245,0.00010367,-0.04509028,-0.05153403,0.01928585,0.46735183,0.00
 320116,-0.01076018,0.01198793,-0.00340205,0.00815515,0.00001962,0.0005
 2799,-0.00026732,0.00029707,0.00058969,-0.00082063,-0.00066694,0.00035
 885,-0.00188913,-0.00022347,-0.00073665,0.00153145,-0.00180722,-0.0005
 5347,-0.00039443,-0.00035657,0.00056640,0.00006245,-0.00001897,0.00013
 366,0.00002953,0.00014392,-0.05572728,-0.02414830,0.01042450,-0.016030
 89,0.19170102,0.00389772,0.01215163,-0.04451905,0.00522488,-0.00427655
 ,0.00037835,-0.00036152,-0.00058944,-0.00015270,-0.00044560,0.00088336
 ,0.00032854,-0.00033621,0.00222845,0.00005113,-0.00081451,-0.00300177,
 0.00592450,0.00103250,0.00059812,0.00045824,-0.00153770,-0.00102311,0.
 00004025,0.00000901,0.00013793,-0.00011851,0.04498969,0.02321651,0.011
 95053,0.02044646,-0.01123859,0.29026313,-0.00411829,0.00050197,0.00251
 535,0.00083634,-0.00445811,-0.00019710,-0.00018352,0.00026594,-0.00033
 618,-0.00006857,0.00027407,0.00059141,-0.00015105,0.00060342,0.0001245
 7,0.00053803,-0.00007743,-0.00023579,0.00007768,0.00007659,0.00001117,
 0.00013100,0.00015369,-0.00001867,-0.00002072,0.00010448,0.00000174,0.
 00917382,0.00615680,-0.00154094,-0.17737971,0.03936438,0.02151833,0.46
 603355,0.00167508,-0.00083018,0.00047391,-0.00182833,0.00201138,0.0008
 0717,0.00008143,-0.00013308,0.00024003,-0.00019314,-0.00044355,-0.0004
 9623,0.00020233,-0.00083313,-0.00027214,-0.00020918,0.00020702,0.00004
 044,-0.00005936,-0.00004830,-0.00003888,-0.00000498,-0.00006036,0.0000
 1549,-0.00000219,-0.00005324,-0.00000213,-0.00794572,-0.00934693,0.001
 85482,0.04985733,-0.08950959,-0.00116523,0.04829006,0.56882465,0.00155
 303,0.00098244,-0.00508570,0.00071358,0.00143830,0.00057551,0.00005342
 ,0.00000113,0.00019368,-0.00022442,-0.00015999,-0.00045194,0.00011341,
 0.00011322,-0.00020230,-0.00021530,-0.00007759,0.00050013,0.00006208,-
 0.00001585,0.00003079,-0.00016622,-0.00009990,0.00006243,-0.00000460,-
 0.00000900,-0.00002582,0.00106792,0.00165598,0.00106128,0.03588238,-0.
 00494427,-0.09911501,0.03808195,-0.02082167,0.59367063,0.00093834,0.00
 045092,-0.00228756,-0.00016201,0.00046502,-0.00009728,0.00004007,-0.00
 016534,0.00010507,-0.00000697,-0.00001860,-0.00004079,0.00005767,-0.00
 007224,0.00003467,-0.00009850,-0.00004976,0.00024104,0.00002438,0.0000
 0165,0.00001370,-0.00007955,-0.00004675,0.00002283,0.00000827,0.000000
 07,-0.00000905,-0.00025521,-0.00078166,0.00074298,-0.03276343,0.009122
 52,-0.02776465,-0.10844838,0.01311735,-0.10689009,0.13158830,-0.000317
 94,0.00010690,0.00040879,-0.00002734,-0.00005344,-0.00023784,-0.000035
 63,-0.00005648,0.00010896,0.00002782,0.00005283,0.00001253,0.00004065,
 0.00000885,0.00005300,0.00006200,-0.00002275,-0.00005261,0.00000226,0.
 00000399,0.00000180,0.00001565,0.00002382,-0.00000334,-0.00000426,0.00
 000052,-0.00000966,0.00027035,0.00010749,0.00007123,0.01189129,-0.0012
 4031,0.01027708,0.01331788,-0.05542104,0.02580868,-0.02235804,0.053161
 59,0.00013582,-0.00004531,0.00016290,-0.00009342,0.00010046,-0.0001313
 4,-0.00002072,-0.00004438,0.00007260,0.00001553,0.00001797,-0.00001036
 ,0.00002410,-0.00003160,0.00003582,-0.00001369,-0.00000541,-0.00004037
 ,-0.00000104,-0.00000300,-0.00000313,0.00000888,0.00000942,-0.00000662
 ,0.00000064,-0.00000122,-0.00000506,-0.00037281,-0.00027916,-0.0000492
 3,0.00789843,-0.00279168,0.01472979,-0.11784713,0.03020638,-0.25466001
 ,0.12254422,-0.03073128,0.26533832,0.00078031,-0.00064779,0.00095729,-
 0.00071519,0.00052724,0.00001565,0.00002048,-0.00005647,0.00007331,0.0
 0001983,-0.00007894,-0.00006053,0.00005978,-0.00030606,-0.00000772,-0.
 00008638,0.00011785,-0.00008150,-0.00004558,-0.00002300,-0.00002169,0.
 00002253,-0.00000292,0.00000065,0.00001673,-0.00000878,0.00001385,-0.0
 0324008,-0.00306841,0.00026831,-0.03169263,-0.01925469,0.02529820,-0.0
 9296891,-0.07781051,0.05703718,0.00960716,0.01167729,-0.00819651,0.114
 01416,-0.00001603,0.00002056,-0.00006146,0.00020839,-0.00054853,-0.000
 12608,-0.00000277,0.00007305,-0.00014315,0.00004829,0.00010875,0.00020
 518,-0.00009699,0.00014176,0.00008306,0.00000219,-0.00002520,-0.000003
 52,0.00000434,0.00001171,0.00000896,0.00000259,-0.00000285,-0.00000147
 ,0.00000772,0.00000478,0.00001410,0.00123186,0.00141589,-0.00037992,0.
 01080403,0.01412368,-0.01166176,-0.08597724,-0.19010386,0.10961787,-0.
 00092128,-0.00155403,0.00065646,0.08592611,0.19595093,-0.00038107,0.00
 021305,0.00001266,0.00014819,-0.00031413,-0.00019237,-0.00000094,-0.00
 002171,-0.00001889,0.00001839,0.00007355,0.00012311,-0.00002789,0.0000
 7896,0.00009490,0.00005225,-0.00003390,-0.00001139,0.00000947,0.000008
 28,0.00000747,0.00000631,0.00001067,-0.00000233,-0.00000275,0.00000011
 ,-0.00000087,0.00095910,0.00091157,-0.00023562,0.00916961,0.00313899,-
 0.00277297,0.06260824,0.10509336,-0.13441005,0.01167812,0.02022857,-0.
 01377445,-0.07408835,-0.11463653,0.13931649,-0.00017723,0.00026496,0.0
 0061186,-0.00020342,0.00045802,0.00036708,0.00002608,-0.00005668,-0.00
 000406,-0.00012649,-0.00028311,-0.00011854,0.00004650,-0.00010650,-0.0
 0011918,-0.00000907,0.00000687,-0.00000052,-0.00000370,-0.00001151,-0.
 00000138,-0.00000551,0.00000184,-0.00000300,-0.00001669,-0.00003353,-0
 .00001980,-0.00086455,-0.00084881,-0.00014039,-0.01345652,0.03456118,0
 .02136184,-0.05342745,-0.02707808,-0.01625791,0.00060726,-0.01419657,-
 0.00619849,0.00076565,-0.01068750,-0.00816501,0.06128016,-0.00015751,-
 0.00005830,-0.00034307,0.00005105,-0.00064010,-0.00006264,-0.00004738,
 0.00001983,-0.00007242,-0.00008234,0.00007094,0.00017022,-0.00007217,0
 .00008802,0.00007097,0.00002368,-0.00001823,0.00000245,0.00001098,0.00
 000755,0.00000318,-0.00000215,0.00000792,-0.00000641,0.00000481,0.0000
 2558,0.00000535,0.00131160,0.00097010,-0.00032075,0.01126481,-0.005412
 07,-0.00558166,-0.02109166,-0.24116103,-0.10952862,-0.00089691,0.00565
 616,0.00282271,-0.00335324,-0.01775301,-0.01220374,0.01557416,0.259472
 35,-0.00010582,-0.00055077,0.00109647,0.00014426,-0.00066482,-0.000143
 32,0.00003574,0.00013241,-0.00030142,0.00012566,0.00012182,0.00034033,
 -0.00015476,0.00013605,0.00009619,0.00000578,0.00005480,-0.00012129,-0
 .00002127,0.00000265,-0.00001021,0.00004357,0.00001868,-0.00001023,0.0
 0001339,0.00001902,0.00003230,0.00021677,0.00095603,-0.00048162,0.0071
 0741,-0.00637486,-0.00150719,-0.01230674,-0.10965832,-0.11848976,-0.00
 288575,-0.02408018,-0.01164354,0.00090213,0.01584048,0.01108865,0.0079
 4590,0.12468006,0.12080819,-0.02919141,-0.01553348,0.05690760,-0.00108
 348,-0.00128680,-0.00154991,-0.00015750,0.00130049,-0.00039591,0.00060
 416,-0.00007175,0.00064620,-0.00008983,-0.00042635,0.00014639,0.003291
 93,0.00231366,-0.00605185,-0.00081629,-0.00033811,-0.00040579,0.001851
 36,0.00113697,-0.00029582,-0.00022324,-0.00026344,0.00000031,-0.022578
 42,-0.00167728,-0.01087142,-0.07941111,-0.00531535,-0.02702908,-0.0273
 9548,0.00494763,-0.00953619,0.00150716,-0.00066638,0.00134108,0.000951
 50,-0.00044101,-0.00092584,0.00291839,-0.00137208,-0.00166362,0.072283
 43,-0.01111006,-0.00352122,0.01542439,-0.00000447,-0.00147123,0.000177
 11,-0.00006057,0.00035876,-0.00010129,0.00000064,-0.00031497,0.0001046
 2,0.00005972,0.00013775,-0.00011962,0.00015118,0.00110042,-0.00079607,
 -0.00023356,-0.00004601,-0.00015134,0.00015108,0.00050091,-0.00006482,
 0.00005417,-0.00003144,-0.00010343,-0.00424328,0.00099068,-0.00545717,
 -0.00023728,-0.03240667,-0.00822291,0.00629402,-0.00194135,0.01158818,
 0.00298197,-0.00108811,-0.00104622,-0.00091701,0.00041203,-0.00053357,
 0.00084200,-0.00036767,0.00046546,-0.01847779,0.05186428,0.00096029,-0
 .00014381,0.04531573,-0.00136826,0.00023226,-0.00075423,-0.00006954,0.
 00072967,-0.00026838,0.00049264,-0.00025436,0.00031703,-0.00004424,-0.
 00067493,0.00002027,0.00263752,0.00180771,-0.00611623,-0.00060682,-0.0
 0035675,-0.00021043,0.00169840,0.00120798,0.00001683,-0.00019359,-0.00
 018481,-0.00000507,-0.01507199,-0.00160370,-0.00778743,-0.06558870,-0.
 00418185,-0.14619414,-0.00097894,0.00195430,0.02043319,0.00649595,-0.0
 0234835,-0.00077175,0.00140855,0.00030085,-0.00026410,0.00207219,-0.00
 196443,-0.00076695,0.02049540,-0.02563671,0.16849266,-0.02000837,0.018
 87809,-0.03937893,0.01773760,-0.00940908,-0.00049518,-0.00063453,0.001
 22329,-0.00108475,-0.00096638,0.00287386,0.00182114,-0.00063303,0.0073
 9137,0.00082594,0.00137784,-0.00279366,0.00323081,0.00109215,0.0004974
 0,0.00058452,-0.00096934,-0.00028062,0.00007435,-0.00032166,0.00001057
 ,-0.00032283,-0.00373408,0.02095834,0.00453971,-0.03041373,0.01502371,
 -0.02121559,-0.02285103,0.00035858,0.00760605,0.00114269,-0.00099997,0
 .00028401,0.00300010,-0.00001124,-0.00154284,0.00273662,-0.00199049,-0
 .00079983,0.03672093,0.00899698,0.01391210,0.03793960,-0.00403437,0.02
 757645,-0.02996511,-0.00431162,-0.02170493,0.00147178,-0.00067879,0.00
 039183,-0.00004803,-0.00102553,0.00189959,0.00091137,0.00095308,0.0022
 3166,0.00001751,0.00241275,-0.00402463,0.00416267,0.00141376,0.0009378
 0,0.00084188,-0.00103512,-0.00030144,0.00005330,-0.00038809,-0.0001438
 9,-0.00030312,0.04491881,-0.01421320,0.00802900,0.00126866,-0.06253874
 ,0.01486193,-0.00512226,0.01950332,-0.01124218,0.00069331,-0.00015883,
 0.00076684,0.00702211,-0.00224431,-0.00207370,0.00239842,-0.00141433,-
 0.00159717,0.01877462,0.00153406,0.02388996,-0.04632136,0.06695587,-0.
 01448059,-0.01497540,0.01931153,-0.00634830,0.00219557,-0.00023530,0.0
 0043283,0.00071177,0.00050218,-0.00016565,-0.00161525,-0.00061755,0.00
 027353,-0.00214950,-0.00024768,-0.00159028,0.00308374,-0.00341904,-0.0
 0104965,-0.00069330,-0.00045296,0.00063859,0.00026519,0.00002892,0.000
 20631,-0.00008848,0.00012294,-0.01119165,-0.00267594,-0.03228152,0.001
 67332,0.01464529,-0.03849075,0.00831230,-0.00622445,-0.00175308,-0.001
 52611,0.00003970,0.00028794,-0.00268623,0.00035069,0.00109429,-0.00067
 483,0.00134545,0.00030494,-0.00544430,0.01871118,-0.03105515,0.0194720
 9,-0.01784991,0.09348485,-0.01980942,-0.01383557,-0.00700917,-0.002278
 63,-0.00153037,-0.00166068,-0.00022632,0.00112792,0.00022026,-0.000160
 78,0.00015566,0.00028051,0.00015207,0.00035161,-0.00014293,0.00251737,
 -0.00764596,-0.00439390,0.00084464,-0.00047928,0.00064400,0.00079790,0
 .00055146,-0.00082823,-0.00022116,-0.00208453,-0.00097489,-0.00737793,
 0.02453434,-0.00151338,-0.00385424,0.00034710,-0.00096045,0.00109749,0
 .00004812,-0.00010109,-0.00016751,0.00006048,-0.00004240,-0.00011413,-
 0.00000958,0.00008271,-0.00013919,0.00006795,0.00008210,0.00351126,0.0
 0057356,0.00204500,0.00025368,-0.00012752,0.00042685,0.03574612,-0.026
 86676,-0.02044993,0.01640796,0.00356194,0.00234183,0.00197519,0.000481
 05,-0.00142197,-0.00020676,-0.00011107,-0.00001683,-0.00019360,-0.0002
 6797,0.00014451,-0.00008844,0.00865347,-0.02584383,-0.01454908,0.00050
 632,0.00002169,-0.00034737,0.00055666,-0.00080850,-0.00055901,-0.00395
 095,-0.00215429,-0.00141713,0.01469853,-0.02782997,0.00205066,0.005087
 09,0.00170740,0.00292551,-0.00055588,0.00015021,0.00048891,0.00027646,
 -0.00011347,0.00000638,0.00012629,0.00000071,-0.00010907,-0.00021580,0
 .00012825,0.00003443,-0.00774652,-0.00194702,-0.00573883,-0.00166226,-
 0.00308697,-0.00032709,-0.01758266,0.07380680,-0.01556925,0.00605903,-
 0.01621517,-0.00077103,0.00102962,0.00077212,0.00008723,-0.00000865,0.
 00003527,-0.00037219,0.00078441,-0.00002397,0.00000489,0.00001590,-0.0
 0010765,0.00432882,-0.01500947,-0.00527978,0.00121610,-0.00029807,0.00
 017102,-0.00075131,-0.00084874,0.00071401,-0.00195345,-0.00144968,0.00
 064080,-0.00218491,0.00327253,0.00756918,0.00329275,0.00000333,0.00381
 017,-0.00043540,-0.00002492,0.00046550,0.00028272,-0.00006006,0.000028
 60,-0.00001685,0.00000045,-0.00005757,-0.00017069,0.00012405,-0.000059
 95,-0.00723522,-0.00149806,-0.00556427,0.00096128,-0.00035218,-0.00154
 808,-0.01121167,0.02642158,0.04336096,-0.24734826,-0.08508539,0.140097
 81,0.00140788,0.00132442,0.00236034,0.00053968,-0.00155154,-0.00031636
 ,-0.00014740,-0.00185257,-0.00073127,0.00009555,0.00072059,-0.00083562
 ,-0.02617986,-0.01627984,0.03873486,0.00259594,0.00138652,0.00160192,-
 0.00647914,-0.00591632,-0.00174575,0.00105759,-0.00028870,0.00032980,0
 .03632028,0.00392305,0.00293789,-0.05763684,-0.00277624,-0.06331334,0.
 00912520,-0.00344642,-0.00877520,-0.00353972,0.00124047,0.00053350,-0.
 00039534,-0.00007188,0.00040230,0.00004913,0.00075691,0.00131509,0.037
 30664,0.01517872,0.03170404,-0.02146906,-0.01681087,0.01372177,-0.0105
 7122,0.02501207,0.03049819,0.28526896,-0.07531460,-0.11285189,0.059188
 71,-0.00089140,0.00462783,0.00085846,0.00024836,-0.00062371,0.00005808
 ,-0.00043941,0.00053915,-0.00073912,-0.00009374,0.00001468,0.00011871,
 -0.02162334,-0.00095625,0.02204546,-0.00123028,-0.00008389,0.00032078,
 -0.00528186,-0.00164430,-0.00068239,0.00209423,0.00272693,0.00142025,0
 .01028180,-0.00290521,0.03736650,-0.01978568,0.01207669,-0.02051952,0.
 00187927,-0.00081091,-0.00479567,-0.00179867,0.00058633,0.00039264,0.0
 0013092,-0.00003204,0.00016925,-0.00058934,0.00037806,0.00046421,0.025
 14297,-0.01376320,0.01296580,-0.01274350,-0.01119932,0.00525071,0.0154
 7727,0.00537138,-0.01816104,0.08453701,0.11854968,0.18903330,0.0920210
 0,-0.29126662,0.00105017,-0.01050408,-0.00704928,-0.00071010,0.0028593
 4,0.00081866,-0.00087505,0.00208163,0.00190173,-0.00005919,0.00134488,
 0.00011501,0.01081773,0.00440467,0.00162526,0.00125298,-0.00035445,-0.
 00011613,-0.00099767,-0.00066707,0.00175462,-0.00049975,0.00146364,0.0
 0022774,-0.01349592,0.03289121,-0.05822013,-0.02362077,-0.00805623,0.0
 0493568,0.00013183,-0.00198195,-0.00279946,-0.00066003,0.00051299,0.00
 043990,-0.00081573,-0.00006422,0.00000302,-0.00048508,0.00085931,-0.00
 023157,-0.00813204,-0.00273975,-0.03483756,0.01152795,0.00842513,-0.00
 503649,0.02505737,-0.02677423,-0.02871119,-0.18851998,-0.09572183,0.41
 644680\\0.00000007,0.00000956,0.00000325,-0.00000887,-0.00000348,-0.00
 000735,-0.00000955,-0.00001201,-0.00001017,-0.00001019,0.00000037,-0.0
 0001006,-0.00001169,0.00000077,-0.00001000,-0.00000291,0.00001487,0.00
 000329,0.00000013,0.00002497,0.00000385,-0.00000387,0.00001524,-0.0000
 0125,-0.00000830,0.00001792,-0.00000503,-0.00000021,-0.00000407,0.0000
 0353,0.00001450,-0.00000972,0.00000482,0.00000491,-0.00001532,0.000003
 88,0.00000526,-0.00002356,0.00000036,0.00000902,-0.00001502,0.00000526
 ,-0.00000114,-0.00001262,-0.00000281,0.00000109,0.00000585,0.00000775,
 0.00000669,-0.00001413,0.00000279,0.00000829,0.00001078,0.00001357,0.0
 0000676,0.00000959,-0.00000568\\\@


 Experience is what you get when you don't get what you want.
 -- Dan Stanford
 Job cpu time:       1 days 10 hours 53 minutes 16.5 seconds.
 File lengths (MBytes):  RWF=    358 Int=      0 D2E=      0 Chk=     25 Scr=      1
 Normal termination of Gaussian 09 at Sat Mar 28 09:11:04 2015.
