 Entering Gaussian System, Link 0=g09
 Initial command:
 /opt/gridware/applications/gaussian/g09/l1.exe "/lustre/SCRATCH5/gau/mlawal/850350.sched01/Gau-18898.inp" -scrdir="/lustre/SCRATCH5/gau/mlawal/850350.sched01/"
 Entering Link 1 = /opt/gridware/applications/gaussian/g09/l1.exe PID=     18899.
  
 Copyright (c) 1988,1990,1992,1993,1995,1998,2003,2009,2013,
            Gaussian, Inc.  All Rights Reserved.
  
 This is part of the Gaussian(R) 09 program.  It is based on
 the Gaussian(R) 03 system (copyright 2003, Gaussian, Inc.),
 the Gaussian(R) 98 system (copyright 1998, Gaussian, Inc.),
 the Gaussian(R) 94 system (copyright 1995, Gaussian, Inc.),
 the Gaussian 92(TM) system (copyright 1992, Gaussian, Inc.),
 the Gaussian 90(TM) system (copyright 1990, Gaussian, Inc.),
 the Gaussian 88(TM) system (copyright 1988, Gaussian, Inc.),
 the Gaussian 86(TM) system (copyright 1986, Carnegie Mellon
 University), and the Gaussian 82(TM) system (copyright 1983,
 Carnegie Mellon University). Gaussian is a federally registered
 trademark of Gaussian, Inc.
  
 This software contains proprietary and confidential information,
 including trade secrets, belonging to Gaussian, Inc.
  
 This software is provided under written license and may be
 used, copied, transmitted, or stored only in accord with that
 written license.
  
 The following legend is applicable only to US Government
 contracts under FAR:
  
                    RESTRICTED RIGHTS LEGEND
  
 Use, reproduction and disclosure by the US Government is
 subject to restrictions as set forth in subparagraphs (a)
 and (c) of the Commercial Computer Software - Restricted
 Rights clause in FAR 52.227-19.
  
 Gaussian, Inc.
 340 Quinnipiac St., Bldg. 40, Wallingford CT 06492
  
  
 ---------------------------------------------------------------
 Warning -- This program may not be used in any manner that
 competes with the business of Gaussian, Inc. or will provide
 assistance to any competitor of Gaussian, Inc.  The licensee
 of this program is prohibited from giving any competitor of
 Gaussian, Inc. access to this program.  By using this program,
 the user acknowledges that Gaussian, Inc. is engaged in the
 business of creating and licensing software in the field of
 computational chemistry and represents and warrants to the
 licensee that it is not a competitor of Gaussian, Inc. and that
 it will not use this program in any manner prohibited above.
 ---------------------------------------------------------------
  

 Cite this work as:
 Gaussian 09, Revision D.01,
 M. J. Frisch, G. W. Trucks, H. B. Schlegel, G. E. Scuseria, 
 M. A. Robb, J. R. Cheeseman, G. Scalmani, V. Barone, B. Mennucci, 
 G. A. Petersson, H. Nakatsuji, M. Caricato, X. Li, H. P. Hratchian, 
 A. F. Izmaylov, J. Bloino, G. Zheng, J. L. Sonnenberg, M. Hada, 
 M. Ehara, K. Toyota, R. Fukuda, J. Hasegawa, M. Ishida, T. Nakajima, 
 Y. Honda, O. Kitao, H. Nakai, T. Vreven, J. A. Montgomery, Jr., 
 J. E. Peralta, F. Ogliaro, M. Bearpark, J. J. Heyd, E. Brothers, 
 K. N. Kudin, V. N. Staroverov, T. Keith, R. Kobayashi, J. Normand, 
 K. Raghavachari, A. Rendell, J. C. Burant, S. S. Iyengar, J. Tomasi, 
 M. Cossi, N. Rega, J. M. Millam, M. Klene, J. E. Knox, J. B. Cross, 
 V. Bakken, C. Adamo, J. Jaramillo, R. Gomperts, R. E. Stratmann, 
 O. Yazyev, A. J. Austin, R. Cammi, C. Pomelli, J. W. Ochterski, 
 R. L. Martin, K. Morokuma, V. G. Zakrzewski, G. A. Voth, 
 P. Salvador, J. J. Dannenberg, S. Dapprich, A. D. Daniels, 
 O. Farkas, J. B. Foresman, J. V. Ortiz, J. Cioslowski, 
 and D. J. Fox, Gaussian, Inc., Wallingford CT, 2013.
 
 ******************************************
 Gaussian 09:  EM64L-G09RevD.01 24-Apr-2013
                26-Mar-2015 
 ******************************************
 %nprocshared=8
 Will use up to    8 processors via shared memory.
 %nprocl=1
 Will use up to    1 processors via Linda.
 ----------------------------------------------------------------------
 # opt=(calcfc,ts,noeigentest) freq=noraman b3lyp/genecp geom=connectiv
 ity gfinput pseudo=read
 ----------------------------------------------------------------------
 1/5=1,10=4,11=1,14=-1,18=20,26=3,38=1,57=2/1,3;
 2/9=110,12=2,17=6,18=5,40=1/2;
 3/5=7,11=2,16=1,17=8,24=10,25=1,30=1,71=2,74=-5,140=1/1,2,3;
 4//1;
 5/5=2,38=5/2;
 8/6=4,10=90,11=11/1;
 11/6=1,8=1,9=11,15=111,16=1/1,2,10;
 10/6=1,13=1/2;
 6/7=2,8=2,9=2,10=2,28=1/1;
 7/10=1,18=20,25=1/1,2,3,16;
 1/5=1,10=4,11=1,14=-1,18=20,26=3/3(2);
 2/9=110/2;
 99//99;
 2/9=110/2;
 3/5=7,6=1,11=2,16=1,17=8,25=1,30=1,71=1,74=-5,82=7/1,2,3;
 4/5=5,16=3,69=1/1;
 5/5=2,38=5/2;
 7//1,2,3,16;
 1/5=1,11=1,14=-1,18=20,26=3/3(-5);
 2/9=110/2;
 6/7=2,8=2,9=2,10=2,19=2,28=1/1;
 99/9=1/99;
 -------------------------------------------------
 gen calculation ts624F-C H O=6-31+g(d)/F=Def2TZVP
 -------------------------------------------------
 Symbolic Z-matrix:
 Charge =  0 Multiplicity = 1
 C                     1.03864  -0.44423   0.15046 
 O                     0.14066  -0.92438   0.90514 
 O                     0.23413   0.69407  -0.72018 
 O                    -1.87108  -0.6155   -0.42045 
 C                    -2.86906   0.02124   0.41467 
 H                    -2.40055   0.51502   1.27139 
 H                    -3.38905   0.73373  -0.23411 
 H                    -3.55655  -0.76608   0.74698 
 H                    -0.92912   0.23641  -0.72989 
 H                    -1.18981  -1.20177   0.23529 
 C                     2.3178    0.14147   0.67281 
 H                     3.00343  -0.66652   0.98211 
 H                     2.84725   0.74589  -0.07611 
 H                     2.13892   0.75634   1.56506 
 C                     0.16568   2.00624  -0.11717 
 H                     1.15585   2.46142  -0.22981 
 H                    -0.5738    2.57023  -0.69535 
 H                    -0.11844   1.92899   0.93699 
 F                     1.22932  -1.21061  -0.95703 
 
 Add virtual bond connecting atoms H10        and O4         Dist= 2.10D+00.
 Add virtual bond connecting atoms H9         and O3         Dist= 2.36D+00.
 Add virtual bond connecting atoms H9         and O4         Dist= 2.47D+00.
 Add virtual bond connecting atoms O3         and C1         Dist= 3.11D+00.
 Add virtual bond connecting atoms H10        and O2         Dist= 2.86D+00.

 GradGradGradGradGradGradGradGradGradGradGradGradGradGradGradGradGradGrad
 Berny optimization.
 Initialization pass.
                           ----------------------------
                           !    Initial Parameters    !
                           ! (Angstroms and Degrees)  !
 --------------------------                            --------------------------
 ! Name  Definition              Value          Derivative Info.                !
 --------------------------------------------------------------------------------
 ! R1    R(1,2)                  1.2675         calculate D2E/DX2 analytically  !
 ! R2    R(1,3)                  1.6435         calculate D2E/DX2 analytically  !
 ! R3    R(1,11)                 1.5007         calculate D2E/DX2 analytically  !
 ! R4    R(1,19)                 1.3602         calculate D2E/DX2 analytically  !
 ! R5    R(2,10)                 1.5152         calculate D2E/DX2 analytically  !
 ! R6    R(3,9)                  1.2501         calculate D2E/DX2 analytically  !
 ! R7    R(3,15)                 1.4457         calculate D2E/DX2 analytically  !
 ! R8    R(4,5)                  1.4487         calculate D2E/DX2 analytically  !
 ! R9    R(4,9)                  1.3072         calculate D2E/DX2 analytically  !
 ! R10   R(4,10)                 1.1126         calculate D2E/DX2 analytically  !
 ! R11   R(5,6)                  1.0942         calculate D2E/DX2 analytically  !
 ! R12   R(5,7)                  1.095          calculate D2E/DX2 analytically  !
 ! R13   R(5,8)                  1.0968         calculate D2E/DX2 analytically  !
 ! R14   R(11,12)                1.1039         calculate D2E/DX2 analytically  !
 ! R15   R(11,13)                1.0984         calculate D2E/DX2 analytically  !
 ! R16   R(11,14)                1.0983         calculate D2E/DX2 analytically  !
 ! R17   R(15,16)                1.0956         calculate D2E/DX2 analytically  !
 ! R18   R(15,17)                1.0951         calculate D2E/DX2 analytically  !
 ! R19   R(15,18)                1.0945         calculate D2E/DX2 analytically  !
 ! A1    A(2,1,3)              103.3558         calculate D2E/DX2 analytically  !
 ! A2    A(2,1,11)             122.9901         calculate D2E/DX2 analytically  !
 ! A3    A(2,1,19)             111.7568         calculate D2E/DX2 analytically  !
 ! A4    A(3,1,11)             109.3495         calculate D2E/DX2 analytically  !
 ! A5    A(3,1,19)              91.5779         calculate D2E/DX2 analytically  !
 ! A6    A(11,1,19)            112.569          calculate D2E/DX2 analytically  !
 ! A7    A(1,2,10)             115.3559         calculate D2E/DX2 analytically  !
 ! A8    A(1,3,9)              101.8916         calculate D2E/DX2 analytically  !
 ! A9    A(1,3,15)             115.5219         calculate D2E/DX2 analytically  !
 ! A10   A(9,3,15)             106.946          calculate D2E/DX2 analytically  !
 ! A11   A(5,4,9)              110.2684         calculate D2E/DX2 analytically  !
 ! A12   A(5,4,10)             108.2803         calculate D2E/DX2 analytically  !
 ! A13   A(9,4,10)              92.3898         calculate D2E/DX2 analytically  !
 ! A14   A(4,5,6)              110.7762         calculate D2E/DX2 analytically  !
 ! A15   A(4,5,7)              105.7583         calculate D2E/DX2 analytically  !
 ! A16   A(4,5,8)              106.9153         calculate D2E/DX2 analytically  !
 ! A17   A(6,5,7)              111.9383         calculate D2E/DX2 analytically  !
 ! A18   A(6,5,8)              110.7995         calculate D2E/DX2 analytically  !
 ! A19   A(7,5,8)              110.4227         calculate D2E/DX2 analytically  !
 ! A20   A(3,9,4)              155.1338         calculate D2E/DX2 analytically  !
 ! A21   A(2,10,4)             134.5691         calculate D2E/DX2 analytically  !
 ! A22   A(1,11,12)            109.9543         calculate D2E/DX2 analytically  !
 ! A23   A(1,11,13)            112.848          calculate D2E/DX2 analytically  !
 ! A24   A(1,11,14)            111.2506         calculate D2E/DX2 analytically  !
 ! A25   A(12,11,13)           107.1229         calculate D2E/DX2 analytically  !
 ! A26   A(12,11,14)           106.4581         calculate D2E/DX2 analytically  !
 ! A27   A(13,11,14)           108.9267         calculate D2E/DX2 analytically  !
 ! A28   A(3,15,16)            106.9428         calculate D2E/DX2 analytically  !
 ! A29   A(3,15,17)            106.2125         calculate D2E/DX2 analytically  !
 ! A30   A(3,15,18)            110.4844         calculate D2E/DX2 analytically  !
 ! A31   A(16,15,17)           110.0007         calculate D2E/DX2 analytically  !
 ! A32   A(16,15,18)           111.2818         calculate D2E/DX2 analytically  !
 ! A33   A(17,15,18)           111.6898         calculate D2E/DX2 analytically  !
 ! D1    D(3,1,2,10)            43.6513         calculate D2E/DX2 analytically  !
 ! D2    D(11,1,2,10)          167.7157         calculate D2E/DX2 analytically  !
 ! D3    D(19,1,2,10)          -53.5425         calculate D2E/DX2 analytically  !
 ! D4    D(2,1,3,9)            -27.9597         calculate D2E/DX2 analytically  !
 ! D5    D(2,1,3,15)            87.5466         calculate D2E/DX2 analytically  !
 ! D6    D(11,1,3,9)          -160.5309         calculate D2E/DX2 analytically  !
 ! D7    D(11,1,3,15)          -45.0246         calculate D2E/DX2 analytically  !
 ! D8    D(19,1,3,9)            84.849          calculate D2E/DX2 analytically  !
 ! D9    D(19,1,3,15)         -159.6447         calculate D2E/DX2 analytically  !
 ! D10   D(2,1,11,12)           76.0629         calculate D2E/DX2 analytically  !
 ! D11   D(2,1,11,13)         -164.4075         calculate D2E/DX2 analytically  !
 ! D12   D(2,1,11,14)          -41.6209         calculate D2E/DX2 analytically  !
 ! D13   D(3,1,11,12)         -162.6147         calculate D2E/DX2 analytically  !
 ! D14   D(3,1,11,13)          -43.0851         calculate D2E/DX2 analytically  !
 ! D15   D(3,1,11,14)           79.7015         calculate D2E/DX2 analytically  !
 ! D16   D(19,1,11,12)         -62.3871         calculate D2E/DX2 analytically  !
 ! D17   D(19,1,11,13)          57.1425         calculate D2E/DX2 analytically  !
 ! D18   D(19,1,11,14)         179.929          calculate D2E/DX2 analytically  !
 ! D19   D(1,2,10,4)           -49.5979         calculate D2E/DX2 analytically  !
 ! D20   D(1,3,9,4)              2.7636         calculate D2E/DX2 analytically  !
 ! D21   D(15,3,9,4)          -118.8679         calculate D2E/DX2 analytically  !
 ! D22   D(1,3,15,16)           74.8403         calculate D2E/DX2 analytically  !
 ! D23   D(1,3,15,17)         -167.7123         calculate D2E/DX2 analytically  !
 ! D24   D(1,3,15,18)          -46.4143         calculate D2E/DX2 analytically  !
 ! D25   D(9,3,15,16)         -172.5666         calculate D2E/DX2 analytically  !
 ! D26   D(9,3,15,17)          -55.1191         calculate D2E/DX2 analytically  !
 ! D27   D(9,3,15,18)           66.1789         calculate D2E/DX2 analytically  !
 ! D28   D(9,4,5,6)            -51.9849         calculate D2E/DX2 analytically  !
 ! D29   D(9,4,5,7)             69.4987         calculate D2E/DX2 analytically  !
 ! D30   D(9,4,5,8)           -172.8052         calculate D2E/DX2 analytically  !
 ! D31   D(10,4,5,6)            47.7332         calculate D2E/DX2 analytically  !
 ! D32   D(10,4,5,7)           169.2168         calculate D2E/DX2 analytically  !
 ! D33   D(10,4,5,8)           -73.0871         calculate D2E/DX2 analytically  !
 ! D34   D(5,4,9,3)            114.1418         calculate D2E/DX2 analytically  !
 ! D35   D(10,4,9,3)             3.65           calculate D2E/DX2 analytically  !
 ! D36   D(5,4,10,2)           -94.1936         calculate D2E/DX2 analytically  !
 ! D37   D(9,4,10,2)            18.0741         calculate D2E/DX2 analytically  !
 --------------------------------------------------------------------------------
 Trust Radius=3.00D-01 FncErr=1.00D-07 GrdErr=1.00D-06
 Number of steps in this run=     99 maximum allowed number of steps=    114.
 Search for a saddle point of order  1.
 GradGradGradGradGradGradGradGradGradGradGradGradGradGradGradGradGradGrad

                          Input orientation:                          
 ---------------------------------------------------------------------
 Center     Atomic      Atomic             Coordinates (Angstroms)
 Number     Number       Type             X           Y           Z
 ---------------------------------------------------------------------
      1          6           0        1.038638   -0.444228    0.150458
      2          8           0        0.140657   -0.924384    0.905138
      3          8           0        0.234125    0.694069   -0.720178
      4          8           0       -1.871075   -0.615496   -0.420445
      5          6           0       -2.869059    0.021236    0.414667
      6          1           0       -2.400549    0.515022    1.271394
      7          1           0       -3.389051    0.733726   -0.234110
      8          1           0       -3.556552   -0.766079    0.746980
      9          1           0       -0.929120    0.236408   -0.729885
     10          1           0       -1.189813   -1.201772    0.235293
     11          6           0        2.317801    0.141469    0.672809
     12          1           0        3.003432   -0.666516    0.982111
     13          1           0        2.847250    0.745892   -0.076114
     14          1           0        2.138920    0.756342    1.565055
     15          6           0        0.165676    2.006238   -0.117169
     16          1           0        1.155848    2.461422   -0.229811
     17          1           0       -0.573795    2.570231   -0.695350
     18          1           0       -0.118440    1.928985    0.936989
     19          9           0        1.229320   -1.210607   -0.957029
 ---------------------------------------------------------------------
                    Distance matrix (angstroms):
                    1          2          3          4          5
     1  C    0.000000
     2  O    1.267463   0.000000
     3  O    1.643462   2.295600   0.000000
     4  O    2.970133   2.428919   2.497332   0.000000
     5  C    3.944180   3.192671   3.371992   1.448728   0.000000
     6  H    3.742281   2.943427   3.307556   2.102554   1.094215
     7  H    4.597814   4.062764   3.655850   2.039454   1.094964
     8  H    4.644911   3.703975   4.319006   2.055818   1.096788
     9  H    2.260606   2.272699   1.250075   1.307200   2.262667
    10  H    2.355221   1.515185   2.556313   1.112578   2.085136
    11  C    1.500716   2.435154   2.566610   4.394870   5.194671
    12  H    2.145105   2.875396   3.523924   5.072532   5.939793
    13  H    2.176878   3.328411   2.691826   4.922858   5.782921
    14  H    2.157098   2.693211   2.975636   4.680193   5.190725
    15  C    2.615047   3.103914   1.445715   3.333740   3.665065
    16  H    2.932771   3.712466   2.052698   4.320420   4.750762
    17  H    3.521689   3.909519   2.042874   3.450705   3.605239
    18  H    2.754923   2.865285   2.096550   3.374721   3.387954
    19  F    1.360229   2.175954   2.162013   3.202269   4.493962
                    6          7          8          9         10
     6  H    0.000000
     7  H    1.814252   0.000000
     8  H    1.803489   1.800003   0.000000
     9  H    2.499569   2.558198   3.176399   0.000000
    10  H    2.342385   2.967009   2.460306   1.751540   0.000000
    11  C    4.770815   5.808737   5.944507   3.538228   3.781411
    12  H    5.539199   6.656103   6.564952   4.383055   4.292731
    13  H    5.422958   6.238314   6.631155   3.866259   4.493133
    14  H    4.555354   5.813430   5.951925   3.866517   4.084476
    15  C    3.276789   3.777439   4.720961   2.169400   3.500415
    16  H    4.323199   4.862207   5.794618   3.089960   4.374636
    17  H    3.380680   3.392810   4.701927   2.360970   3.933647
    18  H    2.705391   3.673828   4.372652   2.510077   3.382581
    19  F    4.595608   5.062844   5.099590   2.608507   2.697020
                   11         12         13         14         15
    11  C    0.000000
    12  H    1.103901   0.000000
    13  H    1.098421   1.771759   0.000000
    14  H    1.098258   1.764010   1.787534   0.000000
    15  C    2.955177   4.050295   2.963275   2.878508   0.000000
    16  H    2.747188   3.829663   2.414023   2.663695   1.095592
    17  H    4.016475   5.107539   3.926221   3.969691   1.095079
    18  H    3.033195   4.060141   3.349836   2.620159   1.094504
    19  F    2.381023   2.683984   2.687303   3.325232   3.490673
                   16         17         18         19
    16  H    0.000000
    17  H    1.794500   0.000000
    18  H    1.807961   1.811926   0.000000
    19  F    3.744067   4.196956   3.906507   0.000000
 Stoichiometry    C4H11FO3
 Framework group  C1[X(C4H11FO3)]
 Deg. of freedom    51
 Full point group                 C1      NOp   1
 Largest Abelian subgroup         C1      NOp   1
 Largest concise Abelian subgroup C1      NOp   1
                         Standard orientation:                         
 ---------------------------------------------------------------------
 Center     Atomic      Atomic             Coordinates (Angstroms)
 Number     Number       Type             X           Y           Z
 ---------------------------------------------------------------------
      1          6           0        1.038638   -0.444228    0.150458
      2          8           0        0.140657   -0.924384    0.905138
      3          8           0        0.234125    0.694069   -0.720178
      4          8           0       -1.871075   -0.615496   -0.420445
      5          6           0       -2.869059    0.021236    0.414667
      6          1           0       -2.400549    0.515022    1.271394
      7          1           0       -3.389051    0.733726   -0.234110
      8          1           0       -3.556552   -0.766079    0.746980
      9          1           0       -0.929120    0.236408   -0.729885
     10          1           0       -1.189813   -1.201772    0.235293
     11          6           0        2.317801    0.141469    0.672809
     12          1           0        3.003432   -0.666516    0.982111
     13          1           0        2.847250    0.745892   -0.076114
     14          1           0        2.138920    0.756342    1.565055
     15          6           0        0.165676    2.006238   -0.117169
     16          1           0        1.155848    2.461422   -0.229811
     17          1           0       -0.573795    2.570231   -0.695350
     18          1           0       -0.118440    1.928985    0.936989
     19          9           0        1.229320   -1.210607   -0.957029
 ---------------------------------------------------------------------
 Rotational constants (GHZ):      2.7524908      1.3461166      1.1357869
 General basis read from cards:  (5D, 7F)
 ======================================================================================================
                                       Pseudopotential Parameters
 ======================================================================================================
  Center     Atomic      Valence      Angular      Power
  Number     Number     Electrons     Momentum     of R      Exponent        Coefficient   SO-Coeffient
 ======================================================================================================
    1          6
                                   No pseudopotential on this center.
    2          8
                                   No pseudopotential on this center.
    3          8
                                   No pseudopotential on this center.
    4          8
                                   No pseudopotential on this center.
    5          6
                                   No pseudopotential on this center.
    6          1
                                   No pseudopotential on this center.
    7          1
                                   No pseudopotential on this center.
    8          1
                                   No pseudopotential on this center.
    9          1
                                   No pseudopotential on this center.
   10          1
                                   No pseudopotential on this center.
   11          6
                                   No pseudopotential on this center.
   12          1
                                   No pseudopotential on this center.
   13          1
                                   No pseudopotential on this center.
   14          1
                                   No pseudopotential on this center.
   15          6
                                   No pseudopotential on this center.
   16          1
                                   No pseudopotential on this center.
   17          1
                                   No pseudopotential on this center.
   18          1
                                   No pseudopotential on this center.
   19          9
                                   No pseudopotential on this center.
 ======================================================================================================
 AO basis set in the form of general basis input (Overlap normalization):
      1 0
 S   7 1.00       0.000000000000
      0.8236000000D+04  0.5419783203D-03
      0.1235000000D+04  0.4192873817D-02
      0.2808000000D+03  0.2152216205D-01
      0.7927000000D+02  0.8353432195D-01
      0.2559000000D+02  0.2395828457D+00
      0.8997000000D+01  0.4428528419D+00
      0.3319000000D+01  0.3517995618D+00
 S   6 1.00       0.000000000000
      0.2808000000D+03 -0.5949224937D-04
      0.7927000000D+02 -0.1148158310D-02
      0.2559000000D+02 -0.1001913745D-01
      0.8997000000D+01 -0.6121949230D-01
      0.3319000000D+01 -0.1732698541D+00
      0.3643000000D+00  0.1072915192D+01
 S   1 1.00       0.000000000000
      0.9059000000D+00  0.1000000000D+01
 S   1 1.00       0.000000000000
      0.1285000000D+00  0.1000000000D+01
 S   1 1.00       0.000000000000
      0.4402000000D-01  0.1000000000D+01
 P   3 1.00       0.000000000000
      0.1871000000D+02  0.3942638716D-01
      0.4133000000D+01  0.2440889849D+00
      0.1200000000D+01  0.8154920089D+00
 P   1 1.00       0.000000000000
      0.3827000000D+00  0.1000000000D+01
 P   1 1.00       0.000000000000
      0.1209000000D+00  0.1000000000D+01
 P   1 1.00       0.000000000000
      0.3569000000D-01  0.1000000000D+01
 D   1 1.00       0.000000000000
      0.1097000000D+01  0.1000000000D+01
 D   1 1.00       0.000000000000
      0.3180000000D+00  0.1000000000D+01
 D   1 1.00       0.000000000000
      0.1000000000D+00  0.1000000000D+01
 F   1 1.00       0.000000000000
      0.7610000000D+00  0.1000000000D+01
 F   1 1.00       0.000000000000
      0.2680000000D+00  0.1000000000D+01
 ****
      2 0
 S   7 1.00       0.000000000000
      0.1533000000D+05  0.5198089434D-03
      0.2299000000D+04  0.4020256215D-02
      0.5224000000D+03  0.2071282673D-01
      0.1473000000D+03  0.8101055358D-01
      0.4755000000D+02  0.2359629851D+00
      0.1676000000D+02  0.4426534455D+00
      0.6207000000D+01  0.3570644227D+00
 S   6 1.00       0.000000000000
      0.5224000000D+03 -0.4421150084D-04
      0.1473000000D+03 -0.1225910413D-02
      0.4755000000D+02 -0.1055177248D-01
      0.1676000000D+02 -0.6744526326D-01
      0.6207000000D+01 -0.1711986073D+00
      0.6882000000D+00  0.1073298561D+01
 S   1 1.00       0.000000000000
      0.1752000000D+01  0.1000000000D+01
 S   1 1.00       0.000000000000
      0.2384000000D+00  0.1000000000D+01
 S   1 1.00       0.000000000000
      0.7376000000D-01  0.1000000000D+01
 P   3 1.00       0.000000000000
      0.3446000000D+02  0.4116348957D-01
      0.7749000000D+01  0.2577628359D+00
      0.2280000000D+01  0.8024192744D+00
 P   1 1.00       0.000000000000
      0.7156000000D+00  0.1000000000D+01
 P   1 1.00       0.000000000000
      0.2140000000D+00  0.1000000000D+01
 P   1 1.00       0.000000000000
      0.5974000000D-01  0.1000000000D+01
 D   1 1.00       0.000000000000
      0.2314000000D+01  0.1000000000D+01
 D   1 1.00       0.000000000000
      0.6450000000D+00  0.1000000000D+01
 D   1 1.00       0.000000000000
      0.2140000000D+00  0.1000000000D+01
 F   1 1.00       0.000000000000
      0.1428000000D+01  0.1000000000D+01
 F   1 1.00       0.000000000000
      0.5000000000D+00  0.1000000000D+01
 ****
      3 0
 S   7 1.00       0.000000000000
      0.1533000000D+05  0.5198089434D-03
      0.2299000000D+04  0.4020256215D-02
      0.5224000000D+03  0.2071282673D-01
      0.1473000000D+03  0.8101055358D-01
      0.4755000000D+02  0.2359629851D+00
      0.1676000000D+02  0.4426534455D+00
      0.6207000000D+01  0.3570644227D+00
 S   6 1.00       0.000000000000
      0.5224000000D+03 -0.4421150084D-04
      0.1473000000D+03 -0.1225910413D-02
      0.4755000000D+02 -0.1055177248D-01
      0.1676000000D+02 -0.6744526326D-01
      0.6207000000D+01 -0.1711986073D+00
      0.6882000000D+00  0.1073298561D+01
 S   1 1.00       0.000000000000
      0.1752000000D+01  0.1000000000D+01
 S   1 1.00       0.000000000000
      0.2384000000D+00  0.1000000000D+01
 S   1 1.00       0.000000000000
      0.7376000000D-01  0.1000000000D+01
 P   3 1.00       0.000000000000
      0.3446000000D+02  0.4116348957D-01
      0.7749000000D+01  0.2577628359D+00
      0.2280000000D+01  0.8024192744D+00
 P   1 1.00       0.000000000000
      0.7156000000D+00  0.1000000000D+01
 P   1 1.00       0.000000000000
      0.2140000000D+00  0.1000000000D+01
 P   1 1.00       0.000000000000
      0.5974000000D-01  0.1000000000D+01
 D   1 1.00       0.000000000000
      0.2314000000D+01  0.1000000000D+01
 D   1 1.00       0.000000000000
      0.6450000000D+00  0.1000000000D+01
 D   1 1.00       0.000000000000
      0.2140000000D+00  0.1000000000D+01
 F   1 1.00       0.000000000000
      0.1428000000D+01  0.1000000000D+01
 F   1 1.00       0.000000000000
      0.5000000000D+00  0.1000000000D+01
 ****
      4 0
 S   7 1.00       0.000000000000
      0.1533000000D+05  0.5198089434D-03
      0.2299000000D+04  0.4020256215D-02
      0.5224000000D+03  0.2071282673D-01
      0.1473000000D+03  0.8101055358D-01
      0.4755000000D+02  0.2359629851D+00
      0.1676000000D+02  0.4426534455D+00
      0.6207000000D+01  0.3570644227D+00
 S   6 1.00       0.000000000000
      0.5224000000D+03 -0.4421150084D-04
      0.1473000000D+03 -0.1225910413D-02
      0.4755000000D+02 -0.1055177248D-01
      0.1676000000D+02 -0.6744526326D-01
      0.6207000000D+01 -0.1711986073D+00
      0.6882000000D+00  0.1073298561D+01
 S   1 1.00       0.000000000000
      0.1752000000D+01  0.1000000000D+01
 S   1 1.00       0.000000000000
      0.2384000000D+00  0.1000000000D+01
 S   1 1.00       0.000000000000
      0.7376000000D-01  0.1000000000D+01
 P   3 1.00       0.000000000000
      0.3446000000D+02  0.4116348957D-01
      0.7749000000D+01  0.2577628359D+00
      0.2280000000D+01  0.8024192744D+00
 P   1 1.00       0.000000000000
      0.7156000000D+00  0.1000000000D+01
 P   1 1.00       0.000000000000
      0.2140000000D+00  0.1000000000D+01
 P   1 1.00       0.000000000000
      0.5974000000D-01  0.1000000000D+01
 D   1 1.00       0.000000000000
      0.2314000000D+01  0.1000000000D+01
 D   1 1.00       0.000000000000
      0.6450000000D+00  0.1000000000D+01
 D   1 1.00       0.000000000000
      0.2140000000D+00  0.1000000000D+01
 F   1 1.00       0.000000000000
      0.1428000000D+01  0.1000000000D+01
 F   1 1.00       0.000000000000
      0.5000000000D+00  0.1000000000D+01
 ****
      5 0
 S   7 1.00       0.000000000000
      0.8236000000D+04  0.5419783203D-03
      0.1235000000D+04  0.4192873817D-02
      0.2808000000D+03  0.2152216205D-01
      0.7927000000D+02  0.8353432195D-01
      0.2559000000D+02  0.2395828457D+00
      0.8997000000D+01  0.4428528419D+00
      0.3319000000D+01  0.3517995618D+00
 S   6 1.00       0.000000000000
      0.2808000000D+03 -0.5949224937D-04
      0.7927000000D+02 -0.1148158310D-02
      0.2559000000D+02 -0.1001913745D-01
      0.8997000000D+01 -0.6121949230D-01
      0.3319000000D+01 -0.1732698541D+00
      0.3643000000D+00  0.1072915192D+01
 S   1 1.00       0.000000000000
      0.9059000000D+00  0.1000000000D+01
 S   1 1.00       0.000000000000
      0.1285000000D+00  0.1000000000D+01
 S   1 1.00       0.000000000000
      0.4402000000D-01  0.1000000000D+01
 P   3 1.00       0.000000000000
      0.1871000000D+02  0.3942638716D-01
      0.4133000000D+01  0.2440889849D+00
      0.1200000000D+01  0.8154920089D+00
 P   1 1.00       0.000000000000
      0.3827000000D+00  0.1000000000D+01
 P   1 1.00       0.000000000000
      0.1209000000D+00  0.1000000000D+01
 P   1 1.00       0.000000000000
      0.3569000000D-01  0.1000000000D+01
 D   1 1.00       0.000000000000
      0.1097000000D+01  0.1000000000D+01
 D   1 1.00       0.000000000000
      0.3180000000D+00  0.1000000000D+01
 D   1 1.00       0.000000000000
      0.1000000000D+00  0.1000000000D+01
 F   1 1.00       0.000000000000
      0.7610000000D+00  0.1000000000D+01
 F   1 1.00       0.000000000000
      0.2680000000D+00  0.1000000000D+01
 ****
      6 0
 S   3 1.00       0.000000000000
      0.3387000000D+02  0.2549486323D-01
      0.5095000000D+01  0.1903627659D+00
      0.1159000000D+01  0.8521620222D+00
 S   1 1.00       0.000000000000
      0.3258000000D+00  0.1000000000D+01
 S   1 1.00       0.000000000000
      0.1027000000D+00  0.1000000000D+01
 S   1 1.00       0.000000000000
      0.2526000000D-01  0.1000000000D+01
 P   1 1.00       0.000000000000
      0.1407000000D+01  0.1000000000D+01
 P   1 1.00       0.000000000000
      0.3880000000D+00  0.1000000000D+01
 P   1 1.00       0.000000000000
      0.1020000000D+00  0.1000000000D+01
 D   1 1.00       0.000000000000
      0.1057000000D+01  0.1000000000D+01
 D   1 1.00       0.000000000000
      0.2470000000D+00  0.1000000000D+01
 ****
      7 0
 S   3 1.00       0.000000000000
      0.3387000000D+02  0.2549486323D-01
      0.5095000000D+01  0.1903627659D+00
      0.1159000000D+01  0.8521620222D+00
 S   1 1.00       0.000000000000
      0.3258000000D+00  0.1000000000D+01
 S   1 1.00       0.000000000000
      0.1027000000D+00  0.1000000000D+01
 S   1 1.00       0.000000000000
      0.2526000000D-01  0.1000000000D+01
 P   1 1.00       0.000000000000
      0.1407000000D+01  0.1000000000D+01
 P   1 1.00       0.000000000000
      0.3880000000D+00  0.1000000000D+01
 P   1 1.00       0.000000000000
      0.1020000000D+00  0.1000000000D+01
 D   1 1.00       0.000000000000
      0.1057000000D+01  0.1000000000D+01
 D   1 1.00       0.000000000000
      0.2470000000D+00  0.1000000000D+01
 ****
      8 0
 S   3 1.00       0.000000000000
      0.3387000000D+02  0.2549486323D-01
      0.5095000000D+01  0.1903627659D+00
      0.1159000000D+01  0.8521620222D+00
 S   1 1.00       0.000000000000
      0.3258000000D+00  0.1000000000D+01
 S   1 1.00       0.000000000000
      0.1027000000D+00  0.1000000000D+01
 S   1 1.00       0.000000000000
      0.2526000000D-01  0.1000000000D+01
 P   1 1.00       0.000000000000
      0.1407000000D+01  0.1000000000D+01
 P   1 1.00       0.000000000000
      0.3880000000D+00  0.1000000000D+01
 P   1 1.00       0.000000000000
      0.1020000000D+00  0.1000000000D+01
 D   1 1.00       0.000000000000
      0.1057000000D+01  0.1000000000D+01
 D   1 1.00       0.000000000000
      0.2470000000D+00  0.1000000000D+01
 ****
      9 0
 S   3 1.00       0.000000000000
      0.3387000000D+02  0.2549486323D-01
      0.5095000000D+01  0.1903627659D+00
      0.1159000000D+01  0.8521620222D+00
 S   1 1.00       0.000000000000
      0.3258000000D+00  0.1000000000D+01
 S   1 1.00       0.000000000000
      0.1027000000D+00  0.1000000000D+01
 S   1 1.00       0.000000000000
      0.2526000000D-01  0.1000000000D+01
 P   1 1.00       0.000000000000
      0.1407000000D+01  0.1000000000D+01
 P   1 1.00       0.000000000000
      0.3880000000D+00  0.1000000000D+01
 P   1 1.00       0.000000000000
      0.1020000000D+00  0.1000000000D+01
 D   1 1.00       0.000000000000
      0.1057000000D+01  0.1000000000D+01
 D   1 1.00       0.000000000000
      0.2470000000D+00  0.1000000000D+01
 ****
     10 0
 S   3 1.00       0.000000000000
      0.3387000000D+02  0.2549486323D-01
      0.5095000000D+01  0.1903627659D+00
      0.1159000000D+01  0.8521620222D+00
 S   1 1.00       0.000000000000
      0.3258000000D+00  0.1000000000D+01
 S   1 1.00       0.000000000000
      0.1027000000D+00  0.1000000000D+01
 S   1 1.00       0.000000000000
      0.2526000000D-01  0.1000000000D+01
 P   1 1.00       0.000000000000
      0.1407000000D+01  0.1000000000D+01
 P   1 1.00       0.000000000000
      0.3880000000D+00  0.1000000000D+01
 P   1 1.00       0.000000000000
      0.1020000000D+00  0.1000000000D+01
 D   1 1.00       0.000000000000
      0.1057000000D+01  0.1000000000D+01
 D   1 1.00       0.000000000000
      0.2470000000D+00  0.1000000000D+01
 ****
     11 0
 S   7 1.00       0.000000000000
      0.8236000000D+04  0.5419783203D-03
      0.1235000000D+04  0.4192873817D-02
      0.2808000000D+03  0.2152216205D-01
      0.7927000000D+02  0.8353432195D-01
      0.2559000000D+02  0.2395828457D+00
      0.8997000000D+01  0.4428528419D+00
      0.3319000000D+01  0.3517995618D+00
 S   6 1.00       0.000000000000
      0.2808000000D+03 -0.5949224937D-04
      0.7927000000D+02 -0.1148158310D-02
      0.2559000000D+02 -0.1001913745D-01
      0.8997000000D+01 -0.6121949230D-01
      0.3319000000D+01 -0.1732698541D+00
      0.3643000000D+00  0.1072915192D+01
 S   1 1.00       0.000000000000
      0.9059000000D+00  0.1000000000D+01
 S   1 1.00       0.000000000000
      0.1285000000D+00  0.1000000000D+01
 S   1 1.00       0.000000000000
      0.4402000000D-01  0.1000000000D+01
 P   3 1.00       0.000000000000
      0.1871000000D+02  0.3942638716D-01
      0.4133000000D+01  0.2440889849D+00
      0.1200000000D+01  0.8154920089D+00
 P   1 1.00       0.000000000000
      0.3827000000D+00  0.1000000000D+01
 P   1 1.00       0.000000000000
      0.1209000000D+00  0.1000000000D+01
 P   1 1.00       0.000000000000
      0.3569000000D-01  0.1000000000D+01
 D   1 1.00       0.000000000000
      0.1097000000D+01  0.1000000000D+01
 D   1 1.00       0.000000000000
      0.3180000000D+00  0.1000000000D+01
 D   1 1.00       0.000000000000
      0.1000000000D+00  0.1000000000D+01
 F   1 1.00       0.000000000000
      0.7610000000D+00  0.1000000000D+01
 F   1 1.00       0.000000000000
      0.2680000000D+00  0.1000000000D+01
 ****
     12 0
 S   3 1.00       0.000000000000
      0.3387000000D+02  0.2549486323D-01
      0.5095000000D+01  0.1903627659D+00
      0.1159000000D+01  0.8521620222D+00
 S   1 1.00       0.000000000000
      0.3258000000D+00  0.1000000000D+01
 S   1 1.00       0.000000000000
      0.1027000000D+00  0.1000000000D+01
 S   1 1.00       0.000000000000
      0.2526000000D-01  0.1000000000D+01
 P   1 1.00       0.000000000000
      0.1407000000D+01  0.1000000000D+01
 P   1 1.00       0.000000000000
      0.3880000000D+00  0.1000000000D+01
 P   1 1.00       0.000000000000
      0.1020000000D+00  0.1000000000D+01
 D   1 1.00       0.000000000000
      0.1057000000D+01  0.1000000000D+01
 D   1 1.00       0.000000000000
      0.2470000000D+00  0.1000000000D+01
 ****
     13 0
 S   3 1.00       0.000000000000
      0.3387000000D+02  0.2549486323D-01
      0.5095000000D+01  0.1903627659D+00
      0.1159000000D+01  0.8521620222D+00
 S   1 1.00       0.000000000000
      0.3258000000D+00  0.1000000000D+01
 S   1 1.00       0.000000000000
      0.1027000000D+00  0.1000000000D+01
 S   1 1.00       0.000000000000
      0.2526000000D-01  0.1000000000D+01
 P   1 1.00       0.000000000000
      0.1407000000D+01  0.1000000000D+01
 P   1 1.00       0.000000000000
      0.3880000000D+00  0.1000000000D+01
 P   1 1.00       0.000000000000
      0.1020000000D+00  0.1000000000D+01
 D   1 1.00       0.000000000000
      0.1057000000D+01  0.1000000000D+01
 D   1 1.00       0.000000000000
      0.2470000000D+00  0.1000000000D+01
 ****
     14 0
 S   3 1.00       0.000000000000
      0.3387000000D+02  0.2549486323D-01
      0.5095000000D+01  0.1903627659D+00
      0.1159000000D+01  0.8521620222D+00
 S   1 1.00       0.000000000000
      0.3258000000D+00  0.1000000000D+01
 S   1 1.00       0.000000000000
      0.1027000000D+00  0.1000000000D+01
 S   1 1.00       0.000000000000
      0.2526000000D-01  0.1000000000D+01
 P   1 1.00       0.000000000000
      0.1407000000D+01  0.1000000000D+01
 P   1 1.00       0.000000000000
      0.3880000000D+00  0.1000000000D+01
 P   1 1.00       0.000000000000
      0.1020000000D+00  0.1000000000D+01
 D   1 1.00       0.000000000000
      0.1057000000D+01  0.1000000000D+01
 D   1 1.00       0.000000000000
      0.2470000000D+00  0.1000000000D+01
 ****
     15 0
 S   7 1.00       0.000000000000
      0.8236000000D+04  0.5419783203D-03
      0.1235000000D+04  0.4192873817D-02
      0.2808000000D+03  0.2152216205D-01
      0.7927000000D+02  0.8353432195D-01
      0.2559000000D+02  0.2395828457D+00
      0.8997000000D+01  0.4428528419D+00
      0.3319000000D+01  0.3517995618D+00
 S   6 1.00       0.000000000000
      0.2808000000D+03 -0.5949224937D-04
      0.7927000000D+02 -0.1148158310D-02
      0.2559000000D+02 -0.1001913745D-01
      0.8997000000D+01 -0.6121949230D-01
      0.3319000000D+01 -0.1732698541D+00
      0.3643000000D+00  0.1072915192D+01
 S   1 1.00       0.000000000000
      0.9059000000D+00  0.1000000000D+01
 S   1 1.00       0.000000000000
      0.1285000000D+00  0.1000000000D+01
 S   1 1.00       0.000000000000
      0.4402000000D-01  0.1000000000D+01
 P   3 1.00       0.000000000000
      0.1871000000D+02  0.3942638716D-01
      0.4133000000D+01  0.2440889849D+00
      0.1200000000D+01  0.8154920089D+00
 P   1 1.00       0.000000000000
      0.3827000000D+00  0.1000000000D+01
 P   1 1.00       0.000000000000
      0.1209000000D+00  0.1000000000D+01
 P   1 1.00       0.000000000000
      0.3569000000D-01  0.1000000000D+01
 D   1 1.00       0.000000000000
      0.1097000000D+01  0.1000000000D+01
 D   1 1.00       0.000000000000
      0.3180000000D+00  0.1000000000D+01
 D   1 1.00       0.000000000000
      0.1000000000D+00  0.1000000000D+01
 F   1 1.00       0.000000000000
      0.7610000000D+00  0.1000000000D+01
 F   1 1.00       0.000000000000
      0.2680000000D+00  0.1000000000D+01
 ****
     16 0
 S   3 1.00       0.000000000000
      0.3387000000D+02  0.2549486323D-01
      0.5095000000D+01  0.1903627659D+00
      0.1159000000D+01  0.8521620222D+00
 S   1 1.00       0.000000000000
      0.3258000000D+00  0.1000000000D+01
 S   1 1.00       0.000000000000
      0.1027000000D+00  0.1000000000D+01
 S   1 1.00       0.000000000000
      0.2526000000D-01  0.1000000000D+01
 P   1 1.00       0.000000000000
      0.1407000000D+01  0.1000000000D+01
 P   1 1.00       0.000000000000
      0.3880000000D+00  0.1000000000D+01
 P   1 1.00       0.000000000000
      0.1020000000D+00  0.1000000000D+01
 D   1 1.00       0.000000000000
      0.1057000000D+01  0.1000000000D+01
 D   1 1.00       0.000000000000
      0.2470000000D+00  0.1000000000D+01
 ****
     17 0
 S   3 1.00       0.000000000000
      0.3387000000D+02  0.2549486323D-01
      0.5095000000D+01  0.1903627659D+00
      0.1159000000D+01  0.8521620222D+00
 S   1 1.00       0.000000000000
      0.3258000000D+00  0.1000000000D+01
 S   1 1.00       0.000000000000
      0.1027000000D+00  0.1000000000D+01
 S   1 1.00       0.000000000000
      0.2526000000D-01  0.1000000000D+01
 P   1 1.00       0.000000000000
      0.1407000000D+01  0.1000000000D+01
 P   1 1.00       0.000000000000
      0.3880000000D+00  0.1000000000D+01
 P   1 1.00       0.000000000000
      0.1020000000D+00  0.1000000000D+01
 D   1 1.00       0.000000000000
      0.1057000000D+01  0.1000000000D+01
 D   1 1.00       0.000000000000
      0.2470000000D+00  0.1000000000D+01
 ****
     18 0
 S   3 1.00       0.000000000000
      0.3387000000D+02  0.2549486323D-01
      0.5095000000D+01  0.1903627659D+00
      0.1159000000D+01  0.8521620222D+00
 S   1 1.00       0.000000000000
      0.3258000000D+00  0.1000000000D+01
 S   1 1.00       0.000000000000
      0.1027000000D+00  0.1000000000D+01
 S   1 1.00       0.000000000000
      0.2526000000D-01  0.1000000000D+01
 P   1 1.00       0.000000000000
      0.1407000000D+01  0.1000000000D+01
 P   1 1.00       0.000000000000
      0.3880000000D+00  0.1000000000D+01
 P   1 1.00       0.000000000000
      0.1020000000D+00  0.1000000000D+01
 D   1 1.00       0.000000000000
      0.1057000000D+01  0.1000000000D+01
 D   1 1.00       0.000000000000
      0.2470000000D+00  0.1000000000D+01
 ****
     19 0
 S   6 1.00       0.000000000000
      0.3547910044D+05  0.5618499111D-03
      0.5318472898D+04  0.4355197381D-02
      0.1210481098D+04  0.2261824715D-01
      0.3428551814D+03  0.9140305514D-01
      0.1120194318D+03  0.2911687069D+00
      0.4071474025D+02  0.6777270856D+00
 S   2 1.00       0.000000000000
      0.1603967811D+02  0.6329641788D+00
      0.6503818674D+01  0.4013647573D+00
 S   1 1.00       0.000000000000
      0.1544047751D+01  0.1000000000D+01
 S   1 1.00       0.000000000000
      0.6122345286D+00  0.1000000000D+01
 S   1 1.00       0.000000000000
      0.2402797970D+00  0.1000000000D+01
 P   4 1.00       0.000000000000
      0.8023390048D+02  0.1232134514D-01
      0.1859401074D+02  0.8571339535D-01
      0.5686790265D+01  0.3263310550D+00
      0.1951100629D+01  0.6997111464D+00
 P   1 1.00       0.000000000000
      0.6697021130D+00  0.1000000000D+01
 P   1 1.00       0.000000000000
      0.2165130041D+00  0.1000000000D+01
 D   1 1.00       0.000000000000
      0.3107000000D+01  0.1000000000D+01
 D   1 1.00       0.000000000000
      0.8550000000D+00  0.1000000000D+01
 F   1 1.00       0.000000000000
      0.1917000000D+01  0.1000000000D+01
 ****

 There are   696 symmetry adapted cartesian basis functions of A   symmetry.
 There are   606 symmetry adapted basis functions of A   symmetry.
   606 basis functions,   852 primitive gaussians,   696 cartesian basis functions
    34 alpha electrons       34 beta electrons
       nuclear repulsion energy       452.3329082244 Hartrees.
 NAtoms=   19 NActive=   19 NUniq=   19 SFac= 1.00D+00 NAtFMM=   60 NAOKFM=F Big=F
 Integral buffers will be    131072 words long.
 Raffenetti 2 integral format.
 Two-electron integral symmetry is turned on.
 One-electron integrals computed using PRISM.
 PrsmSu:  requested number of processors reduced to:   3 ShMem   1 Linda.
   1 Symmetry operations used in ECPInt.
 ECPInt:  NShTT=   21736 NPrTT=   54943 LenC2=   21450 LenP2D=   45532.
 LDataN:  DoStor=T MaxTD1= 6 Len=  172
 Number of processors reduced to   7 by ecpmxn.
 NBasis=   606 RedAO= T EigKep=  8.34D-06  NBF=   606
 NBsUse=   606 1.00D-06 EigRej= -1.00D+00 NBFU=   606
 ExpMin= 2.53D-02 ExpMax= 3.55D+04 ExpMxC= 1.21D+03 IAcc=3 IRadAn=         5 AccDes= 0.00D+00
 Harris functional with IExCor=  402 and IRadAn=       5 diagonalized for initial guess.
 HarFok:  IExCor=  402 AccDes= 0.00D+00 IRadAn=         5 IDoV= 1 UseB2=F ITyADJ=14
 ICtDFT=  3500011 ScaDFX=  1.000000  1.000000  1.000000  1.000000
 FoFCou: FMM=F IPFlag=           0 FMFlag=      100000 FMFlg1=           0
         NFxFlg=           0 DoJE=T BraDBF=F KetDBF=T FulRan=T
         wScrn=  0.000000 ICntrl=     500 IOpCl=  0 I1Cent=   200000004 NGrid=           0
         NMat0=    1 NMatS0=      1 NMatT0=    0 NMatD0=    1 NMtDS0=    0 NMtDT0=    0
 Petite list used in FoFCou.
 Requested convergence on RMS density matrix=1.00D-08 within 128 cycles.
 Requested convergence on MAX density matrix=1.00D-06.
 Requested convergence on             energy=1.00D-06.
 No special actions if energy rises.
 SCF Done:  E(RB3LYP) =  -484.712754666     A.U. after   12 cycles
            NFock= 12  Conv=0.53D-08     -V/T= 2.0060
 DoSCS=F DFT=T ScalE2(SS,OS)=  1.000000  1.000000
 Range of M.O.s used for correlation:     1   606
 NBasis=   606 NAE=    34 NBE=    34 NFC=     0 NFV=     0
 NROrb=    606 NOA=    34 NOB=    34 NVA=   572 NVB=   572

 **** Warning!!: The largest alpha MO coefficient is  0.43079604D+02

 PrsmSu:  requested number of processors reduced to:   3 ShMem   1 Linda.
 PrsmSu:  requested number of processors reduced to:   1 ShMem   1 Linda.
   1 Symmetry operations used in ECPInt.
 ECPInt:  NShTT=   21736 NPrTT=   54943 LenC2=   21450 LenP2D=   45532.
 LDataN:  DoStor=T MaxTD1= 7 Len=  274
 Number of processors reduced to   1 by ecpmxn.
 Symmetrizing basis deriv contribution to polar:
 IMax=3 JMax=2 DiffMx= 0.00D+00
 G2DrvN: will do     2 centers at a time, making   10 passes.
 Estimated number of processors is:    5
 Calling FoFCou, ICntrl=  3107 FMM=F I1Cent=   0 AccDes= 0.00D+00.
 CoulSu:  requested number of processors reduced to:   5 ShMem   1 Linda.
 Calling FoFCou, ICntrl=  3107 FMM=F I1Cent=   0 AccDes= 0.00D+00.
 CoulSu:  requested number of processors reduced to:   5 ShMem   1 Linda.
 Calling FoFCou, ICntrl=  3107 FMM=F I1Cent=   0 AccDes= 0.00D+00.
 CoulSu:  requested number of processors reduced to:   5 ShMem   1 Linda.
 Calling FoFCou, ICntrl=  3107 FMM=F I1Cent=   0 AccDes= 0.00D+00.
 CoulSu:  requested number of processors reduced to:   5 ShMem   1 Linda.
 Calling FoFCou, ICntrl=  3107 FMM=F I1Cent=   0 AccDes= 0.00D+00.
 CoulSu:  requested number of processors reduced to:   5 ShMem   1 Linda.
 Calling FoFCou, ICntrl=  3107 FMM=F I1Cent=   0 AccDes= 0.00D+00.
 CoulSu:  requested number of processors reduced to:   5 ShMem   1 Linda.
 Calling FoFCou, ICntrl=  3107 FMM=F I1Cent=   0 AccDes= 0.00D+00.
 CoulSu:  requested number of processors reduced to:   5 ShMem   1 Linda.
 Calling FoFCou, ICntrl=  3107 FMM=F I1Cent=   0 AccDes= 0.00D+00.
 CoulSu:  requested number of processors reduced to:   5 ShMem   1 Linda.
 Calling FoFCou, ICntrl=  3107 FMM=F I1Cent=   0 AccDes= 0.00D+00.
 CoulSu:  requested number of processors reduced to:   5 ShMem   1 Linda.
 Calling FoFCou, ICntrl=  3107 FMM=F I1Cent=   0 AccDes= 0.00D+00.
 CoulSu:  requested number of processors reduced to:   5 ShMem   1 Linda.
 End of G2Drv F.D. properties file   721 does not exist.
 End of G2Drv F.D. properties file   722 does not exist.
 End of G2Drv F.D. properties file   788 does not exist.
          IDoAtm=1111111111111111111
          Differentiating once with respect to nuclear coordinates.
 PrRfSu:  requested number of processors reduced to:   4 ShMem   1 Linda.
 PrRfSu:  requested number of processors reduced to:   4 ShMem   1 Linda.
 PrRfSu:  requested number of processors reduced to:   4 ShMem   1 Linda.
 PrRfSu:  requested number of processors reduced to:   4 ShMem   1 Linda.
 PrRfSu:  requested number of processors reduced to:   4 ShMem   1 Linda.
 PrRfSu:  requested number of processors reduced to:   4 ShMem   1 Linda.
 PrRfSu:  requested number of processors reduced to:   4 ShMem   1 Linda.
 PrRfSu:  requested number of processors reduced to:   4 ShMem   1 Linda.
 PrRfSu:  requested number of processors reduced to:   4 ShMem   1 Linda.
 PrRfSu:  requested number of processors reduced to:   4 ShMem   1 Linda.
          There are    60 degrees of freedom in the 1st order CPHF.  IDoFFX=6 NUNeed=     0.
     57 vectors produced by pass  0 Test12= 3.24D-14 1.67D-09 XBig12= 1.86D-01 5.60D-02.
 AX will form     6 AO Fock derivatives at one time.
 PrRfSu:  requested number of processors reduced to:   4 ShMem   1 Linda.
 PrRfSu:  requested number of processors reduced to:   4 ShMem   1 Linda.
 PrRfSu:  requested number of processors reduced to:   4 ShMem   1 Linda.
 PrRfSu:  requested number of processors reduced to:   4 ShMem   1 Linda.
 PrRfSu:  requested number of processors reduced to:   4 ShMem   1 Linda.
 PrRfSu:  requested number of processors reduced to:   4 ShMem   1 Linda.
 PrRfSu:  requested number of processors reduced to:   4 ShMem   1 Linda.
 PrRfSu:  requested number of processors reduced to:   4 ShMem   1 Linda.
 PrRfSu:  requested number of processors reduced to:   4 ShMem   1 Linda.
     57 vectors produced by pass  1 Test12= 3.24D-14 1.67D-09 XBig12= 5.13D-02 3.44D-02.
 PrRfSu:  requested number of processors reduced to:   4 ShMem   1 Linda.
 PrRfSu:  requested number of processors reduced to:   4 ShMem   1 Linda.
 PrRfSu:  requested number of processors reduced to:   4 ShMem   1 Linda.
 PrRfSu:  requested number of processors reduced to:   4 ShMem   1 Linda.
 PrRfSu:  requested number of processors reduced to:   4 ShMem   1 Linda.
 PrRfSu:  requested number of processors reduced to:   4 ShMem   1 Linda.
 PrRfSu:  requested number of processors reduced to:   4 ShMem   1 Linda.
 PrRfSu:  requested number of processors reduced to:   4 ShMem   1 Linda.
 PrRfSu:  requested number of processors reduced to:   4 ShMem   1 Linda.
     57 vectors produced by pass  2 Test12= 3.24D-14 1.67D-09 XBig12= 5.83D-04 2.51D-03.
 PrRfSu:  requested number of processors reduced to:   4 ShMem   1 Linda.
 PrRfSu:  requested number of processors reduced to:   4 ShMem   1 Linda.
 PrRfSu:  requested number of processors reduced to:   4 ShMem   1 Linda.
 PrRfSu:  requested number of processors reduced to:   4 ShMem   1 Linda.
 PrRfSu:  requested number of processors reduced to:   4 ShMem   1 Linda.
 PrRfSu:  requested number of processors reduced to:   4 ShMem   1 Linda.
 PrRfSu:  requested number of processors reduced to:   4 ShMem   1 Linda.
 PrRfSu:  requested number of processors reduced to:   4 ShMem   1 Linda.
 PrRfSu:  requested number of processors reduced to:   4 ShMem   1 Linda.
     57 vectors produced by pass  3 Test12= 3.24D-14 1.67D-09 XBig12= 2.53D-06 1.68D-04.
 PrRfSu:  requested number of processors reduced to:   4 ShMem   1 Linda.
 PrRfSu:  requested number of processors reduced to:   4 ShMem   1 Linda.
 PrRfSu:  requested number of processors reduced to:   4 ShMem   1 Linda.
 PrRfSu:  requested number of processors reduced to:   4 ShMem   1 Linda.
 PrRfSu:  requested number of processors reduced to:   4 ShMem   1 Linda.
 PrRfSu:  requested number of processors reduced to:   4 ShMem   1 Linda.
 PrRfSu:  requested number of processors reduced to:   4 ShMem   1 Linda.
 PrRfSu:  requested number of processors reduced to:   4 ShMem   1 Linda.
 PrRfSu:  requested number of processors reduced to:   4 ShMem   1 Linda.
     57 vectors produced by pass  4 Test12= 3.24D-14 1.67D-09 XBig12= 6.14D-09 6.32D-06.
 PrRfSu:  requested number of processors reduced to:   4 ShMem   1 Linda.
 PrRfSu:  requested number of processors reduced to:   4 ShMem   1 Linda.
 PrRfSu:  requested number of processors reduced to:   4 ShMem   1 Linda.
 PrRfSu:  requested number of processors reduced to:   4 ShMem   1 Linda.
 PrRfSu:  requested number of processors reduced to:   4 ShMem   1 Linda.
 PrRfSu:  requested number of processors reduced to:   4 ShMem   1 Linda.
 PrRfSu:  requested number of processors reduced to:   4 ShMem   1 Linda.
 PrRfSu:  requested number of processors reduced to:   4 ShMem   1 Linda.
 PrRfSu:  requested number of processors reduced to:   4 ShMem   1 Linda.
     57 vectors produced by pass  5 Test12= 3.24D-14 1.67D-09 XBig12= 1.34D-11 2.72D-07.
 PrRfSu:  requested number of processors reduced to:   4 ShMem   1 Linda.
 PrRfSu:  requested number of processors reduced to:   4 ShMem   1 Linda.
 PrRfSu:  requested number of processors reduced to:   4 ShMem   1 Linda.
 PrRfSu:  requested number of processors reduced to:   4 ShMem   1 Linda.
 PrRfSu:  requested number of processors reduced to:   4 ShMem   1 Linda.
 PrRfSu:  requested number of processors reduced to:   4 ShMem   1 Linda.
 PrRfSu:  requested number of processors reduced to:   4 ShMem   1 Linda.
 PrRfSu:  requested number of processors reduced to:   4 ShMem   1 Linda.
 PrRfSu:  requested number of processors reduced to:   4 ShMem   1 Linda.
     34 vectors produced by pass  6 Test12= 3.24D-14 1.67D-09 XBig12= 1.26D-13 2.04D-08.
 PrRfSu:  requested number of processors reduced to:   4 ShMem   1 Linda.
 PrRfSu:  requested number of processors reduced to:   4 ShMem   1 Linda.
 PrRfSu:  requested number of processors reduced to:   4 ShMem   1 Linda.
 PrRfSu:  requested number of processors reduced to:   4 ShMem   1 Linda.
 PrRfSu:  requested number of processors reduced to:   4 ShMem   1 Linda.
      4 vectors produced by pass  7 Test12= 3.24D-14 1.67D-09 XBig12= 4.52D-15 4.26D-09.
      3 vectors produced by pass  8 Test12= 3.24D-14 1.67D-09 XBig12= 2.79D-15 4.04D-09.
      3 vectors produced by pass  9 Test12= 3.24D-14 1.67D-09 XBig12= 2.22D-15 3.37D-09.
      3 vectors produced by pass 10 Test12= 3.24D-14 1.67D-09 XBig12= 2.67D-15 4.63D-09.
      3 vectors produced by pass 11 Test12= 3.24D-14 1.67D-09 XBig12= 1.33D-15 2.06D-09.
      3 vectors produced by pass 12 Test12= 3.24D-14 1.67D-09 XBig12= 6.31D-15 4.77D-09.
      3 vectors produced by pass 13 Test12= 3.24D-14 1.67D-09 XBig12= 6.75D-15 5.55D-09.
      3 vectors produced by pass 14 Test12= 3.24D-14 1.67D-09 XBig12= 4.02D-15 4.39D-09.
      3 vectors produced by pass 15 Test12= 3.24D-14 1.67D-09 XBig12= 8.17D-15 5.93D-09.
      2 vectors produced by pass 16 Test12= 3.24D-14 1.67D-09 XBig12= 2.74D-15 3.40D-09.
 InvSVY:  IOpt=1 It=  1 EMax= 3.89D-16
 Solved reduced A of dimension   406 with    60 vectors.
 End of Minotr F.D. properties file   721 does not exist.
 End of Minotr F.D. properties file   722 does not exist.
 End of Minotr F.D. properties file   788 does not exist.

 **********************************************************************

            Population analysis using the SCF density.

 **********************************************************************

 Orbital symmetries:
       Occupied  (A) (A) (A) (A) (A) (A) (A) (A) (A) (A) (A) (A)
                 (A) (A) (A) (A) (A) (A) (A) (A) (A) (A) (A) (A)
                 (A) (A) (A) (A) (A) (A) (A) (A) (A) (A)
       Virtual   (A) (A) (A) (A) (A) (A) (A) (A) (A) (A) (A) (A)
                 (A) (A) (A) (A) (A) (A) (A) (A) (A) (A) (A) (A)
                 (A) (A) (A) (A) (A) (A) (A) (A) (A) (A) (A) (A)
                 (A) (A) (A) (A) (A) (A) (A) (A) (A) (A) (A) (A)
                 (A) (A) (A) (A) (A) (A) (A) (A) (A) (A) (A) (A)
                 (A) (A) (A) (A) (A) (A) (A) (A) (A) (A) (A) (A)
                 (A) (A) (A) (A) (A) (A) (A) (A) (A) (A) (A) (A)
                 (A) (A) (A) (A) (A) (A) (A) (A) (A) (A) (A) (A)
                 (A) (A) (A) (A) (A) (A) (A) (A) (A) (A) (A) (A)
                 (A) (A) (A) (A) (A) (A) (A) (A) (A) (A) (A) (A)
                 (A) (A) (A) (A) (A) (A) (A) (A) (A) (A) (A) (A)
                 (A) (A) (A) (A) (A) (A) (A) (A) (A) (A) (A) (A)
                 (A) (A) (A) (A) (A) (A) (A) (A) (A) (A) (A) (A)
                 (A) (A) (A) (A) (A) (A) (A) (A) (A) (A) (A) (A)
                 (A) (A) (A) (A) (A) (A) (A) (A) (A) (A) (A) (A)
                 (A) (A) (A) (A) (A) (A) (A) (A) (A) (A) (A) (A)
                 (A) (A) (A) (A) (A) (A) (A) (A) (A) (A) (A) (A)
                 (A) (A) (A) (A) (A) (A) (A) (A) (A) (A) (A) (A)
                 (A) (A) (A) (A) (A) (A) (A) (A) (A) (A) (A) (A)
                 (A) (A) (A) (A) (A) (A) (A) (A) (A) (A) (A) (A)
                 (A) (A) (A) (A) (A) (A) (A) (A) (A) (A) (A) (A)
                 (A) (A) (A) (A) (A) (A) (A) (A) (A) (A) (A) (A)
                 (A) (A) (A) (A) (A) (A) (A) (A) (A) (A) (A) (A)
                 (A) (A) (A) (A) (A) (A) (A) (A) (A) (A) (A) (A)
                 (A) (A) (A) (A) (A) (A) (A) (A) (A) (A) (A) (A)
                 (A) (A) (A) (A) (A) (A) (A) (A) (A) (A) (A) (A)
                 (A) (A) (A) (A) (A) (A) (A) (A) (A) (A) (A) (A)
                 (A) (A) (A) (A) (A) (A) (A) (A) (A) (A) (A) (A)
                 (A) (A) (A) (A) (A) (A) (A) (A) (A) (A) (A) (A)
                 (A) (A) (A) (A) (A) (A) (A) (A) (A) (A) (A) (A)
                 (A) (A) (A) (A) (A) (A) (A) (A) (A) (A) (A) (A)
                 (A) (A) (A) (A) (A) (A) (A) (A) (A) (A) (A) (A)
                 (A) (A) (A) (A) (A) (A) (A) (A) (A) (A) (A) (A)
                 (A) (A) (A) (A) (A) (A) (A) (A) (A) (A) (A) (A)
                 (A) (A) (A) (A) (A) (A) (A) (A) (A) (A) (A) (A)
                 (A) (A) (A) (A) (A) (A) (A) (A) (A) (A) (A) (A)
                 (A) (A) (A) (A) (A) (A) (A) (A) (A) (A) (A) (A)
                 (A) (A) (A) (A) (A) (A) (A) (A) (A) (A) (A) (A)
                 (A) (A) (A) (A) (A) (A) (A) (A) (A) (A) (A) (A)
                 (A) (A) (A) (A) (A) (A) (A) (A) (A) (A) (A) (A)
                 (A) (A) (A) (A) (A) (A) (A) (A) (A) (A) (A) (A)
                 (A) (A) (A) (A) (A) (A) (A) (A) (A) (A) (A) (A)
                 (A) (A) (A) (A) (A) (A) (A) (A) (A) (A) (A) (A)
                 (A) (A) (A) (A) (A) (A) (A) (A) (A) (A) (A) (A)
                 (A) (A) (A) (A) (A) (A) (A) (A) (A) (A) (A) (A)
                 (A) (A) (A) (A) (A) (A) (A) (A) (A) (A) (A) (A)
                 (A) (A) (A) (A) (A) (A) (A) (A) (A) (A) (A) (A)
                 (A) (A) (A) (A) (A) (A) (A) (A)
 The electronic state is 1-A.
 Alpha  occ. eigenvalues --  -24.65850 -19.16597 -19.16302 -19.07798 -10.33785
 Alpha  occ. eigenvalues --  -10.23755 -10.23706 -10.18443  -1.21249  -1.05834
 Alpha  occ. eigenvalues --   -1.02482  -0.98794  -0.75498  -0.71103  -0.69722
 Alpha  occ. eigenvalues --   -0.59527  -0.54385  -0.53577  -0.52204  -0.49222
 Alpha  occ. eigenvalues --   -0.47235  -0.46064  -0.45434  -0.45141  -0.41615
 Alpha  occ. eigenvalues --   -0.41085  -0.40322  -0.38468  -0.37090  -0.36159
 Alpha  occ. eigenvalues --   -0.34787  -0.30207  -0.27418  -0.26061
 Alpha virt. eigenvalues --   -0.01956  -0.00381   0.00409   0.00613   0.01972
 Alpha virt. eigenvalues --    0.02078   0.02894   0.03344   0.04111   0.04952
 Alpha virt. eigenvalues --    0.05191   0.05390   0.06192   0.06489   0.06744
 Alpha virt. eigenvalues --    0.07847   0.08234   0.08472   0.08590   0.09401
 Alpha virt. eigenvalues --    0.09489   0.09858   0.10156   0.10462   0.10738
 Alpha virt. eigenvalues --    0.10901   0.11664   0.11792   0.12689   0.13720
 Alpha virt. eigenvalues --    0.14204   0.14822   0.15242   0.15730   0.15893
 Alpha virt. eigenvalues --    0.16565   0.17540   0.18189   0.18615   0.18869
 Alpha virt. eigenvalues --    0.20061   0.20719   0.21212   0.21780   0.21987
 Alpha virt. eigenvalues --    0.22559   0.23805   0.24157   0.24346   0.25102
 Alpha virt. eigenvalues --    0.25791   0.25830   0.25979   0.26551   0.27218
 Alpha virt. eigenvalues --    0.27268   0.28321   0.28429   0.29192   0.29390
 Alpha virt. eigenvalues --    0.30167   0.30391   0.30889   0.30991   0.32026
 Alpha virt. eigenvalues --    0.32523   0.32852   0.33355   0.33827   0.34038
 Alpha virt. eigenvalues --    0.35019   0.35200   0.35765   0.36330   0.36514
 Alpha virt. eigenvalues --    0.36998   0.37355   0.37845   0.38432   0.39386
 Alpha virt. eigenvalues --    0.39557   0.40115   0.40241   0.41109   0.41337
 Alpha virt. eigenvalues --    0.42053   0.42372   0.43205   0.43652   0.44318
 Alpha virt. eigenvalues --    0.44996   0.45725   0.45885   0.46709   0.47308
 Alpha virt. eigenvalues --    0.47973   0.49512   0.49785   0.50219   0.50900
 Alpha virt. eigenvalues --    0.51343   0.52337   0.53039   0.53457   0.54781
 Alpha virt. eigenvalues --    0.55275   0.55855   0.57067   0.57164   0.58609
 Alpha virt. eigenvalues --    0.58975   0.60528   0.60966   0.61595   0.61995
 Alpha virt. eigenvalues --    0.64314   0.65456   0.65550   0.66778   0.67299
 Alpha virt. eigenvalues --    0.67586   0.68827   0.69305   0.69917   0.70235
 Alpha virt. eigenvalues --    0.71033   0.71723   0.72572   0.72811   0.74078
 Alpha virt. eigenvalues --    0.74628   0.75321   0.75627   0.77009   0.77898
 Alpha virt. eigenvalues --    0.78608   0.79116   0.79281   0.79906   0.80214
 Alpha virt. eigenvalues --    0.81274   0.81651   0.82229   0.82700   0.83933
 Alpha virt. eigenvalues --    0.85081   0.85481   0.86056   0.86701   0.86827
 Alpha virt. eigenvalues --    0.88337   0.88977   0.89894   0.89982   0.90810
 Alpha virt. eigenvalues --    0.91511   0.92250   0.92621   0.93080   0.93659
 Alpha virt. eigenvalues --    0.94388   0.95011   0.96349   0.97114   0.97501
 Alpha virt. eigenvalues --    0.98577   0.99338   0.99554   1.00546   1.00864
 Alpha virt. eigenvalues --    1.01001   1.01782   1.03226   1.03551   1.03992
 Alpha virt. eigenvalues --    1.04644   1.05754   1.06270   1.06676   1.07455
 Alpha virt. eigenvalues --    1.08380   1.09505   1.10325   1.11703   1.11899
 Alpha virt. eigenvalues --    1.12271   1.13322   1.14181   1.15061   1.15592
 Alpha virt. eigenvalues --    1.16907   1.17818   1.18145   1.19679   1.21144
 Alpha virt. eigenvalues --    1.21829   1.22118   1.22798   1.24377   1.25153
 Alpha virt. eigenvalues --    1.25583   1.26542   1.27013   1.28599   1.28948
 Alpha virt. eigenvalues --    1.29796   1.30623   1.31330   1.32094   1.33601
 Alpha virt. eigenvalues --    1.34158   1.34852   1.35258   1.36192   1.37204
 Alpha virt. eigenvalues --    1.38310   1.39688   1.40157   1.40704   1.42037
 Alpha virt. eigenvalues --    1.42171   1.43207   1.43865   1.44989   1.45357
 Alpha virt. eigenvalues --    1.46647   1.48538   1.48927   1.50069   1.50551
 Alpha virt. eigenvalues --    1.50985   1.52030   1.52469   1.53541   1.54238
 Alpha virt. eigenvalues --    1.54807   1.55704   1.56317   1.57204   1.57646
 Alpha virt. eigenvalues --    1.58254   1.59805   1.60126   1.60465   1.63288
 Alpha virt. eigenvalues --    1.63581   1.65014   1.65124   1.65814   1.67217
 Alpha virt. eigenvalues --    1.67694   1.67999   1.69020   1.70047   1.71579
 Alpha virt. eigenvalues --    1.72576   1.73002   1.73550   1.74774   1.75035
 Alpha virt. eigenvalues --    1.76919   1.78884   1.79783   1.80811   1.81939
 Alpha virt. eigenvalues --    1.84504   1.85818   1.86806   1.87094   1.87405
 Alpha virt. eigenvalues --    1.88222   1.90823   1.91502   1.91784   1.93697
 Alpha virt. eigenvalues --    1.93727   1.95385   1.96946   1.98876   1.99301
 Alpha virt. eigenvalues --    2.00169   2.01491   2.02201   2.02668   2.03140
 Alpha virt. eigenvalues --    2.04703   2.05016   2.05664   2.07479   2.08927
 Alpha virt. eigenvalues --    2.10443   2.12214   2.14678   2.16069   2.17442
 Alpha virt. eigenvalues --    2.21480   2.23350   2.24109   2.25241   2.31896
 Alpha virt. eigenvalues --    2.33614   2.34144   2.36001   2.37930   2.39225
 Alpha virt. eigenvalues --    2.41050   2.42836   2.43842   2.45563   2.50020
 Alpha virt. eigenvalues --    2.50840   2.51748   2.52811   2.54549   2.57249
 Alpha virt. eigenvalues --    2.58451   2.61494   2.63322   2.63860   2.65994
 Alpha virt. eigenvalues --    2.69527   2.70852   2.72195   2.74120   2.74633
 Alpha virt. eigenvalues --    2.76693   2.77142   2.79221   2.80514   2.81343
 Alpha virt. eigenvalues --    2.83381   2.85756   2.88627   2.89614   2.92303
 Alpha virt. eigenvalues --    2.92557   2.94482   2.97347   2.99901   3.02137
 Alpha virt. eigenvalues --    3.02668   3.04699   3.06084   3.12838   3.13653
 Alpha virt. eigenvalues --    3.14249   3.18345   3.18952   3.19749   3.22411
 Alpha virt. eigenvalues --    3.23436   3.25275   3.27153   3.30205   3.30452
 Alpha virt. eigenvalues --    3.31559   3.32223   3.33586   3.34018   3.35728
 Alpha virt. eigenvalues --    3.36648   3.37471   3.39331   3.40512   3.41504
 Alpha virt. eigenvalues --    3.43642   3.44393   3.44734   3.48115   3.48770
 Alpha virt. eigenvalues --    3.50670   3.51378   3.53222   3.53473   3.54761
 Alpha virt. eigenvalues --    3.55554   3.56456   3.57987   3.58784   3.60727
 Alpha virt. eigenvalues --    3.62249   3.62992   3.64682   3.66422   3.68629
 Alpha virt. eigenvalues --    3.69340   3.71010   3.72456   3.73153   3.74398
 Alpha virt. eigenvalues --    3.76757   3.77550   3.79737   3.81302   3.82357
 Alpha virt. eigenvalues --    3.85827   3.86292   3.88113   3.89133   3.90093
 Alpha virt. eigenvalues --    3.91077   3.92593   3.93522   3.95023   3.96041
 Alpha virt. eigenvalues --    3.96178   3.98742   3.99974   4.01271   4.02031
 Alpha virt. eigenvalues --    4.03926   4.04773   4.08039   4.09628   4.11618
 Alpha virt. eigenvalues --    4.12350   4.13662   4.15517   4.17621   4.18234
 Alpha virt. eigenvalues --    4.19886   4.21534   4.23230   4.24355   4.26218
 Alpha virt. eigenvalues --    4.27290   4.28041   4.31305   4.32301   4.34000
 Alpha virt. eigenvalues --    4.38300   4.39491   4.40354   4.42177   4.42669
 Alpha virt. eigenvalues --    4.44673   4.46065   4.46539   4.47261   4.47839
 Alpha virt. eigenvalues --    4.50335   4.51200   4.51552   4.52418   4.54898
 Alpha virt. eigenvalues --    4.56109   4.57364   4.59356   4.60688   4.62824
 Alpha virt. eigenvalues --    4.65176   4.68674   4.70965   4.72292   4.73206
 Alpha virt. eigenvalues --    4.74102   4.76445   4.78015   4.78816   4.80083
 Alpha virt. eigenvalues --    4.82542   4.83857   4.85077   4.85284   4.88629
 Alpha virt. eigenvalues --    4.90030   4.93324   4.96704   4.98145   4.99251
 Alpha virt. eigenvalues --    4.99927   5.01664   5.06256   5.06920   5.08180
 Alpha virt. eigenvalues --    5.09775   5.13577   5.15194   5.18925   5.20034
 Alpha virt. eigenvalues --    5.23868   5.24701   5.26005   5.27179   5.30177
 Alpha virt. eigenvalues --    5.31697   5.34506   5.37200   5.39316   5.42039
 Alpha virt. eigenvalues --    5.44258   5.50856   5.52653   5.57801   5.63603
 Alpha virt. eigenvalues --    5.65670   5.67480   5.69372   5.71075   5.74557
 Alpha virt. eigenvalues --    5.75031   5.78736   5.80020   5.83400   5.87564
 Alpha virt. eigenvalues --    5.92358   6.01938   6.15356   6.21499   6.24084
 Alpha virt. eigenvalues --    6.31510   6.35536   6.36949   6.39335   6.40126
 Alpha virt. eigenvalues --    6.49814   6.54817   6.59303   6.61714   6.64614
 Alpha virt. eigenvalues --    6.66233   6.66542   6.69169   6.73879   6.75346
 Alpha virt. eigenvalues --    6.77665   6.80769   6.84253   6.85936   6.89770
 Alpha virt. eigenvalues --    6.91233   6.94654   6.98574   7.00494   7.03360
 Alpha virt. eigenvalues --    7.05106   7.05919   7.14709   7.16659   7.20111
 Alpha virt. eigenvalues --    7.21857   7.23759   7.25743   7.28837   7.31160
 Alpha virt. eigenvalues --    7.40662   7.47446   7.49062   7.52914   7.57507
 Alpha virt. eigenvalues --    7.58387   7.65814   7.74079   7.75867   7.80972
 Alpha virt. eigenvalues --    7.86379   7.99830   8.13846   8.37329   8.78310
 Alpha virt. eigenvalues --    8.79641   9.15473   9.19650   9.32569  14.97777
 Alpha virt. eigenvalues --   15.43407  15.52018  16.79808  17.13478  17.68449
 Alpha virt. eigenvalues --   18.46847  58.23270
          Condensed to atoms (all electrons):
               1          2          3          4          5          6
     1  C    4.985967   0.049338   0.133679  -0.009408  -0.004916  -0.003034
     2  O    0.049338   8.842139  -0.129001  -0.049870   0.020705  -0.003367
     3  O    0.133679  -0.129001   8.567355  -0.250234   0.006554  -0.007706
     4  O   -0.009408  -0.049870  -0.250234   8.567553   0.017465   0.002685
     5  C   -0.004916   0.020705   0.006554   0.017465   5.318473   0.352618
     6  H   -0.003034  -0.003367  -0.007706   0.002685   0.352618   0.335038
     7  H    0.001478   0.001294  -0.004688   0.001202   0.389691   0.004825
     8  H   -0.001993   0.002420   0.005815  -0.037280   0.424061  -0.004299
     9  H   -0.028126   0.018245   0.075146   0.077971   0.010239  -0.003475
    10  H    0.021056   0.049217   0.053471   0.063487   0.009084   0.005862
    11  C   -0.214290   0.090722  -0.065928  -0.009515   0.003829   0.000131
    12  H   -0.052246  -0.021658   0.003948   0.001114  -0.000325  -0.000009
    13  H   -0.069905   0.012490  -0.032221  -0.000666   0.000424   0.000038
    14  H    0.008437   0.016620  -0.001320  -0.001708  -0.000171   0.000267
    15  C   -0.051463   0.005187   0.010705   0.017407  -0.002574   0.003630
    16  H    0.026354  -0.001265  -0.039781   0.008943  -0.000825   0.000716
    17  H   -0.030521   0.003667  -0.001205  -0.011460   0.002446   0.000623
    18  H   -0.020938   0.022157  -0.005542  -0.005158   0.007737  -0.002718
    19  F    0.219487  -0.032193  -0.065961   0.003066   0.002246   0.000179
               7          8          9         10         11         12
     1  C    0.001478  -0.001993  -0.028126   0.021056  -0.214290  -0.052246
     2  O    0.001294   0.002420   0.018245   0.049217   0.090722  -0.021658
     3  O   -0.004688   0.005815   0.075146   0.053471  -0.065928   0.003948
     4  O    0.001202  -0.037280   0.077971   0.063487  -0.009515   0.001114
     5  C    0.389691   0.424061   0.010239   0.009084   0.003829  -0.000325
     6  H    0.004825  -0.004299  -0.003475   0.005862   0.000131  -0.000009
     7  H    0.347130  -0.000669  -0.004572  -0.001801  -0.000218  -0.000034
     8  H   -0.000669   0.369142   0.003628   0.013625   0.001262  -0.000090
     9  H   -0.004572   0.003628   0.582215   0.012732   0.011824   0.002561
    10  H   -0.001801   0.013625   0.012732   0.577195  -0.010689  -0.000604
    11  C   -0.000218   0.001262   0.011824  -0.010689   5.625077   0.401925
    12  H   -0.000034  -0.000090   0.002561  -0.000604   0.401925   0.512860
    13  H   -0.000007   0.000093   0.001064  -0.001029   0.436281  -0.015276
    14  H   -0.000098   0.000177  -0.005424  -0.002299   0.388916  -0.048718
    15  C    0.000910  -0.000349   0.004399   0.006484   0.010434  -0.004822
    16  H    0.000320  -0.000492   0.010624   0.000926  -0.010632   0.001043
    17  H   -0.001375   0.001155  -0.007256   0.000310   0.013511  -0.001208
    18  H    0.000642   0.000674   0.013239  -0.005730   0.021597   0.001701
    19  F    0.000079   0.000450   0.007583   0.002058   0.009441   0.019130
              13         14         15         16         17         18
     1  C   -0.069905   0.008437  -0.051463   0.026354  -0.030521  -0.020938
     2  O    0.012490   0.016620   0.005187  -0.001265   0.003667   0.022157
     3  O   -0.032221  -0.001320   0.010705  -0.039781  -0.001205  -0.005542
     4  O   -0.000666  -0.001708   0.017407   0.008943  -0.011460  -0.005158
     5  C    0.000424  -0.000171  -0.002574  -0.000825   0.002446   0.007737
     6  H    0.000038   0.000267   0.003630   0.000716   0.000623  -0.002718
     7  H   -0.000007  -0.000098   0.000910   0.000320  -0.001375   0.000642
     8  H    0.000093   0.000177  -0.000349  -0.000492   0.001155   0.000674
     9  H    0.001064  -0.005424   0.004399   0.010624  -0.007256   0.013239
    10  H   -0.001029  -0.002299   0.006484   0.000926   0.000310  -0.005730
    11  C    0.436281   0.388916   0.010434  -0.010632   0.013511   0.021597
    12  H   -0.015276  -0.048718  -0.004822   0.001043  -0.001208   0.001701
    13  H    0.427153  -0.001201   0.011387  -0.003925   0.002787   0.001979
    14  H   -0.001201   0.439977   0.012709  -0.004434   0.005969  -0.004753
    15  C    0.011387   0.012709   5.395284   0.417298   0.406152   0.322202
    16  H   -0.003925  -0.004434   0.417298   0.389138  -0.020008   0.000551
    17  H    0.002787   0.005969   0.406152  -0.020008   0.434610  -0.016642
    18  H    0.001979  -0.004753   0.322202   0.000551  -0.016642   0.379222
    19  F    0.006573  -0.004998   0.005767  -0.000819   0.002006   0.001519
              19
     1  C    0.219487
     2  O   -0.032193
     3  O   -0.065961
     4  O    0.003066
     5  C    0.002246
     6  H    0.000179
     7  H    0.000079
     8  H    0.000450
     9  H    0.007583
    10  H    0.002058
    11  C    0.009441
    12  H    0.019130
    13  H    0.006573
    14  H   -0.004998
    15  C    0.005767
    16  H   -0.000819
    17  H    0.002006
    18  H    0.001519
    19  F    9.086986
 Mulliken charges:
               1
     1  C    1.041044
     2  O   -0.896848
     3  O   -0.253085
     4  O   -0.385596
     5  C   -0.556760
     6  H    0.317994
     7  H    0.265889
     8  H    0.222668
     9  H    0.217381
    10  H    0.206643
    11  C   -0.703677
    12  H    0.200709
    13  H    0.223962
    14  H    0.202053
    15  C   -0.570747
    16  H    0.226268
    17  H    0.216438
    18  H    0.288262
    19  F   -0.262598
 Sum of Mulliken charges =   0.00000
 Mulliken charges with hydrogens summed into heavy atoms:
               1
     1  C    1.041044
     2  O   -0.896848
     3  O   -0.035704
     4  O   -0.178953
     5  C    0.249791
    11  C   -0.076953
    15  C    0.160221
    19  F   -0.262598
 APT charges:
               1
     1  C    0.960425
     2  O   -0.851327
     3  O   -0.278563
     4  O   -0.396583
     5  C   -1.533657
     6  H    0.222063
     7  H    0.640659
     8  H    0.846810
     9  H    0.339792
    10  H    0.371874
    11  C   -1.928889
    12  H    0.597791
    13  H    0.565023
    14  H    0.558457
    15  C   -1.492966
    16  H    0.604825
    17  H    0.619220
    18  H    0.376779
    19  F   -0.221734
 Sum of APT charges =   0.00000
 APT charges with hydrogens summed into heavy atoms:
               1
     1  C    0.960425
     2  O   -0.851327
     3  O    0.061230
     4  O   -0.024709
     5  C    0.175876
    11  C   -0.207617
    15  C    0.107857
    19  F   -0.221734
 Electronic spatial extent (au):  <R**2>=           1146.9818
 Charge=              0.0000 electrons
 Dipole moment (field-independent basis, Debye):
    X=             -1.1956    Y=              3.6601    Z=              1.0758  Tot=              3.9979
 Quadrupole moment (field-independent basis, Debye-Ang):
   XX=            -40.7849   YY=            -49.0172   ZZ=            -54.1530
   XY=              0.9224   XZ=              0.3514   YZ=             -0.4348
 Traceless Quadrupole moment (field-independent basis, Debye-Ang):
   XX=              7.2001   YY=             -1.0321   ZZ=             -6.1680
   XY=              0.9224   XZ=              0.3514   YZ=             -0.4348
 Octapole moment (field-independent basis, Debye-Ang**2):
  XXX=             -5.7993  YYY=             -1.4982  ZZZ=             -8.1279  XYY=             -2.2020
  XXY=             -0.9302  XXZ=              7.0801  XZZ=             -1.0424  YZZ=              1.6877
  YYZ=             -3.1965  XYZ=              1.7905
 Hexadecapole moment (field-independent basis, Debye-Ang**3):
 XXXX=           -831.2052 YYYY=           -366.5314 ZZZZ=           -189.8365 XXXY=             -6.7615
 XXXZ=            -10.5957 YYYX=              1.0555 YYYZ=             -0.3771 ZZZX=             -4.0107
 ZZZY=             10.0677 XXYY=           -206.6178 XXZZ=           -180.9293 YYZZ=            -95.6434
 XXYZ=            -14.0425 YYXZ=             -1.4185 ZZXY=             -2.1194
 N-N= 4.523329082244D+02 E-N=-2.044754378440D+03  KE= 4.818400108454D+02
  Exact polarizability:   0.000   0.000   0.000   0.000   0.000   0.000
 Approx polarizability: 107.625   1.492 101.536  -0.742  -2.834  96.401
 PrsmSu:  requested number of processors reduced to:   4 ShMem   1 Linda.
 PrsmSu:  requested number of processors reduced to:   4 ShMem   1 Linda.
   1 Symmetry operations used in ECPInt.
 ECPInt:  NShTT=   21736 NPrTT=   54943 LenC2=   21450 LenP2D=   45532.
 LDataN:  DoStor=T MaxTD1= 8 Len=  415
 Calling FoFJK, ICntrl=    100147 FMM=F ISym2X=0 I1Cent= 0 IOpClX= 0 NMat=1 NMatS=1 NMatT=0.
 CoulSu:  requested number of processors reduced to:   4 ShMem   1 Linda.
 ***** Axes restored to original set *****
 -------------------------------------------------------------------
 Center     Atomic                   Forces (Hartrees/Bohr)
 Number     Number              X              Y              Z
 -------------------------------------------------------------------
      1        6          -0.043945717   -0.010898993    0.004110115
      2        8           0.018777659   -0.010258763    0.026218079
      3        8          -0.027222628    0.031576544   -0.006305928
      4        8           0.017466112   -0.005182952    0.015800754
      5        6           0.000531270   -0.009195075   -0.010018640
      6        1          -0.002753599   -0.000615195   -0.001971231
      7        1          -0.000646581   -0.001430480    0.007096185
      8        1           0.000553998    0.007417962    0.000856872
      9        1           0.019463754   -0.014478333    0.008438130
     10        1          -0.006199692    0.034613252   -0.022903245
     11        6           0.014538068    0.004138730    0.007494124
     12        1          -0.008722762    0.003311342   -0.004006549
     13        1          -0.004804275   -0.004490948    0.002156248
     14        1          -0.001646828   -0.003825698   -0.006090052
     15        6           0.004122831   -0.007449547   -0.010830721
     16        1          -0.006547054    0.002466955    0.003103470
     17        1           0.003245132    0.001423508    0.005576938
     18        1           0.000189248    0.002730845   -0.002117239
     19        9           0.023601063   -0.019853154   -0.016607309
 -------------------------------------------------------------------
 Cartesian Forces:  Max     0.043945717 RMS     0.013455175
 FormGI is forming the generalized inverse of G from B-inverse, IUseBI=4.

 GradGradGradGradGradGradGradGradGradGradGradGradGradGradGradGradGradGrad
 Berny optimization.
 Internal  Forces:  Max     0.028016762 RMS     0.008102968
 Search for a saddle point.
 Step number   1 out of a maximum of   99
 All quantities printed in internal units (Hartrees-Bohrs-Radians)
 Swapping is turned off.
 Second derivative matrix not updated -- analytic derivatives used.
 ITU=  0
     Eigenvalues ---   -0.05322   0.00145   0.00161   0.00184   0.00237
[...]
 1714,-0.05024326,-0.00155922,0.43061343,-0.00466726,-0.03123407,0.0255
 2394,0.04911547,0.01506970,0.00637822,-0.06743704,-0.00965752,-0.00519
 859,-0.05644296,0.21713973,0.00435352,0.02207816,-0.02683006,-0.059541
 47,0.00128682,0.00023415,0.02161404,0.00277542,0.01750099,-0.03875980,
 -0.01870161,0.23209586,-0.00374259,-0.00087982,0.00223899,0.00913988,-
 0.00015609,0.00041437,0.00827846,0.00330830,0.00035223,-0.16104198,0.0
 3619463,0.04807473,0.49097801,0.00111002,-0.00251915,0.00151738,0.0001
 4536,0.00135106,0.00060226,-0.01104090,-0.00805869,-0.00269727,0.04030
 950,-0.09939608,-0.00921974,0.03763750,0.57518761,0.00274641,0.0024068
 5,-0.00393106,-0.01248269,0.00015622,-0.00547643,-0.00459513,-0.003754
 23,0.00045237,0.06129663,-0.01403990,-0.10985622,0.05585595,-0.0325032
 6,0.55229876,0.00101352,0.00154549,-0.00182315,-0.00404980,-0.00040269
 ,-0.00135694,-0.00036675,-0.00112694,0.00037875,-0.02815704,0.02502310
 ,-0.01383938,-0.09996082,0.06873252,-0.07363377,0.11877637,-0.00054356
 ,-0.00031274,0.00067057,0.00179128,0.00004360,0.00065335,0.00061426,0.
 00037869,0.00009976,0.01231396,-0.00601109,0.00300121,0.07325355,-0.15
 347244,0.10357846,-0.08761942,0.16248257,-0.00008889,-0.00029572,0.000
 48662,0.00171053,-0.00002594,0.00100439,-0.00027877,-0.00007360,-0.000
 14236,0.01441136,-0.01606615,0.01445165,-0.08093465,0.10917498,-0.1600
 9996,0.07902365,-0.11259788,0.16478854,0.00066523,-0.00120601,0.000526
 91,-0.00046887,0.00066239,-0.00072242,-0.00366656,-0.00213804,-0.00087
 168,-0.03210020,-0.01914700,0.01463384,-0.12922112,-0.11655039,0.02228
 217,0.01110849,0.01158341,-0.00233278,0.15208816,0.00008381,0.00010726
 ,-0.00018782,-0.00030633,-0.00011760,-0.00001834,0.00132616,0.00103241
 ,0.00024904,0.01199926,0.01668769,-0.00507068,-0.12494564,-0.22536585,
 0.03984050,-0.01097238,-0.01482638,0.00209893,0.12939526,0.23424088,-0
 .00036280,0.00036123,-0.00002088,0.00037873,-0.00002194,0.00015100,0.0
 0218632,0.00157150,0.00032518,0.01868066,0.01183621,-0.00498599,0.0220
 2464,0.03493023,-0.05833196,0.01162084,0.01730344,-0.00266372,-0.03530
 513,-0.03963195,0.05965681,-0.00007962,-0.00002457,0.00064713,0.000049
 11,-0.00034095,-0.00051336,-0.00072384,-0.00034785,-0.00043156,-0.0038
 7066,0.01982008,0.03417814,-0.06944911,-0.03370638,-0.06210720,-0.0022
 1609,-0.00798385,-0.01118009,-0.00290758,-0.00687497,-0.01603851,0.074
 43599,-0.00009717,0.00063774,-0.00071365,0.00020730,-0.00029995,0.0009
 4908,0.00129415,0.00032051,0.00013082,0.00721473,-0.00395776,-0.011562
 07,-0.03079007,-0.10555343,-0.09582343,0.00456323,0.01145430,0.0176008
 0,-0.00783899,-0.01033037,-0.02261525,0.02866470,0.10859166,-0.0003742
 7,-0.00092736,0.00044304,0.00200163,0.00010059,0.00053963,0.00128948,0
 .00148536,0.00011796,0.01136664,-0.00941107,-0.01250418,-0.05652802,-0
 .09665882,-0.23300146,-0.00654676,-0.00945394,-0.01530080,0.00022872,0
 .00296264,0.00669544,0.05364259,0.11285433,0.25484431,-0.01380553,0.04
 803852,-0.02860959,-0.03070406,-0.01441900,0.00648915,0.00420908,0.010
 79279,0.01395367,-0.02339404,0.02212694,-0.01460087,-0.02187842,0.0055
 6871,0.00913210,0.00116783,-0.00148766,-0.00010911,0.00447393,-0.00008
 317,-0.00241490,0.00259963,-0.00188865,-0.00251400,0.01868633,0.013148
 47,0.03788482,-0.01304541,-0.02141215,-0.00905193,0.00323691,0.0423024
 1,-0.03080058,0.00794436,-0.00469245,-0.06544703,-0.00362307,-0.000305
 19,0.02217267,0.00118537,0.00127142,-0.00050216,0.00035173,0.00637845,
 -0.00177058,-0.00349225,0.00157297,-0.00106068,-0.00227510,-0.04562231
 ,0.09828695,-0.01161464,-0.00291206,0.00604008,0.00575457,-0.00017199,
 -0.00116240,0.00934923,0.00028949,-0.03098417,0.00105147,-0.00629375,-
 0.02960253,0.00742106,0.00556679,-0.00558246,-0.00102349,-0.00006947,0
 .00065511,0.00043829,-0.00078097,-0.00027357,0.00049020,0.00070908,-0.
 00004547,-0.00141166,-0.01050105,0.07467616,-0.03801952,-0.04362599,0.
 04805217,0.04092747,0.01154031,0.00369695,-0.02631794,0.01023310,-0.01
 036578,-0.05106889,-0.00565374,0.00219010,-0.02429489,0.01002058,0.002
 21827,0.00304435,-0.00217100,-0.00019924,0.00080713,0.00029604,-0.0011
 0727,0.00268495,-0.00115945,-0.00278945,0.04373245,0.01499186,0.001779
 76,0.04112306,-0.00621895,0.01132605,-0.01794181,-0.01668017,-0.028259
 49,0.00351919,0.00850825,-0.00064390,0.00177022,0.02027117,-0.04554163
 ,0.02307282,0.00941089,-0.00529171,-0.00239299,-0.00099627,0.00086625,
 -0.00024530,-0.00156586,0.00049182,0.00018416,-0.00056854,0.00054695,0
 .00153799,-0.00901465,-0.02522400,0.02046921,0.00041324,0.09495516,0.0
 0079940,-0.02374988,0.04045468,0.03284619,0.01073917,-0.03460778,-0.01
 497984,0.00685046,-0.00731868,-0.02773644,0.02988575,-0.08854956,0.003
 14975,-0.01098796,0.02119496,0.00651002,-0.00283542,-0.00300083,0.0009
 9995,0.00053664,-0.00029577,0.00154739,-0.00175045,-0.00160479,0.01895
 773,0.02470130,-0.00731974,-0.02528152,-0.03718621,0.09439541,-0.16935
 391,-0.03846583,-0.03998089,-0.03164943,-0.01567184,0.00179264,-0.0143
 5049,0.00598493,-0.00788359,-0.00191863,0.00094168,-0.00117934,0.00050
 857,-0.00011891,-0.00034926,-0.00010278,0.00007919,0.00001954,-0.00005
 549,-0.00002034,0.00004062,-0.00001741,0.00001117,0.00004681,0.0005587
 3,0.00127729,-0.00023276,0.00374158,-0.00223747,0.00250321,0.49311958,
 -0.03343623,-0.08100852,-0.01375968,-0.02977704,-0.00094654,0.00048646
 ,0.02872176,-0.00615689,0.01427645,-0.00103660,0.00475252,-0.00368478,
 0.00008332,0.00031088,-0.00032162,-0.00020408,0.00004453,0.00005964,0.
 00012750,-0.00002762,-0.00004064,-0.00000334,-0.00006376,0.00009352,-0
 .00487959,-0.00616122,0.00165706,0.00551541,-0.00202743,0.00432590,-0.
 00969760,0.57331297,-0.03726185,-0.01495345,-0.08710653,0.03053783,0.0
 1159444,0.00980762,-0.01071158,0.00343891,-0.00187710,0.00198163,-0.00
 303719,0.00279895,-0.00026305,-0.00005670,0.00047017,0.00018718,-0.000
 06910,-0.00008033,-0.00002306,0.00000742,-0.00002446,0.00000296,0.0000
 2267,-0.00008386,0.00184536,0.00177322,-0.00058222,-0.00424683,0.00344
 890,-0.00396941,-0.04177567,-0.00483839,0.58400721,-0.01714020,0.02798
 761,-0.00636141,0.00229111,-0.00259939,0.00043903,-0.00558304,0.000334
 17,-0.00236480,-0.00005924,-0.00108418,0.00071342,0.00008828,-0.000102
 83,0.00001605,0.00002855,-0.00000126,-0.00000630,-0.00004921,0.0000047
 2,0.00001855,-0.00000240,0.00002122,-0.00000962,0.00145022,0.00165390,
 -0.00041305,-0.00098070,0.00027911,-0.00064292,-0.11749016,0.11314645,
 -0.03068337,0.12727974,-0.00384566,0.00573725,-0.00158478,-0.00014630,
 0.00014831,-0.00019964,-0.00197780,0.00155244,-0.00148220,0.00000708,-
 0.00001362,0.00000740,0.00002810,0.00000501,-0.00003456,-0.00000934,0.
 00000292,-0.00000130,0.00000615,0.00000406,0.00000194,-0.00000474,-0.0
 0000523,0.00001264,-0.00015758,0.00004853,-0.00006850,0.00013871,0.000
 10296,0.00000814,0.11495164,-0.22942966,0.04925034,-0.12502430,0.24739
 589,-0.00653612,0.01076702,-0.00381150,0.00166247,-0.00007540,-0.00012
 267,-0.00376905,0.00014055,-0.00077317,-0.00019935,-0.00061363,0.00033
 152,0.00003940,-0.00006106,-0.00000602,0.00001126,0.00000234,-0.000005
 04,-0.00002531,0.00000836,0.00001749,-0.00000705,0.00000769,-0.0000005
 7,0.00082776,0.00102414,-0.00015711,-0.00046150,0.00008850,-0.00031769
 ,-0.03036462,0.04838039,-0.05728335,0.03526409,-0.05310545,0.05934026,
 -0.01194611,-0.01504858,0.02583126,-0.00918277,-0.00311670,-0.00261357
 ,0.00228412,0.00102045,-0.00041678,-0.00076880,0.00163722,-0.00131472,
 0.00018768,0.00006427,-0.00023374,-0.00010665,0.00003974,0.00003334,0.
 00002143,-0.00001112,0.00000734,-0.00000555,-0.00002031,0.00004793,-0.
 00130248,-0.00117190,0.00021738,0.00248807,-0.00146387,0.00184443,-0.1
 1267378,-0.06979590,0.08885779,0.00985556,0.00819253,-0.01251230,0.122
 08256,-0.00104522,-0.00628790,0.00858750,-0.00332594,0.00078726,-0.000
 80263,0.00076627,0.00015044,-0.00060574,-0.00069059,0.00049793,-0.0005
 9349,0.00013500,-0.00002333,-0.00015389,-0.00004886,0.00002576,0.00002
 703,-0.00001159,-0.00000776,0.00000888,0.00000484,0.00000411,0.0000237
 9,-0.00019838,-0.00020411,0.00006207,0.00116663,-0.00025661,0.00091101
 ,-0.07176064,-0.12116929,0.09565470,-0.01425645,-0.01272796,0.01734386
 ,0.07797493,0.12803743,-0.00406306,-0.00637379,0.00726528,-0.00400033,
 -0.00111600,0.00104102,0.00035985,-0.00059122,0.00048859,-0.00020659,0
 .00016776,-0.00029869,0.00005356,-0.00002129,-0.00001106,-0.00000055,0
 .00001041,0.00000323,-0.00000376,-0.00000512,0.00000188,-0.00000473,0.
 00000213,-0.00000319,-0.00000630,-0.00004089,0.00007647,0.00023271,-0.
 00019102,0.00048198,0.09423462,0.09826990,-0.17945397,0.00265541,0.002
 34386,-0.00454678,-0.10062037,-0.10744709,0.18975563,0.00735860,-0.016
 40947,-0.02410035,0.00082863,0.00190156,0.00116090,0.00080975,0.000550
 15,0.00139493,0.00016362,0.00002389,0.00003113,0.00000628,-0.00001369,
 -0.00001972,0.00000389,-0.00000119,0.00000069,0.00001009,0.00000742,0.
 00000294,-0.00002205,0.00000581,0.00002115,-0.00024421,-0.00030328,0.0
 0000026,-0.00014632,0.00022968,-0.00009122,-0.05255591,0.01634512,0.02
 912659,-0.00194576,0.00797427,0.01489650,-0.00193996,0.01015985,0.0117
 2869,0.05370134,0.00474773,-0.00630140,-0.00666700,-0.00063887,0.00051
 001,0.00156892,-0.00038119,-0.00028622,-0.00019944,-0.00010198,-0.0001
 6594,0.00010449,0.00007779,-0.00005143,-0.00002479,0.00000423,0.000006
 45,0.00000457,-0.00001899,-0.00000313,0.00000171,-0.00000688,0.0000192
 4,0.00000488,0.00029716,0.00018617,-0.00010845,-0.00014689,0.00013661,
 -0.00003627,0.01341684,-0.12408731,-0.12146060,0.00175265,-0.01350783,
 -0.02247063,-0.00052125,0.01100172,0.01484468,-0.01785664,0.13274753,0
 .00474077,-0.00587245,-0.01149332,0.00038828,0.00132715,0.00144688,-0.
 00042563,0.00107391,0.00038757,0.00005543,0.00007761,-0.00001298,0.000
 03177,-0.00001411,-0.00003299,-0.00001001,-0.00000117,-0.00000598,0.00
 000706,0.00001237,0.00000625,-0.00001882,-0.00000088,0.00003430,-0.000
 21414,-0.00017940,-0.00003026,-0.00008624,0.00001994,-0.00003990,0.024
 43429,-0.12165658,-0.23583124,-0.00015605,0.00415130,0.00734155,0.0011
 3181,-0.01166851,-0.01559721,-0.02701606,0.13455290,0.25412519,0.00225
 664,-0.00057222,0.01286455,0.00177756,0.00051661,-0.00141424,-0.082629
 26,0.00665314,-0.01124507,-0.00651124,-0.00233550,0.00384733,-0.000437
 61,-0.00175278,0.00023080,-0.00008618,0.00001445,-0.00008901,-0.000591
 30,0.00014608,0.00018574,-0.00012998,-0.00005464,0.00000861,0.01309252
 ,-0.00847881,-0.01210331,-0.00166189,0.00056645,-0.00133171,-0.0013134
 8,0.00141875,-0.00130594,0.00002545,-0.00028369,0.00012152,-0.00060199
 ,0.00051994,0.00030419,-0.00031889,0.00075380,-0.00028257,0.58873168,0
 .00875514,-0.03009481,-0.00345611,0.00120833,0.00591145,-0.00358275,0.
 00442398,-0.15297338,-0.05748896,0.00946519,0.00750942,-0.00144338,-0.
 00357439,0.00164696,0.00199051,0.00053746,-0.00015043,0.00016582,0.000
 49463,-0.00037726,-0.00046094,0.00011878,-0.00028074,-0.00079829,-0.01
 422167,-0.01674250,-0.00556890,-0.00051721,-0.00152041,0.00003731,-0.0
 0001271,0.00175577,0.00110786,-0.00165291,-0.00059110,-0.00094140,-0.0
 0001477,0.00041101,0.00052403,0.00084779,-0.00033634,-0.00109767,0.005
 15934,0.49250881,0.01208515,-0.01934847,0.01856875,0.00413056,0.008136
 05,-0.00900375,-0.01092926,-0.06637962,-0.13091408,0.00806677,0.004003
 26,-0.00067026,-0.00214815,0.00156298,0.00231136,0.00014336,-0.0002212
 4,-0.00016893,0.00029673,-0.00024815,-0.00057337,0.00047465,-0.0002158
 9,-0.00075495,-0.00942828,-0.00786594,-0.00213582,-0.00234931,0.000066
 98,-0.00067644,-0.00149564,0.00273212,-0.00045675,-0.00060915,-0.00008
 723,-0.00047768,0.00025492,-0.00012981,-0.00008697,-0.00114760,0.00051
 541,-0.00028565,0.01428567,-0.06944593,0.52186264,-0.00091151,0.001576
 32,-0.00095272,0.00024049,-0.00030676,0.00023858,0.00841196,-0.0029343
 2,-0.00330982,-0.00012700,-0.00011248,0.00012204,-0.00001785,-0.000050
 72,0.00014015,0.00005345,0.00002230,0.00003481,-0.00002799,-0.00006215
 ,-0.00004183,0.00001120,0.00001229,-0.00014806,0.00138159,0.00125351,0
 .00040966,-0.00016985,0.00022438,-0.00010893,-0.00006909,0.00063423,-0
 .00058596,0.00021832,0.00024559,0.00032986,-0.00014533,0.00004816,-0.0
 0009628,-0.00032797,0.00048795,0.00040625,-0.26773536,-0.09952748,0.00
 246153,0.28417499,-0.00396508,0.00210555,-0.00144016,0.00098245,-0.000
 73846,0.00087528,-0.02662438,-0.02531212,-0.01132804,-0.00320461,-0.00
 184200,0.00136335,0.00036360,-0.00073788,-0.00018349,-0.00010140,0.000
 02945,-0.00005441,-0.00026998,0.00011387,0.00009903,-0.00002148,0.0000
 1360,0.00011747,0.00645705,0.00136531,-0.00157843,-0.00045797,0.000536
 64,-0.00044334,0.00009316,-0.00036763,0.00010790,0.00018953,0.00032286
 ,0.00005906,0.00051265,-0.00022119,-0.00036388,0.00026549,-0.00044287,
 0.00057922,-0.09287911,-0.09038824,0.00448075,0.10901602,0.10715086,-0
 .00003110,0.00186696,-0.00083099,-0.00042646,-0.00014883,0.00080263,-0
 .02242748,-0.01913505,-0.00403812,-0.00262510,-0.00119977,0.00077383,0
 .00027047,-0.00059936,-0.00049943,-0.00000409,0.00003521,0.00003105,-0
 .00013896,0.00009813,0.00021107,-0.00012849,0.00005298,0.00023865,0.00
 463952,0.00070493,-0.00125792,-0.00010709,0.00011943,-0.00031004,-0.00
 014193,-0.00027822,0.00052414,0.00011109,-0.00004351,-0.00016993,0.000
 17177,-0.00001504,0.00002408,-0.00010776,0.00042095,-0.00035666,0.0064
 4458,0.00501676,-0.04995944,-0.00018737,0.00629812,0.05236541,-0.00003
 547,-0.00173656,0.00021340,0.00027459,0.00021927,-0.00016002,0.0040479
 0,0.00221595,0.00330815,0.00055673,0.00061771,-0.00025653,-0.00016649,
 0.00006311,0.00012176,0.00000387,-0.00002773,-0.00004483,0.00002315,0.
 00000508,-0.00000629,-0.00000356,-0.00007650,0.00000702,-0.00058845,-0
 .00086409,0.00036079,0.00005959,-0.00003012,0.00004161,0.00007178,0.00
 002602,-0.00023453,0.00014622,0.00017841,0.00017643,0.00010382,-0.0001
 3891,-0.00019971,-0.00018393,0.00004759,0.00036487,-0.16887737,0.10857
 110,-0.07074962,-0.01871740,0.01812260,-0.01283015,0.17589894,-0.00316
 673,0.00670832,-0.00628739,-0.00167968,-0.00151938,0.00191349,0.020037
 85,-0.03374681,0.00384559,-0.00175508,0.00001983,-0.00044961,0.0004522
 2,-0.00028157,-0.00028772,-0.00024614,0.00000542,-0.00009714,-0.000074
 76,0.00014324,0.00007134,-0.00003109,-0.00005891,0.00026377,0.00210417
 ,0.00024562,0.00029507,0.00166597,-0.00032828,0.00088925,-0.00007164,-
 0.00014829,0.00021623,0.00018040,0.00016554,0.00018209,0.00007190,-0.0
 0008387,-0.00015246,0.00008047,-0.00003211,0.00027108,0.10438498,-0.14
 408133,0.06553026,-0.00820258,0.01053491,-0.00502535,-0.12054734,0.169
 02387,-0.00138610,0.00382823,-0.00462840,-0.00118669,-0.00118680,0.001
 90633,0.01778369,-0.02393938,0.00849885,0.00011840,0.00023056,-0.00037
 307,-0.00010146,0.00006343,0.00022525,0.00002301,0.00004232,0.00007339
 ,0.00001520,-0.00007312,-0.00006842,-0.00005249,0.00005089,-0.00018772
 ,-0.00009680,-0.00007829,0.00077786,0.00043084,-0.00003945,0.00020831,
 -0.00003403,-0.00035998,-0.00025876,0.00008772,0.00013621,0.00022177,0
 .00001679,0.00004538,0.00003100,0.00022406,0.00013077,0.00040728,-0.07
 396006,0.07089189,-0.09243961,0.00138335,-0.00035491,0.00083548,0.0763
 3420,-0.06504940,0.09536767,0.00091834,-0.00029774,0.00148260,-0.00073
 882,0.00001367,-0.00044292,0.00329074,0.00409485,0.00138531,0.00001896
 ,0.00057124,-0.00005104,-0.00010369,-0.00011703,-0.00035602,-0.0000052
 7,0.00002386,0.00003811,0.00002102,0.00004257,0.00005264,-0.00022769,-
 0.00013050,0.00011987,-0.00053256,-0.00027515,-0.00064407,0.00066649,-
 0.00040859,0.00035858,-0.00024453,0.00000115,0.00063857,0.00006720,-0.
 00007368,-0.00024753,0.00013908,-0.00003352,-0.00012899,-0.00050786,0.
 00004655,-0.00038726,-0.07217975,-0.02012251,0.06052537,-0.00653620,-0
 .00915204,0.02748284,0.00728430,0.00557129,-0.02060435,0.06891147,0.00
 098618,0.00253564,-0.00321685,-0.00079970,0.00076860,0.00123639,0.0083
 2929,-0.00139515,-0.03694623,-0.00021387,-0.00064871,0.00044828,-0.000
 09942,-0.00011896,0.00011615,0.00002128,0.00001592,0.00003045,-0.00003
 732,-0.00001457,-0.00001671,-0.00018534,0.00004941,-0.00007165,0.00190
 135,0.00137028,-0.00040230,-0.00068516,0.00000095,-0.00063619,0.000073
 75,-0.00045767,0.00014667,0.00007616,0.00001585,0.00002060,-0.00005748
 ,-0.00002521,-0.00005039,0.00018659,0.00010577,0.00004506,-0.02076360,
 -0.07153509,0.07051322,-0.00193635,-0.00212141,0.01192593,-0.00677500,
 -0.00409979,0.01754586,0.02014861,0.07565632,-0.00170570,0.00572573,-0
 .00362437,-0.00172585,-0.00146020,0.00237012,0.00437053,-0.01329764,-0
 .02360088,-0.00213115,-0.00096849,0.00039912,0.00055008,-0.00044517,-0
 .00080854,-0.00004205,0.00003890,0.00001725,-0.00005138,0.00014856,0.0
 0025870,-0.00019449,0.00003344,0.00044263,0.00362741,0.00175485,-0.000
 59251,0.00057221,-0.00018762,0.00007349,0.00014218,-0.00049523,-0.0000
 4454,0.00012607,0.00006720,0.00018585,-0.00010631,0.00006844,0.0000493
 0,0.00011434,0.00014617,0.00032610,0.06140480,0.06469331,-0.25778153,-
 0.00000816,0.00162817,0.00169203,0.00351089,0.00488604,-0.00995247,-0.
 06890564,-0.06166806,0.29008809,-0.07094499,-0.01242620,-0.00064067,-0
 .00061611,0.01119000,0.04511173,-0.00011142,0.02566360,0.01226129,-0.0
 0288764,0.00080821,-0.00021515,0.00112742,-0.00019794,-0.00026274,-0.0
 0014894,0.00009968,-0.00000835,-0.00013031,-0.00003031,0.00007770,-0.0
 0012533,0.00006169,0.00012973,0.00109744,-0.00072494,0.00017032,0.0033
 8485,-0.00071870,0.00061430,0.00379483,-0.01718933,-0.02608605,0.00180
 006,-0.00019939,0.00079354,0.00151108,0.00073448,-0.00023839,-0.004689
 35,-0.00195958,-0.00296377,-0.00280956,0.00006190,-0.00386773,0.000293
 52,0.00067348,0.00003570,0.00010176,0.00122578,0.00100470,-0.00024124,
 -0.00016997,0.00045221,0.06959395,-0.01668517,-0.08479570,-0.04192351,
 0.00662317,0.02292729,0.00358100,0.01495814,-0.04300200,-0.02588103,0.
 00405821,0.00223865,0.00021047,-0.00019429,0.00019635,0.00024581,0.000
 02878,-0.00008060,-0.00005652,0.00021115,0.00001990,-0.00008999,-0.000
 08140,-0.00002667,0.00013927,-0.00531403,-0.00459555,-0.00059289,-0.00
 156443,0.00013007,-0.00125921,0.00122731,-0.00812483,-0.02235383,-0.00
 090459,0.00077379,-0.00075703,0.00170818,0.00009158,0.00019038,-0.0039
 9381,0.00050110,-0.00161976,0.00698682,-0.00067178,0.00640125,-0.00038
 790,-0.00000124,-0.00009427,0.00012940,-0.00246640,-0.00188421,0.00009
 695,-0.00010217,-0.00066839,-0.00690248,0.11698823,-0.02084976,-0.0402
 2271,-0.12894533,0.05168242,-0.00373597,-0.06562252,0.00509264,-0.0152
 6931,0.00373885,0.00617312,-0.00257318,0.00509745,-0.00050168,-0.00015
 330,0.00068472,0.00038212,-0.00018776,-0.00004329,0.00004560,0.0000535
 7,-0.00008569,-0.00030628,0.00026769,0.00013103,-0.00006706,-0.0015754
 0,-0.00249951,-0.01217880,0.00388703,-0.00879819,0.00022380,-0.0248463
 2,-0.03055558,0.00181523,0.00062814,0.00023306,-0.00059699,-0.00131646
 ,0.00077940,-0.00621948,-0.00132826,-0.00038892,0.00203411,-0.00014316
 ,0.00364247,-0.00008710,0.00013829,-0.00007583,0.00004254,-0.00101514,
 -0.00064475,-0.00031607,0.00097978,0.00050215,-0.02636837,0.08641248,0
 .22285047\\0.00000250,0.00000672,-0.00001612,-0.00001188,-0.00000908,0
 .00001027,-0.00001298,0.00001354,0.00000166,0.00000441,0.00002334,0.00
 003408,-0.00001388,0.00000384,-0.00000439,0.00000248,0.00000581,0.0000
 0936,-0.00000396,0.00000476,0.00000628,0.00000223,-0.00000047,0.000009
 73,0.00000103,0.00000830,-0.00001047,0.00000811,-0.00002790,-0.0000218
 7,0.00000036,-0.00000397,-0.00000842,0.00000030,-0.00000640,-0.0000135
 5,-0.00000059,-0.00000106,-0.00000786,0.00000402,-0.00000892,-0.000005
 58,0.00000575,0.00000066,0.00000764,0.00000391,-0.00000159,0.00000619,
 0.00000216,0.00000132,0.00001134,0.00000426,-0.00000527,0.00000650,0.0
 0000176,-0.00000363,-0.00001477\\\@


 We're simply so accustomed to the marvels of everyday thought
 that we never wonder about it.
 -- Marvin Minsky in "Why people think computers are smart"
 Job cpu time:       1 days 18 hours 10 minutes 33.2 seconds.
 File lengths (MBytes):  RWF=    384 Int=      0 D2E=      0 Chk=     27 Scr=      1
 Normal termination of Gaussian 09 at Fri Mar 27 11:09:06 2015.
