 Entering Gaussian System, Link 0=g09
 Initial command:
 /opt/gridware/applications/gaussian/g09/l1.exe "/lustre/SCRATCH5/gau/Gau-14355.inp" -scrdir="/lustre/SCRATCH5/gau/"
 Entering Link 1 = /opt/gridware/applications/gaussian/g09/l1.exe PID=     14356.
  
 Copyright (c) 1988,1990,1992,1993,1995,1998,2003,2009,2013,
            Gaussian, Inc.  All Rights Reserved.
  
 This is part of the Gaussian(R) 09 program.  It is based on
 the Gaussian(R) 03 system (copyright 2003, Gaussian, Inc.),
 the Gaussian(R) 98 system (copyright 1998, Gaussian, Inc.),
 the Gaussian(R) 94 system (copyright 1995, Gaussian, Inc.),
 the Gaussian 92(TM) system (copyright 1992, Gaussian, Inc.),
 the Gaussian 90(TM) system (copyright 1990, Gaussian, Inc.),
 the Gaussian 88(TM) system (copyright 1988, Gaussian, Inc.),
 the Gaussian 86(TM) system (copyright 1986, Carnegie Mellon
 University), and the Gaussian 82(TM) system (copyright 1983,
 Carnegie Mellon University). Gaussian is a federally registered
 trademark of Gaussian, Inc.
  
 This software contains proprietary and confidential information,
 including trade secrets, belonging to Gaussian, Inc.
  
 This software is provided under written license and may be
 used, copied, transmitted, or stored only in accord with that
 written license.
  
 The following legend is applicable only to US Government
 contracts under FAR:
  
                    RESTRICTED RIGHTS LEGEND
  
 Use, reproduction and disclosure by the US Government is
 subject to restrictions as set forth in subparagraphs (a)
 and (c) of the Commercial Computer Software - Restricted
 Rights clause in FAR 52.227-19.
  
 Gaussian, Inc.
 340 Quinnipiac St., Bldg. 40, Wallingford CT 06492
  
  
 ---------------------------------------------------------------
 Warning -- This program may not be used in any manner that
 competes with the business of Gaussian, Inc. or will provide
 assistance to any competitor of Gaussian, Inc.  The licensee
 of this program is prohibited from giving any competitor of
 Gaussian, Inc. access to this program.  By using this program,
 the user acknowledges that Gaussian, Inc. is engaged in the
 business of creating and licensing software in the field of
 computational chemistry and represents and warrants to the
 licensee that it is not a competitor of Gaussian, Inc. and that
 it will not use this program in any manner prohibited above.
 ---------------------------------------------------------------
  

 Cite this work as:
 Gaussian 09, Revision D.01,
 M. J. Frisch, G. W. Trucks, H. B. Schlegel, G. E. Scuseria, 
 M. A. Robb, J. R. Cheeseman, G. Scalmani, V. Barone, B. Mennucci, 
 G. A. Petersson, H. Nakatsuji, M. Caricato, X. Li, H. P. Hratchian, 
 A. F. Izmaylov, J. Bloino, G. Zheng, J. L. Sonnenberg, M. Hada, 
 M. Ehara, K. Toyota, R. Fukuda, J. Hasegawa, M. Ishida, T. Nakajima, 
 Y. Honda, O. Kitao, H. Nakai, T. Vreven, J. A. Montgomery, Jr., 
 J. E. Peralta, F. Ogliaro, M. Bearpark, J. J. Heyd, E. Brothers, 
 K. N. Kudin, V. N. Staroverov, T. Keith, R. Kobayashi, J. Normand, 
 K. Raghavachari, A. Rendell, J. C. Burant, S. S. Iyengar, J. Tomasi, 
 M. Cossi, N. Rega, J. M. Millam, M. Klene, J. E. Knox, J. B. Cross, 
 V. Bakken, C. Adamo, J. Jaramillo, R. Gomperts, R. E. Stratmann, 
 O. Yazyev, A. J. Austin, R. Cammi, C. Pomelli, J. W. Ochterski, 
 R. L. Martin, K. Morokuma, V. G. Zakrzewski, G. A. Voth, 
 P. Salvador, J. J. Dannenberg, S. Dapprich, A. D. Daniels, 
 O. Farkas, J. B. Foresman, J. V. Ortiz, J. Cioslowski, 
 and D. J. Fox, Gaussian, Inc., Wallingford CT, 2013.
 
 ******************************************
 Gaussian 09:  EM64L-G09RevD.01 24-Apr-2013
                 2-Feb-2015 
 ******************************************
 %nprocshared=8
 Will use up to    8 processors via shared memory.
 %nprocl=1
 Will use up to    1 processors via Linda.
 ----------------------------------------------------------------------
 # opt=(calcfc,ts,noeigentest) freq=noraman b3lyp/6-31+g(d) geom=connec
 tivity
 ----------------------------------------------------------------------
 1/5=1,10=4,11=1,14=-1,18=20,26=3,38=1,57=2/1,3;
 2/9=110,12=2,17=6,18=5,40=1/2;
 3/5=1,6=6,7=11,11=2,16=1,25=1,30=1,71=2,74=-5,140=1/1,2,3;
 4//1;
 5/5=2,38=5/2;
 8/6=4,10=90,11=11/1;
 11/6=1,8=1,9=11,15=111,16=1/1,2,10;
 10/6=1,13=1/2;
 6/7=2,8=2,9=2,10=2,28=1/1;
 7/10=1,18=20,25=1/1,2,3,16;
 1/5=1,10=4,11=1,14=-1,18=20,26=3/3(2);
 2/9=110/2;
 99//99;
 2/9=110/2;
 3/5=1,6=6,7=11,11=2,16=1,25=1,30=1,71=1,74=-5/1,2,3;
 4/5=5,16=3,69=1/1;
 5/5=2,38=5/2;
 7//1,2,3,16;
 1/5=1,11=1,14=-1,18=20,26=3/3(-5);
 2/9=110/2;
 6/7=2,8=2,9=2,10=2,19=2,28=1/1;
 99/9=1/99;
 -------------------
 Title Card Required
 -------------------
 Symbolic Z-matrix:
 Charge =  0 Multiplicity = 1
 C                     0.33038   0.69926   0.5392 
 O                    -0.46974   0.30491   1.42788 
 O                    -0.49919   0.73618  -0.80576 
 O                    -1.76908  -1.22886   0.03526 
 C                    -3.19964  -1.02694   0.19232 
 H                    -3.41452  -0.02289   0.56854 
 H                    -3.63223  -1.19421  -0.80062 
 H                    -3.54919  -1.79415   0.8948 
 H                    -1.27435  -0.30214  -0.66393 
 H                    -1.09993  -0.66443   1.07102 
 C                     1.15357   1.93757   0.68818 
 H                     1.98117   1.76351   1.399 
 H                     1.6099    2.25755  -0.26041 
 H                     0.55782   2.76744   1.09489 
 C                    -1.3556    1.89806  -0.97338 
 H                    -0.70379   2.74558  -1.21125 
 H                    -1.99979   1.66881  -1.82754 
 H                    -1.93096   2.08522  -0.06265 
 Br                    1.54154  -0.81716  -0.22985 
 
 Add virtual bond connecting atoms H10        and O2         Dist= 2.29D+00.
 Add virtual bond connecting atoms H9         and O4         Dist= 2.38D+00.
 Add virtual bond connecting atoms H9         and O3         Dist= 2.46D+00.
 Add virtual bond connecting atoms H10        and O4         Dist= 2.56D+00.
 Add virtual bond connecting atoms Br19       and C1         Dist= 3.94D+00.

 GradGradGradGradGradGradGradGradGradGradGradGradGradGradGradGradGradGrad
 Berny optimization.
 Initialization pass.
                           ----------------------------
                           !    Initial Parameters    !
                           ! (Angstroms and Degrees)  !
 --------------------------                            --------------------------
 ! Name  Definition              Value          Derivative Info.                !
 --------------------------------------------------------------------------------
 ! R1    R(1,2)                  1.2592         calculate D2E/DX2 analytically  !
 ! R2    R(1,11)                 1.4944         calculate D2E/DX2 analytically  !
 ! R3    R(1,19)                 2.0876         calculate D2E/DX2 analytically  !
 ! R4    R(2,10)                 1.21           calculate D2E/DX2 analytically  !
 ! R5    R(3,9)                  1.3035         calculate D2E/DX2 analytically  !
 ! R6    R(3,15)                 1.4531         calculate D2E/DX2 analytically  !
 ! R7    R(4,5)                  1.4532         calculate D2E/DX2 analytically  !
 ! R8    R(4,9)                  1.2619         calculate D2E/DX2 analytically  !
 ! R9    R(4,10)                 1.3561         calculate D2E/DX2 analytically  !
 ! R10   R(5,6)                  1.0935         calculate D2E/DX2 analytically  !
 ! R11   R(5,7)                  1.0959         calculate D2E/DX2 analytically  !
 ! R12   R(5,8)                  1.0974         calculate D2E/DX2 analytically  !
 ! R13   R(11,12)                1.1048         calculate D2E/DX2 analytically  !
 ! R14   R(11,13)                1.1002         calculate D2E/DX2 analytically  !
 ! R15   R(11,14)                1.0996         calculate D2E/DX2 analytically  !
 ! R16   R(15,16)                1.0953         calculate D2E/DX2 analytically  !
 ! R17   R(15,17)                1.0941         calculate D2E/DX2 analytically  !
 ! R18   R(15,18)                1.0934         calculate D2E/DX2 analytically  !
 ! A1    A(2,1,11)             122.6289         calculate D2E/DX2 analytically  !
 ! A2    A(2,1,19)             113.6518         calculate D2E/DX2 analytically  !
 ! A3    A(11,1,19)            108.6058         calculate D2E/DX2 analytically  !
 ! A4    A(1,2,10)             111.9436         calculate D2E/DX2 analytically  !
 ! A5    A(9,3,15)             107.3964         calculate D2E/DX2 analytically  !
 ! A6    A(5,4,9)              110.1066         calculate D2E/DX2 analytically  !
 ! A7    A(5,4,10)             110.203          calculate D2E/DX2 analytically  !
 ! A8    A(9,4,10)              85.6459         calculate D2E/DX2 analytically  !
 ! A9    A(4,5,6)              110.9886         calculate D2E/DX2 analytically  !
 ! A10   A(4,5,7)              105.6308         calculate D2E/DX2 analytically  !
 ! A11   A(4,5,8)              106.5944         calculate D2E/DX2 analytically  !
 ! A12   A(6,5,7)              111.9805         calculate D2E/DX2 analytically  !
 ! A13   A(6,5,8)              111.0443         calculate D2E/DX2 analytically  !
 ! A14   A(7,5,8)              110.337          calculate D2E/DX2 analytically  !
 ! A15   A(3,9,4)              151.4504         calculate D2E/DX2 analytically  !
 ! A16   A(2,10,4)             144.652          calculate D2E/DX2 analytically  !
 ! A17   A(1,11,12)            110.258          calculate D2E/DX2 analytically  !
 ! A18   A(1,11,13)            112.552          calculate D2E/DX2 analytically  !
 ! A19   A(1,11,14)            111.3342         calculate D2E/DX2 analytically  !
 ! A20   A(12,11,13)           106.8499         calculate D2E/DX2 analytically  !
 ! A21   A(12,11,14)           106.6668         calculate D2E/DX2 analytically  !
 ! A22   A(13,11,14)           108.9128         calculate D2E/DX2 analytically  !
 ! A23   A(3,15,16)            107.0385         calculate D2E/DX2 analytically  !
 ! A24   A(3,15,17)            105.6361         calculate D2E/DX2 analytically  !
 ! A25   A(3,15,18)            110.5436         calculate D2E/DX2 analytically  !
 ! A26   A(16,15,17)           110.057          calculate D2E/DX2 analytically  !
 ! A27   A(16,15,18)           111.1976         calculate D2E/DX2 analytically  !
 ! A28   A(17,15,18)           112.1046         calculate D2E/DX2 analytically  !
 ! D1    D(11,1,2,10)          175.3698         calculate D2E/DX2 analytically  !
 ! D2    D(19,1,2,10)          -50.6836         calculate D2E/DX2 analytically  !
 ! D3    D(2,1,11,12)           74.2756         calculate D2E/DX2 analytically  !
 ! D4    D(2,1,11,13)         -166.5263         calculate D2E/DX2 analytically  !
 ! D5    D(2,1,11,14)          -43.9119         calculate D2E/DX2 analytically  !
 ! D6    D(19,1,11,12)         -61.6272         calculate D2E/DX2 analytically  !
 ! D7    D(19,1,11,13)          57.5709         calculate D2E/DX2 analytically  !
 ! D8    D(19,1,11,14)        -179.8147         calculate D2E/DX2 analytically  !
 ! D9    D(1,2,10,4)           -41.8152         calculate D2E/DX2 analytically  !
 ! D10   D(15,3,9,4)          -110.1928         calculate D2E/DX2 analytically  !
 ! D11   D(9,3,15,16)         -173.3643         calculate D2E/DX2 analytically  !
 ! D12   D(9,3,15,17)          -56.0896         calculate D2E/DX2 analytically  !
 ! D13   D(9,3,15,18)           65.3894         calculate D2E/DX2 analytically  !
 ! D14   D(9,4,5,6)            -52.8271         calculate D2E/DX2 analytically  !
 ! D15   D(9,4,5,7)             68.7482         calculate D2E/DX2 analytically  !
 ! D16   D(9,4,5,8)           -173.8679         calculate D2E/DX2 analytically  !
 ! D17   D(10,4,5,6)            39.9565         calculate D2E/DX2 analytically  !
 ! D18   D(10,4,5,7)           161.5319         calculate D2E/DX2 analytically  !
 ! D19   D(10,4,5,8)           -81.0843         calculate D2E/DX2 analytically  !
 ! D20   D(5,4,9,3)            114.2759         calculate D2E/DX2 analytically  !
 ! D21   D(10,4,9,3)             4.3411         calculate D2E/DX2 analytically  !
 ! D22   D(5,4,10,2)           -99.308          calculate D2E/DX2 analytically  !
 ! D23   D(9,4,10,2)            10.5291         calculate D2E/DX2 analytically  !
 --------------------------------------------------------------------------------
 Trust Radius=3.00D-01 FncErr=1.00D-07 GrdErr=1.00D-06
 Number of steps in this run=     79 maximum allowed number of steps=    114.
 Search for a saddle point of order  1.
 GradGradGradGradGradGradGradGradGradGradGradGradGradGradGradGradGradGrad

                          Input orientation:                          
 ---------------------------------------------------------------------
 Center     Atomic      Atomic             Coordinates (Angstroms)
 Number     Number       Type             X           Y           Z
 ---------------------------------------------------------------------
      1          6           0        0.330379    0.699264    0.539201
      2          8           0       -0.469744    0.304911    1.427881
      3          8           0       -0.499185    0.736182   -0.805759
      4          8           0       -1.769083   -1.228857    0.035261
      5          6           0       -3.199641   -1.026938    0.192321
      6          1           0       -3.414516   -0.022893    0.568539
      7          1           0       -3.632232   -1.194213   -0.800617
      8          1           0       -3.549185   -1.794145    0.894796
      9          1           0       -1.274353   -0.302135   -0.663933
     10          1           0       -1.099930   -0.664426    1.071017
     11          6           0        1.153574    1.937566    0.688178
     12          1           0        1.981174    1.763510    1.399000
     13          1           0        1.609898    2.257549   -0.260406
     14          1           0        0.557820    2.767438    1.094885
     15          6           0       -1.355602    1.898060   -0.973382
     16          1           0       -0.703793    2.745578   -1.211252
     17          1           0       -1.999794    1.668812   -1.827537
     18          1           0       -1.930964    2.085221   -0.062646
     19         35           0        1.541536   -0.817156   -0.229851
 ---------------------------------------------------------------------
                    Distance matrix (angstroms):
                    1          2          3          4          5
     1  C    0.000000
     2  O    1.259152   0.000000
     3  O    1.580651   2.275084   0.000000
     4  O    2.894710   2.445428   2.486229   0.000000
     5  C    3.944761   3.279141   3.375977   1.453250   0.000000
     6  H    3.814002   3.085062   3.311200   2.108598   1.093534
     7  H    4.591585   4.149085   3.680005   2.042356   1.095921
     8  H    4.625425   3.764727   4.312417   2.055995   1.097387
     9  H    2.241762   2.321979   1.303496   1.261921   2.228283
    10  H    2.046524   1.210000   2.417620   1.356149   2.304845
    11  C    1.494402   2.418240   2.531162   4.358263   5.290051
    12  H    2.144061   2.852252   3.473981   4.987832   6.006956
    13  H    2.169053   3.314818   2.657103   4.864150   5.841616
    14  H    2.153569   2.689017   2.975854   4.744223   5.415757
    15  C    2.562723   3.014786   1.453103   3.311486   3.648967
    16  H    2.884614   3.602313   2.060088   4.299392   4.736154
    17  H    3.459939   3.846950   2.040994   3.452496   3.575825
    18  H    2.719700   2.743417   2.102882   3.319473   3.370472
    19  Br   2.087552   2.837668   2.628511   3.346637   4.764556
                    6          7          8          9         10
     6  H    0.000000
     7  H    1.814932   0.000000
     8  H    1.806077   1.800345   0.000000
     9  H    2.485410   2.524694   3.135377   0.000000
    10  H    2.453846   3.193156   2.702993   1.780935   0.000000
    11  C    4.972440   5.910033   6.007021   3.569215   3.463410
    12  H    5.744073   6.715413   6.595150   4.372761   3.936451
    13  H    5.579633   6.299716   6.660845   3.877334   4.201642
    14  H    4.882872   6.069938   6.141300   3.984040   3.811351
    15  C    3.210406   3.843832   4.683404   2.223335   3.288050
    16  H    4.263814   4.926087   5.756803   3.148595   4.122354
    17  H    3.256453   3.452004   4.669452   2.401015   3.828234
    18  H    2.653953   3.767440   4.311011   2.547970   3.088101
    19  Br   5.082394   5.218795   5.304223   2.895325   2.948377
                   11         12         13         14         15
    11  C    0.000000
    12  H    1.104756   0.000000
    13  H    1.100196   1.770748   0.000000
    14  H    1.099555   1.768133   1.789879   0.000000
    15  C    3.009702   4.096385   3.071117   2.948683   0.000000
    16  H    2.776784   3.871294   2.548617   2.628766   1.095319
    17  H    4.042868   5.125194   3.978993   4.035953   1.094129
    18  H    3.178036   4.188643   3.550565   2.828311   1.093394
    19  Br   2.929468   3.083225   3.075617   3.946129   4.039634
                   16         17         18         19
    16  H    0.000000
    17  H    1.794116   0.000000
    18  H    1.805911   1.814655   0.000000
    19  Br   4.324086   4.612337   4.528797   0.000000
 Stoichiometry    C4H11BrO3
 Framework group  C1[X(C4H11BrO3)]
 Deg. of freedom    51
 Full point group                 C1      NOp   1
 Largest Abelian subgroup         C1      NOp   1
 Largest concise Abelian subgroup C1      NOp   1
                         Standard orientation:                         
 ---------------------------------------------------------------------
 Center     Atomic      Atomic             Coordinates (Angstroms)
 Number     Number       Type             X           Y           Z
 ---------------------------------------------------------------------
      1          6           0        0.326218    0.698934    0.536560
      2          8           0       -0.472205    0.303629    1.426346
      3          8           0       -0.503859    0.729839   -0.808235
      4          8           0       -1.766326   -1.237960    0.037508
      5          6           0       -3.197567   -1.040923    0.194540
      6          1           0       -3.416004   -0.036839    0.568596
      7          1           0       -3.629827   -1.211977   -0.797898
      8          1           0       -3.544104   -1.807844    0.898815
      9          1           0       -1.275186   -0.310987   -0.663882
     10          1           0       -1.098945   -0.668793    1.071815
     11          6           0        1.144923    1.940563    0.682553
     12          1           0        1.973356    1.771108    1.393516
     13          1           0        1.599804    2.260109   -0.266871
     14          1           0        0.546255    2.769151    1.087596
     15          6           0       -1.364566    1.888205   -0.978179
     16          1           0       -0.715927    2.737571   -1.218117
     17          1           0       -2.008159    1.654713   -1.831635
     18          1           0       -1.940348    2.075280   -0.067691
     19         35           0        1.542690   -0.814750   -0.229487
 ---------------------------------------------------------------------
 Rotational constants (GHZ):      1.6516063      0.9351675      0.7348685
 Standard basis: 6-31+G(d) (6D, 7F)
 There are   189 symmetry adapted cartesian basis functions of A   symmetry.
 There are   189 symmetry adapted basis functions of A   symmetry.
   189 basis functions,   355 primitive gaussians,   189 cartesian basis functions
    47 alpha electrons       47 beta electrons
       nuclear repulsion energy       691.3799359356 Hartrees.
 NAtoms=   19 NActive=   19 NUniq=   19 SFac= 1.00D+00 NAtFMM=   60 NAOKFM=F Big=F
 Integral buffers will be    131072 words long.
 Raffenetti 2 integral format.
 Two-electron integral symmetry is turned on.
 One-electron integrals computed using PRISM.
 PrsmSu:  requested number of processors reduced to:   4 ShMem   1 Linda.
 NBasis=   189 RedAO= T EigKep=  4.72D-05  NBF=   189
 NBsUse=   189 1.00D-06 EigRej= -1.00D+00 NBFU=   189
 ExpMin= 3.50D-02 ExpMax= 5.74D+05 ExpMxC= 5.74D+03 IAcc=3 IRadAn=         5 AccDes= 0.00D+00
 Harris functional with IExCor=  402 and IRadAn=       5 diagonalized for initial guess.
 HarFok:  IExCor=  402 AccDes= 0.00D+00 IRadAn=         5 IDoV= 1 UseB2=F ITyADJ=14
 ICtDFT=  3500011 ScaDFX=  1.000000  1.000000  1.000000  1.000000
 FoFCou: FMM=F IPFlag=           0 FMFlag=      100000 FMFlg1=           0
         NFxFlg=           0 DoJE=T BraDBF=F KetDBF=T FulRan=T
         wScrn=  0.000000 ICntrl=     500 IOpCl=  0 I1Cent=   200000004 NGrid=           0
         NMat0=    1 NMatS0=      1 NMatT0=    0 NMatD0=    1 NMtDS0=    0 NMtDT0=    0
 Petite list used in FoFCou.
 Requested convergence on RMS density matrix=1.00D-08 within 128 cycles.
 Requested convergence on MAX density matrix=1.00D-06.
 Requested convergence on             energy=1.00D-06.
 No special actions if energy rises.
 SCF Done:  E(RB3LYP) =  -2956.39075142     A.U. after   14 cycles
            NFock= 14  Conv=0.46D-08     -V/T= 2.0068
 DoSCS=F DFT=T ScalE2(SS,OS)=  1.000000  1.000000
 Range of M.O.s used for correlation:     1   189
 NBasis=   189 NAE=    47 NBE=    47 NFC=     0 NFV=     0
 NROrb=    189 NOA=    47 NOB=    47 NVA=   142 NVB=   142

 **** Warning!!: The largest alpha MO coefficient is  0.29585811D+02

 PrsmSu:  requested number of processors reduced to:   3 ShMem   1 Linda.
 Symmetrizing basis deriv contribution to polar:
 IMax=3 JMax=2 DiffMx= 0.00D+00
 G2DrvN: will do    10 centers at a time, making    2 passes.
 Calling FoFCou, ICntrl=  3107 FMM=F I1Cent=   0 AccDes= 0.00D+00.
 Calling FoFCou, ICntrl=  3107 FMM=F I1Cent=   0 AccDes= 0.00D+00.
 End of G2Drv F.D. properties file   721 does not exist.
 End of G2Drv F.D. properties file   722 does not exist.
 End of G2Drv F.D. properties file   788 does not exist.
          IDoAtm=1111111111111111111
          Differentiating once with respect to nuclear coordinates.
          There are    60 degrees of freedom in the 1st order CPHF.  IDoFFX=6 NUNeed=     0.
     57 vectors produced by pass  0 Test12= 1.11D-14 1.67D-09 XBig12= 1.95D-01 9.25D-02.
 AX will form    57 AO Fock derivatives at one time.
     57 vectors produced by pass  1 Test12= 1.11D-14 1.67D-09 XBig12= 3.50D-02 2.15D-02.
     54 vectors produced by pass  2 Test12= 1.11D-14 1.67D-09 XBig12= 3.94D-04 2.68D-03.
     54 vectors produced by pass  3 Test12= 1.11D-14 1.67D-09 XBig12= 1.21D-06 1.43D-04.
     54 vectors produced by pass  4 Test12= 1.11D-14 1.67D-09 XBig12= 1.74D-09 4.79D-06.
     38 vectors produced by pass  5 Test12= 1.11D-14 1.67D-09 XBig12= 2.03D-12 1.60D-07.
      9 vectors produced by pass  6 Test12= 1.11D-14 1.67D-09 XBig12= 5.26D-15 8.55D-09.
 InvSVY:  IOpt=1 It=  1 EMax= 5.83D-16
 Solved reduced A of dimension   323 with    60 vectors.
 End of Minotr F.D. properties file   721 does not exist.
 End of Minotr F.D. properties file   722 does not exist.
 End of Minotr F.D. properties file   788 does not exist.

 **********************************************************************

            Population analysis using the SCF density.

 **********************************************************************

 Orbital symmetries:
       Occupied  (A) (A) (A) (A) (A) (A) (A) (A) (A) (A) (A) (A)
                 (A) (A) (A) (A) (A) (A) (A) (A) (A) (A) (A) (A)
                 (A) (A) (A) (A) (A) (A) (A) (A) (A) (A) (A) (A)
                 (A) (A) (A) (A) (A) (A) (A) (A) (A) (A) (A)
       Virtual   (A) (A) (A) (A) (A) (A) (A) (A) (A) (A) (A) (A)
                 (A) (A) (A) (A) (A) (A) (A) (A) (A) (A) (A) (A)
                 (A) (A) (A) (A) (A) (A) (A) (A) (A) (A) (A) (A)
                 (A) (A) (A) (A) (A) (A) (A) (A) (A) (A) (A) (A)
                 (A) (A) (A) (A) (A) (A) (A) (A) (A) (A) (A) (A)
                 (A) (A) (A) (A) (A) (A) (A) (A) (A) (A) (A) (A)
                 (A) (A) (A) (A) (A) (A) (A) (A) (A) (A) (A) (A)
                 (A) (A) (A) (A) (A) (A) (A) (A) (A) (A) (A) (A)
                 (A) (A) (A) (A) (A) (A) (A) (A) (A) (A) (A) (A)
                 (A) (A) (A) (A) (A) (A) (A) (A) (A) (A) (A) (A)
                 (A) (A) (A) (A) (A) (A) (A) (A) (A) (A) (A) (A)
                 (A) (A) (A) (A) (A) (A) (A) (A) (A) (A)
 The electronic state is 1-A.
 Alpha  occ. eigenvalues -- -482.89106 -61.85113 -56.36736 -56.36402 -56.36385
 Alpha  occ. eigenvalues --  -19.21077 -19.17454 -19.16362 -10.36221 -10.26479
 Alpha  occ. eigenvalues --  -10.24120 -10.21622  -8.55621  -6.50724  -6.49635
 Alpha  occ. eigenvalues --   -6.49612  -2.62287  -2.61995  -2.61974  -2.61107
 Alpha  occ. eigenvalues --   -2.61105  -1.11205  -1.03681  -0.99642  -0.79171
 Alpha  occ. eigenvalues --   -0.74188  -0.71258  -0.68575  -0.60254  -0.55930
 Alpha  occ. eigenvalues --   -0.53950  -0.50387  -0.48048  -0.46718  -0.45746
 Alpha  occ. eigenvalues --   -0.44880  -0.43743  -0.42959  -0.41520  -0.40064
 Alpha  occ. eigenvalues --   -0.37191  -0.33670  -0.30371  -0.29359  -0.28240
 Alpha  occ. eigenvalues --   -0.26523  -0.26009
 Alpha virt. eigenvalues --   -0.02593  -0.00988   0.00871   0.01278   0.02526
 Alpha virt. eigenvalues --    0.03749   0.04046   0.04714   0.05295   0.06263
 Alpha virt. eigenvalues --    0.06700   0.06764   0.08059   0.08328   0.09250
 Alpha virt. eigenvalues --    0.09801   0.10392   0.11006   0.12337   0.12951
 Alpha virt. eigenvalues --    0.14792   0.15515   0.15811   0.17658   0.18549
 Alpha virt. eigenvalues --    0.18650   0.19091   0.19845   0.21018   0.21839
 Alpha virt. eigenvalues --    0.22108   0.23460   0.24450   0.24760   0.26369
 Alpha virt. eigenvalues --    0.27431   0.28176   0.29563   0.30896   0.31955
 Alpha virt. eigenvalues --    0.32311   0.32969   0.34467   0.35316   0.35524
 Alpha virt. eigenvalues --    0.37118   0.41262   0.43938   0.47592   0.50162
 Alpha virt. eigenvalues --    0.53229   0.55054   0.57018   0.57561   0.58439
 Alpha virt. eigenvalues --    0.60155   0.63531   0.65265   0.66391   0.67619
 Alpha virt. eigenvalues --    0.71095   0.71918   0.73346   0.74299   0.77281
 Alpha virt. eigenvalues --    0.79150   0.80994   0.84454   0.87164   0.90372
 Alpha virt. eigenvalues --    0.91461   0.94685   0.95538   0.96412   0.99511
 Alpha virt. eigenvalues --    1.01156   1.05720   1.07960   1.08350   1.11351
 Alpha virt. eigenvalues --    1.13983   1.19781   1.20357   1.24672   1.25488
 Alpha virt. eigenvalues --    1.25906   1.27706   1.33302   1.34409   1.35391
 Alpha virt. eigenvalues --    1.40292   1.44160   1.47565   1.49612   1.51386
 Alpha virt. eigenvalues --    1.55998   1.56892   1.60404   1.61507   1.66951
 Alpha virt. eigenvalues --    1.68435   1.71761   1.77248   1.78730   1.82010
 Alpha virt. eigenvalues --    1.84183   1.88216   1.92257   1.97739   2.00647
 Alpha virt. eigenvalues --    2.03577   2.04706   2.10692   2.11310   2.14930
 Alpha virt. eigenvalues --    2.17886   2.19135   2.22151   2.23489   2.28543
 Alpha virt. eigenvalues --    2.30666   2.32026   2.33769   2.37512   2.44908
 Alpha virt. eigenvalues --    2.49170   2.56710   2.63064   2.76237   2.80087
 Alpha virt. eigenvalues --    2.83915   2.88666   3.06232   4.15751   4.19580
 Alpha virt. eigenvalues --    4.27453   4.31943   4.37472   4.46725   4.53922
 Alpha virt. eigenvalues --    8.96922  79.50055
          Condensed to atoms (all electrons):
               1          2          3          4          5          6
     1  C    6.535866   0.323905   0.032735  -0.013348  -0.000238  -0.001347
     2  O    0.323905   8.474726  -0.173003  -0.060381   0.017094   0.004743
     3  O    0.032735  -0.173003   8.902728   0.001982   0.008771  -0.001846
     4  O   -0.013348  -0.060381   0.001982   8.681964   0.059319  -0.085978
     5  C   -0.000238   0.017094   0.008771   0.059319   5.141974   0.408376
     6  H   -0.001347   0.004743  -0.001846  -0.085978   0.408376   0.563414
     7  H    0.001505  -0.001900   0.000324  -0.048337   0.393704  -0.036667
     8  H   -0.001620   0.000700  -0.001361  -0.043480   0.390202  -0.032496
     9  H    0.005888   0.002647   0.046063   0.128098  -0.016753   0.001097
    10  H   -0.018999   0.076774  -0.001078   0.118186  -0.015055   0.000073
    11  C   -0.918586  -0.188817  -0.108632  -0.025341  -0.001565   0.002681
    12  H   -0.051022  -0.000559   0.007929   0.000105  -0.000074   0.000000
    13  H   -0.094803   0.007770   0.005046   0.000286  -0.000082  -0.000001
    14  H    0.004393  -0.004270  -0.007732  -0.000172   0.000082   0.000002
    15  C   -0.173377  -0.005699  -0.017410   0.004841  -0.017677  -0.001443
    16  H    0.000985  -0.003012  -0.040061  -0.001433   0.001579   0.000045
    17  H    0.005742  -0.001467  -0.045620  -0.001624  -0.000710  -0.000145
    18  H   -0.027927   0.016517  -0.073394   0.000503  -0.002663   0.001274
    19  Br   0.418915  -0.078437  -0.092394   0.008927  -0.015404  -0.002091
               7          8          9         10         11         12
     1  C    0.001505  -0.001620   0.005888  -0.018999  -0.918586  -0.051022
     2  O   -0.001900   0.000700   0.002647   0.076774  -0.188817  -0.000559
     3  O    0.000324  -0.001361   0.046063  -0.001078  -0.108632   0.007929
     4  O   -0.048337  -0.043480   0.128098   0.118186  -0.025341   0.000105
     5  C    0.393704   0.390202  -0.016753  -0.015055  -0.001565  -0.000074
     6  H   -0.036667  -0.032496   0.001097   0.000073   0.002681   0.000000
     7  H    0.524650  -0.027044  -0.004927   0.002206   0.000413   0.000000
     8  H   -0.027044   0.511023   0.002575  -0.002930  -0.000222   0.000000
     9  H   -0.004927   0.002575   0.298911  -0.013656   0.013141  -0.000051
    10  H    0.002206  -0.002930  -0.013656   0.296227   0.049288  -0.000120
    11  C    0.000413  -0.000222   0.013141   0.049288   6.931639   0.384918
    12  H    0.000000   0.000000  -0.000051  -0.000120   0.384918   0.451029
    13  H    0.000000   0.000000   0.000007  -0.000086   0.421685  -0.021867
    14  H    0.000000   0.000000  -0.000036  -0.000057   0.330723  -0.024470
    15  C   -0.000774   0.001813  -0.003505   0.003863   0.093781   0.001108
    16  H    0.000000  -0.000001   0.000813   0.000035   0.000135  -0.000010
    17  H    0.000068   0.000008  -0.001536   0.000053   0.003569   0.000000
    18  H    0.000000   0.000008   0.000594   0.000165   0.002480   0.000012
    19  Br  -0.000434   0.000441  -0.008117  -0.020741  -0.315102  -0.004111
              13         14         15         16         17         18
     1  C   -0.094803   0.004393  -0.173377   0.000985   0.005742  -0.027927
     2  O    0.007770  -0.004270  -0.005699  -0.003012  -0.001467   0.016517
     3  O    0.005046  -0.007732  -0.017410  -0.040061  -0.045620  -0.073394
     4  O    0.000286  -0.000172   0.004841  -0.001433  -0.001624   0.000503
     5  C   -0.000082   0.000082  -0.017677   0.001579  -0.000710  -0.002663
     6  H   -0.000001   0.000002  -0.001443   0.000045  -0.000145   0.001274
     7  H    0.000000   0.000000  -0.000774   0.000000   0.000068   0.000000
     8  H    0.000000   0.000000   0.001813  -0.000001   0.000008   0.000008
     9  H    0.000007  -0.000036  -0.003505   0.000813  -0.001536   0.000594
    10  H   -0.000086  -0.000057   0.003863   0.000035   0.000053   0.000165
    11  C    0.421685   0.330723   0.093781   0.000135   0.003569   0.002480
    12  H   -0.021867  -0.024470   0.001108  -0.000010   0.000000   0.000012
    13  H    0.463646  -0.030139  -0.002701   0.000446  -0.000014   0.000157
    14  H   -0.030139   0.497838  -0.000493  -0.001364   0.000026  -0.000026
    15  C   -0.002701  -0.000493   5.302508   0.388573   0.389844   0.411281
    16  H    0.000446  -0.001364   0.388573   0.496417  -0.023801  -0.034316
    17  H   -0.000014   0.000026   0.389844  -0.023801   0.487953  -0.028433
    18  H    0.000157  -0.000026   0.411281  -0.034316  -0.028433   0.509123
    19  Br   0.001102   0.006122   0.003875  -0.001437  -0.002555  -0.000257
              19
     1  C    0.418915
     2  O   -0.078437
     3  O   -0.092394
     4  O    0.008927
     5  C   -0.015404
     6  H   -0.002091
     7  H   -0.000434
     8  H    0.000441
     9  H   -0.008117
    10  H   -0.020741
    11  C   -0.315102
    12  H   -0.004111
    13  H    0.001102
    14  H    0.006122
    15  C    0.003875
    16  H   -0.001437
    17  H   -0.002555
    18  H   -0.000257
    19  Br  35.143820
 Mulliken charges:
               1
     1  C   -0.028667
     2  O   -0.407333
     3  O   -0.443047
     4  O   -0.724115
     5  C   -0.350880
     6  H    0.180310
     7  H    0.197212
     8  H    0.202384
     9  H    0.548747
    10  H    0.525854
    11  C   -0.676187
    12  H    0.257183
    13  H    0.249546
    14  H    0.229573
    15  C   -0.378408
    16  H    0.216406
    17  H    0.218641
    18  H    0.224902
    19  Br  -0.042122
 Sum of Mulliken charges =   0.00000
 Mulliken charges with hydrogens summed into heavy atoms:
               1
     1  C   -0.028667
     2  O    0.118521
     3  O   -0.443047
     4  O   -0.175368
     5  C    0.229027
    11  C    0.060115
    15  C    0.281540
    19  Br  -0.042122
 APT charges:
               1
     1  C   -0.163672
     2  O   -0.398496
     3  O   -0.121511
     4  O   -0.340967
     5  C   -1.519449
     6  H    0.295895
     7  H    0.496912
     8  H    0.613630
     9  H    0.490172
    10  H    0.525200
    11  C   -1.484604
    12  H    0.566259
    13  H    0.489891
    14  H    0.536911
    15  C   -1.427247
    16  H    0.494447
    17  H    0.555074
    18  H    0.400653
    19  Br  -0.009099
 Sum of APT charges =   0.00000
 APT charges with hydrogens summed into heavy atoms:
               1
     1  C   -0.163672
     2  O    0.126704
     3  O   -0.121511
     4  O    0.149205
     5  C   -0.113012
    11  C    0.108457
    15  C    0.022928
    19  Br  -0.009099
 Electronic spatial extent (au):  <R**2>=           1647.3581
 Charge=              0.0000 electrons
 Dipole moment (field-independent basis, Debye):
    X=             -3.0519    Y=              4.1513    Z=             -0.5838  Tot=              5.1854
 Quadrupole moment (field-independent basis, Debye-Ang):
   XX=            -57.4546   YY=            -59.7283   ZZ=            -65.4505
   XY=              1.5675   XZ=              2.5845   YZ=             -1.7218
 Traceless Quadrupole moment (field-independent basis, Debye-Ang):
   XX=              3.4232   YY=              1.1495   ZZ=             -4.5727
   XY=              1.5675   XZ=              2.5845   YZ=             -1.7218
 Octapole moment (field-independent basis, Debye-Ang**2):
  XXX=              8.3125  YYY=             -5.7936  ZZZ=            -12.4205  XYY=             13.2278
  XXY=             -6.6498  XXZ=             -2.0040  XZZ=              8.4921  YZZ=             -7.8531
  YYZ=             -2.5780  XYZ=              7.4291
 Hexadecapole moment (field-independent basis, Debye-Ang**3):
 XXXX=          -1065.6660 YYYY=           -627.4403 ZZZZ=           -279.5859 XXXY=             -7.6942
 XXXZ=             -8.9514 YYYX=            -37.9381 YYYZ=             -0.9327 ZZZX=              0.1226
 ZZZY=             -2.5177 XXYY=           -274.7139 XXZZ=           -217.4308 YYZZ=           -143.4053
 XXYZ=             -1.3659 YYXZ=             -5.6002 ZZXY=             -5.7277
 N-N= 6.913799359356D+02 E-N=-8.415714580412D+03  KE= 2.936532001667D+03
  Exact polarizability:   0.000   0.000   0.000   0.000   0.000   0.000
 Approx polarizability: 135.696 -12.119 133.463  -9.311   8.800 120.174
 PrsmSu:  requested number of processors reduced to:   3 ShMem   1 Linda.
 PrsmSu:  requested number of processors reduced to:   4 ShMem   1 Linda.
 Calling FoFJK, ICntrl=    100147 FMM=F ISym2X=0 I1Cent= 0 IOpClX= 0 NMat=1 NMatS=1 NMatT=0.
 CoulSu:  requested number of processors reduced to:   4 ShMem   1 Linda.
 ***** Axes restored to original set *****
 -------------------------------------------------------------------
 Center     Atomic                   Forces (Hartrees/Bohr)
 Number     Number              X              Y              Z
 -------------------------------------------------------------------
      1        6           0.001505306   -0.018185387   -0.051220740
      2        8          -0.014919003   -0.016210315    0.048677498
      3        8          -0.008353683    0.014355516   -0.010589153
      4        8           0.008146828    0.033105431   -0.003188745
      5        6           0.019384509   -0.013059334   -0.005971663
      6        1          -0.003917630    0.001544393    0.000631604
      7        1          -0.006921467    0.002242781    0.003535052
      8        1          -0.003423835    0.003732193   -0.001611868
      9        1          -0.004981351   -0.026627317    0.025835953
     10        1           0.001589550    0.014074740   -0.019905386
     11        6           0.011635341    0.013095580    0.007694244
     12        1          -0.006781245   -0.002244231   -0.003567365
     13        1          -0.003984078   -0.005515805    0.002777811
     14        1          -0.001940724   -0.002736637   -0.000922943
     15        6           0.011928387   -0.003623324   -0.001439666
     16        1          -0.004811642    0.001653364   -0.000105786
     17        1          -0.000896514    0.002443570    0.002195559
     18        1          -0.002459027    0.001318044   -0.000686996
     19       35           0.009200277    0.000636737    0.007862590
 -------------------------------------------------------------------
 Cartesian Forces:  Max     0.051220740 RMS     0.013834801
 FormGI is forming the generalized inverse of G from B-inverse, IUseBI=4.
 GSVD:  received Info=                   1 from GESDD.

 GradGradGradGradGradGradGradGradGradGradGradGradGradGradGradGradGradGrad
 Berny optimization.
 Internal  Forces:  Max     0.043725111 RMS     0.011570274
 Search for a saddle point.
 Step number   1 out of a maximum of   79
 All quantities printed in internal units (Hartrees-Bohrs-Radians)
 Swapping is turned off.
 Second derivative matrix not updated -- analytic derivatives used.
 ITU=  0
     Eigenvalues ---   -0.07533  -0.00689   0.00095   0.00152   0.00437
     Eigenvalues ---    0.00560   0.00726   0.02839   0.03842   0.04555
     Eigenvalues ---    0.05037   0.05699   0.05884   0.06461   0.06633
     Eigenvalues ---    0.07387   0.08335   0.08581   0.08674   0.08806
     Eigenvalues ---    0.10201   0.12358   0.13328   0.13686   0.14203
     Eigenvalues ---    0.14600   0.15242   0.16807   0.18357   0.18602
     Eigenvalues ---    0.18761   0.18880   0.19866   0.24268   0.31550
     Eigenvalues ---    0.31784   0.32528   0.32680   0.33378   0.33457
     Eigenvalues ---    0.33708   0.33852   0.34028   0.34320   0.35612
     Eigenvalues ---    0.36002   0.38759   0.60164   1.13204   2.61887
     Eigenvalues ---    4.44854
 Eigenvectors required to have negative eigenvalues:
                          R9        R8        R5        R4        A1
   1                    0.54088  -0.48476   0.47569  -0.43380  -0.10007
                          R1        D1        D5        D7        D3
   1                    0.09933   0.09072  -0.06077   0.05761  -0.05666
 RFO step:  Lambda0=5.266580289D-03 Lambda=-3.19861804D-02.
 Linear search not attempted -- option 19 set.
 Maximum step size (   0.300) exceeded in Quadratic search.
    -- Step size scaled by   0.283
 Iteration  1 RMS(Cart)=  0.03312720 RMS(Int)=  0.00252908
 Iteration  2 RMS(Cart)=  0.00482703 RMS(Int)=  0.00004864
 Iteration  3 RMS(Cart)=  0.00001044 RMS(Int)=  0.00004801
 Iteration  4 RMS(Cart)=  0.00000000 RMS(Int)=  0.00004801
 Variable       Old X    -DE/DX   Delta X   Delta X   Delta X     New X
                                 (Linear)    (Quad)   (Total)
    R1        2.37945   0.02781   0.00000   0.00436   0.00436   2.38381
    R2        2.82401   0.00216   0.00000   0.00798   0.00798   2.83199
    R3        3.94490   0.00198   0.00000   0.02475   0.02475   3.96965
    R4        2.28657  -0.02439   0.00000   0.11667   0.11667   2.40324
    R5        2.46325   0.01129   0.00000   0.07926   0.07926   2.54252
    R6        2.74597  -0.00079   0.00000  -0.00962  -0.00962   2.73635
    R7        2.74624  -0.00617   0.00000   0.00159   0.00159   2.74783
    R8        2.38468  -0.01987   0.00000  -0.12010  -0.12010   2.26458
    R9        2.56275  -0.01550   0.00000  -0.21880  -0.21880   2.34395
   R10        2.06648   0.00241   0.00000  -0.00090  -0.00090   2.06558
   R11        2.07099  -0.00081   0.00000  -0.00330  -0.00330   2.06769
   R12        2.07376  -0.00255   0.00000  -0.00415  -0.00415   2.06962
   R13        2.08769  -0.00702   0.00000  -0.00611  -0.00611   2.08158
   R14        2.07907  -0.00565   0.00000  -0.00412  -0.00412   2.07495
   R15        2.07786  -0.00136   0.00000  -0.00122  -0.00122   2.07663
   R16        2.06985  -0.00156   0.00000  -0.00022  -0.00022   2.06964
   R17        2.06760  -0.00170   0.00000  -0.00011  -0.00011   2.06749
   R18        2.06622   0.00094   0.00000   0.00224   0.00224   2.06846
    A1        2.14028  -0.01420   0.00000  -0.00629  -0.00643   2.13384
    A2        1.98360   0.00601   0.00000  -0.00131  -0.00153   1.98206
    A3        1.89553  -0.00377   0.00000  -0.01429  -0.01444   1.88109
    A4        1.95378  -0.04373   0.00000  -0.04503  -0.04503   1.90875
    A5        1.87442   0.00530   0.00000   0.02075   0.02075   1.89517
    A6        1.92172  -0.01101   0.00000   0.01104   0.01104   1.93277
    A7        1.92340   0.00287   0.00000  -0.00254  -0.00264   1.92076
    A8        1.49480   0.00705   0.00000   0.01846   0.01843   1.51323
    A9        1.93712   0.00200   0.00000  -0.00354  -0.00354   1.93358
   A10        1.84361   0.01101   0.00000   0.00594   0.00594   1.84954
   A11        1.86042   0.00493   0.00000   0.00133   0.00132   1.86175
   A12        1.95443  -0.00644   0.00000  -0.00222  -0.00222   1.95221
   A13        1.93809  -0.00474   0.00000  -0.00044  -0.00044   1.93765
   A14        1.92574  -0.00549   0.00000  -0.00065  -0.00066   1.92509
   A15        2.64331   0.02864   0.00000   0.00599   0.00599   2.64930
   A16        2.52465  -0.00343   0.00000   0.05372   0.05372   2.57838
   A17        1.92437  -0.00366   0.00000  -0.00715  -0.00717   1.91719
   A18        1.96440  -0.00515   0.00000  -0.00508  -0.00510   1.95931
   A19        1.94315  -0.00243   0.00000  -0.00745  -0.00748   1.93567
   A20        1.86488   0.00440   0.00000   0.00772   0.00771   1.87259
   A21        1.86169   0.00350   0.00000   0.00670   0.00667   1.86836
   A22        1.90089   0.00413   0.00000   0.00659   0.00657   1.90746
   A23        1.86817   0.00717   0.00000   0.01305   0.01300   1.88118
   A24        1.84370   0.00235   0.00000   0.00613   0.00610   1.84979
   A25        1.92935   0.00158   0.00000   0.00505   0.00502   1.93437
   A26        1.92086  -0.00309   0.00000  -0.00616  -0.00621   1.91465
   A27        1.94076  -0.00305   0.00000  -0.00723  -0.00727   1.93349
   A28        1.95660  -0.00414   0.00000  -0.00910  -0.00913   1.94747
    D1        3.06078  -0.01379   0.00000  -0.03453  -0.03451   3.02628
    D2       -0.88460  -0.02975   0.00000  -0.06834  -0.06836  -0.95296
    D3        1.29635  -0.00583   0.00000  -0.02102  -0.02096   1.27539
    D4       -2.90643  -0.00613   0.00000  -0.01945  -0.01940  -2.92583
    D5       -0.76641  -0.00630   0.00000  -0.02009  -0.02004  -0.78645
    D6       -1.07560   0.00530   0.00000   0.00645   0.00640  -1.06920
    D7        1.00480   0.00499   0.00000   0.00802   0.00796   1.01276
    D8       -3.13836   0.00483   0.00000   0.00738   0.00732  -3.13104
    D9       -0.72981  -0.03453   0.00000   0.01111   0.01111  -0.71871
   D10       -1.92323   0.00161   0.00000   0.01306   0.01306  -1.91017
   D11       -3.02578   0.00018   0.00000  -0.00429  -0.00429  -3.03007
   D12       -0.97895   0.00117   0.00000  -0.00218  -0.00216  -0.98110
   D13        1.14126  -0.00150   0.00000  -0.00659  -0.00661   1.13465
   D14       -0.92201  -0.00298   0.00000  -0.01152  -0.01151  -0.93352
   D15        1.19988  -0.00279   0.00000  -0.01251  -0.01251   1.18737
   D16       -3.03457  -0.00147   0.00000  -0.00977  -0.00977  -3.04433
   D17        0.69737   0.00185   0.00000   0.01268   0.01268   0.71005
   D18        2.81926   0.00204   0.00000   0.01168   0.01168   2.83094
   D19       -1.41519   0.00337   0.00000   0.01442   0.01442  -1.40076
   D20        1.99449  -0.00175   0.00000  -0.00916  -0.00906   1.98543
   D21        0.07577  -0.00679   0.00000  -0.01371  -0.01381   0.06196
   D22       -1.73325  -0.01460   0.00000  -0.00167  -0.00167  -1.73492
   D23        0.18377  -0.02364   0.00000   0.01669   0.01669   0.20046
         Item               Value     Threshold  Converged?
 Maximum Force            0.043725     0.000450     NO 
 RMS     Force            0.011570     0.000300     NO 
 Maximum Displacement     0.165010     0.001800     NO 
 RMS     Displacement     0.035088     0.001200     NO 
 Predicted change in Energy=-9.039284D-03
 GradGradGradGradGradGradGradGradGradGradGradGradGradGradGradGradGradGrad

                          Input orientation:                          
 ---------------------------------------------------------------------
 Center     Atomic      Atomic             Coordinates (Angstroms)
 Number     Number       Type             X           Y           Z
 ---------------------------------------------------------------------
      1          6           0        0.318166    0.693911    0.532631
      2          8           0       -0.473002    0.287574    1.427184
      3          8           0       -0.500924    0.737858   -0.815541
      4          8           0       -1.755458   -1.209170    0.034908
      5          6           0       -3.186334   -1.019653    0.211129
      6          1           0       -3.400966   -0.017655    0.591530
      7          1           0       -3.635553   -1.186755   -0.772485
      8          1           0       -3.520411   -1.787653    0.916833
      9          1           0       -1.292182   -0.336615   -0.643402
     10          1           0       -1.139103   -0.700831    0.983698
     11          6           0        1.138732    1.937343    0.695167
     12          1           0        1.954671    1.755845    1.412560
     13          1           0        1.599255    2.258102   -0.248589
     14          1           0        0.530622    2.758355    1.099813
     15          6           0       -1.339482    1.906036   -0.985603
     16          1           0       -0.689492    2.750423   -1.238577
     17          1           0       -1.999455    1.682948   -1.829199
     18          1           0       -1.907988    2.113221   -0.073472
     19         35           0        1.575264   -0.809957   -0.222887
 ---------------------------------------------------------------------
                    Distance matrix (angstroms):
                    1          2          3          4          5
     1  C    0.000000
     2  O    1.261460   0.000000
     3  O    1.578102   2.287651   0.000000
     4  O    2.858209   2.413165   2.467394   0.000000
     5  C    3.914228   3.248046   3.369617   1.454090   0.000000
     6  H    3.787049   3.060140   3.310724   2.106474   1.093056
     7  H    4.568603   4.124794   3.678572   2.046252   1.094175
     8  H    4.586986   3.722060   4.300770   2.056086   1.095194
     9  H    2.244606   2.312573   1.345441   1.198367   2.187367
    10  H    2.066978   1.271737   2.390472   1.240364   2.211258
    11  C    1.498623   2.419767   2.531693   4.325831   5.261588
    12  H    2.140124   2.837187   3.468527   4.945128   5.964626
    13  H    2.167530   3.314429   2.653927   4.832850   5.818666
    14  H    2.151456   2.686855   2.969019   4.701216   5.373906
    15  C    2.553836   3.031790   1.448013   3.304389   3.660968
    16  H    2.895133   3.635763   2.065172   4.293766   4.748614
    17  H    3.453666   3.857611   2.041151   3.449461   3.588269
    18  H    2.708794   2.764804   2.102884   3.327656   3.395595
    19  Br   2.100648   2.850035   2.656600   3.364452   4.785933
                    6          7          8          9         10
     6  H    0.000000
     7  H    1.811729   0.000000
     8  H    1.803602   1.796700   0.000000
     9  H    2.464501   2.496155   3.082993   0.000000
    10  H    2.395110   3.090722   2.618450   1.674377   0.000000
    11  C    4.943846   5.891332   5.969283   3.587756   3.497391
    12  H    5.701074   6.684604   6.540539   4.375777   3.973741
    13  H    5.557615   6.288460   6.628523   3.904976   4.215735
    14  H    4.839625   6.035430   6.091842   3.992524   3.842841
    15  C    3.230736   3.857813   4.692446   2.269101   3.273233
    16  H    4.285282   4.939422   5.766630   3.201136   4.129384
    17  H    3.273563   3.468236   4.679644   2.446423   3.786159
    18  H    2.685488   3.789848   4.335601   2.589543   3.102851
    19  Br   5.104301   5.253252   5.312321   2.936517   2.972464
                   11         12         13         14         15
    11  C    0.000000
    12  H    1.101523   0.000000
    13  H    1.098018   1.771440   0.000000
    14  H    1.098907   1.769393   1.791764   0.000000
    15  C    2.994581   4.077400   3.050134   2.927917   0.000000
    16  H    2.782601   3.874185   2.541814   2.637576   1.095204
    17  H    4.035512   5.113652   3.972385   4.017077   1.094069
    18  H    3.147100   4.154052   3.514600   2.782016   1.094581
    19  Br   2.929341   3.066264   3.068260   3.946347   4.056365
                   16         17         18         19
    16  H    0.000000
    17  H    1.790067   0.000000
    18  H    1.802284   1.809994   0.000000
    19  Br   4.340167   4.644721   4.549763   0.000000
 Stoichiometry    C4H11BrO3
 Framework group  C1[X(C4H11BrO3)]
 Deg. of freedom    51
 Full point group                 C1      NOp   1
 Largest Abelian subgroup         C1      NOp   1
 Largest concise Abelian subgroup C1      NOp   1
                         Standard orientation:                         
 ---------------------------------------------------------------------
 Center     Atomic      Atomic             Coordinates (Angstroms)
 Number     Number       Type             X           Y           Z
 ---------------------------------------------------------------------
      1          6           0        0.291791    0.687819    0.535990
      2          8           0       -0.494633    0.261664    1.425490
      3          8           0       -0.525414    0.730652   -0.813361
      4          8           0       -1.751244   -1.242733    0.017980
      5          6           0       -3.185199   -1.076858    0.193005
      6          1           0       -3.415995   -0.081589    0.581522
      7          1           0       -3.629982   -1.242449   -0.792878
      8          1           0       -3.508650   -1.855942    0.891473
      9          1           0       -1.300276   -0.357349   -0.651950
     10          1           0       -1.144559   -0.733078    0.972279
     11          6           0        1.092733    1.942341    0.710740
     12          1           0        1.910068    1.767332    1.428157
     13          1           0        1.549966    2.278245   -0.229340
     14          1           0        0.471262    2.750366    1.121186
     15          6           0       -1.381624    1.887152   -0.975091
     16          1           0       -0.744307    2.743614   -1.219574
     17          1           0       -2.036525    1.661128   -1.821852
     18          1           0       -1.954932    2.077712   -0.062341
     19         35           0        1.573373   -0.789925   -0.229869
 ---------------------------------------------------------------------
 Rotational constants (GHZ):      1.6604073      0.9263587      0.7319226
 Standard basis: 6-31+G(d) (6D, 7F)
 There are   189 symmetry adapted cartesian basis functions of A   symmetry.
 There are   189 symmetry adapted basis functions of A   symmetry.
   189 basis functions,   355 primitive gaussians,   189 cartesian basis functions
    47 alpha electrons       47 beta electrons
       nuclear repulsion energy       690.4900688495 Hartrees.
 NAtoms=   19 NActive=   19 NUniq=   19 SFac= 1.00D+00 NAtFMM=   60 NAOKFM=F Big=F
 Integral buffers will be    131072 words long.
 Raffenetti 2 integral format.
 Two-electron integral symmetry is turned on.
 One-electron integrals computed using PRISM.
 PrsmSu:  requested number of processors reduced to:   4 ShMem   1 Linda.
 NBasis=   189 RedAO= T EigKep=  4.81D-05  NBF=   189
 NBsUse=   189 1.00D-06 EigRej= -1.00D+00 NBFU=   189
 Initial guess from the checkpoint file:  "/lustre/SCRATCH5/gau/Gau-14356.chk"
 B after Tr=     0.000000    0.000000    0.000000
         Rot=    0.999957   -0.005030    0.002188   -0.007455 Ang=  -1.06 deg.
 ExpMin= 3.50D-02 ExpMax= 5.74D+05 ExpMxC= 5.74D+03 IAcc=3 IRadAn=         5 AccDes= 0.00D+00
 Harris functional with IExCor=  402 and IRadAn=       5 diagonalized for initial guess.
 HarFok:  IExCor=  402 AccDes= 0.00D+00 IRadAn=         5 IDoV= 1 UseB2=F ITyADJ=14
 ICtDFT=  3500011 ScaDFX=  1.000000  1.000000  1.000000  1.000000
 FoFCou: FMM=F IPFlag=           0 FMFlag=      100000 FMFlg1=           0
         NFxFlg=           0 DoJE=T BraDBF=F KetDBF=T FulRan=T
         wScrn=  0.000000 ICntrl=     500 IOpCl=  0 I1Cent=   200000004 NGrid=           0
         NMat0=    1 NMatS0=      1 NMatT0=    0 NMatD0=    1 NMtDS0=    0 NMtDT0=    0
 Petite list used in FoFCou.
 Requested convergence on RMS density matrix=1.00D-08 within 128 cycles.
 Requested convergence on MAX density matrix=1.00D-06.
 Requested convergence on             energy=1.00D-06.
 No special actions if energy rises.
 SCF Done:  E(RB3LYP) =  -2956.39954945     A.U. after   12 cycles
            NFock= 12  Conv=0.35D-08     -V/T= 2.0067
 PrsmSu:  requested number of processors reduced to:   3 ShMem   1 Linda.
 Calling FoFJK, ICntrl=      2127 FMM=F ISym2X=0 I1Cent= 0 IOpClX= 0 NMat=1 NMatS=1 NMatT=0.
 ***** Axes restored to original set *****
 -------------------------------------------------------------------
 Center     Atomic                   Forces (Hartrees/Bohr)
 Number     Number              X              Y              Z
 -------------------------------------------------------------------
      1        6          -0.000874383   -0.012919636   -0.038970502
      2        8          -0.007198805   -0.010007168    0.036532698
      3        8          -0.005437619    0.011955436   -0.007922266
      4        8           0.007053744    0.026652925   -0.002627350
      5        6           0.014043412   -0.010078980   -0.004973174
      6        1          -0.002816120    0.001128540    0.000516461
      7        1          -0.005127565    0.001677843    0.002762664
      8        1          -0.002541376    0.002800754   -0.001104795
      9        1          -0.005141288   -0.022308645    0.019598896
     10        1          -0.001741345    0.007329306   -0.014576569
     11        6           0.009048042    0.009945531    0.006005075
     12        1          -0.005148033   -0.001671731   -0.002567601
     13        1          -0.002871622   -0.004219626    0.002016844
     14        1          -0.001541653   -0.002072828   -0.000857917
     15        6           0.009537785   -0.003006943   -0.000982939
     16        1          -0.003706780    0.001393445   -0.000002955
     17        1          -0.000714938    0.001937942    0.001617767
     18        1          -0.001979811    0.001038012   -0.000571924
     19       35           0.007158356    0.000425822    0.006107589
 -------------------------------------------------------------------
 Cartesian Forces:  Max     0.038970502 RMS     0.010467879

 GradGradGradGradGradGradGradGradGradGradGradGradGradGradGradGradGradGrad
 Berny optimization.
 FormGI is forming the generalized inverse of G from B-inverse, IUseBI=4.
 GSVD:  received Info=                   1 from GESDD.
 Internal  Forces:  Max     0.032231580 RMS     0.008537947
 Search for a saddle point.
 Step number   2 out of a maximum of   79
 All quantities printed in internal units (Hartrees-Bohrs-Radians)
 Swapping is turned off.
 Update second derivatives using D2CorX and points    1    2
 ITU=  0  0
     Eigenvalues ---   -0.07586  -0.00335   0.00136   0.00159   0.00440
     Eigenvalues ---    0.00563   0.00726   0.02895   0.03911   0.04551
     Eigenvalues ---    0.05035   0.05700   0.05884   0.06461   0.06634
     Eigenvalues ---    0.07466   0.08339   0.08568   0.08676   0.08807
     Eigenvalues ---    0.10278   0.12355   0.13349   0.13693   0.14212
     Eigenvalues ---    0.14601   0.15369   0.17241   0.18373   0.18602
     Eigenvalues ---    0.18785   0.18883   0.19888   0.24300   0.31552
     Eigenvalues ---    0.31784   0.32528   0.32681   0.33379   0.33457
     Eigenvalues ---    0.33708   0.33852   0.34028   0.34321   0.35613
     Eigenvalues ---    0.36004   0.38776   0.60176   1.13229   2.61892
     Eigenvalues ---    4.44862
 Eigenvectors required to have negative eigenvalues:
                          R9        R8        R5        R4        A1
   1                    0.54309  -0.48120   0.46914  -0.44296  -0.10129
                          R1        D1        D5        D7        D3
   1                    0.09963   0.09044  -0.05881   0.05664  -0.05466
 RFO step:  Lambda0=2.798107456D-03 Lambda=-2.24211804D-02.
 Linear search not attempted -- option 19 set.
 Maximum step size (   0.300) exceeded in Quadratic search.
    -- Step size scaled by   0.289
 Iteration  1 RMS(Cart)=  0.03019473 RMS(Int)=  0.00094337
 Iteration  2 RMS(Cart)=  0.00117780 RMS(Int)=  0.00005477
 Iteration  3 RMS(Cart)=  0.00000620 RMS(Int)=  0.00005473
 Iteration  4 RMS(Cart)=  0.00000000 RMS(Int)=  0.00005473
 Variable       Old X    -DE/DX   Delta X   Delta X   Delta X     New X
                                 (Linear)    (Quad)   (Total)
    R1        2.38381   0.02027   0.00000   0.00085   0.00085   2.38466
    R2        2.83199   0.00186   0.00000   0.00787   0.00787   2.83986
    R3        3.96965   0.00178   0.00000   0.03525   0.03525   4.00489
    R4        2.40324  -0.01382   0.00000   0.13695   0.13695   2.54018
    R5        2.54252   0.01030   0.00000   0.10697   0.10697   2.64948
    R6        2.73635  -0.00072   0.00000  -0.00943  -0.00943   2.72692
    R7        2.74783  -0.00442   0.00000   0.00571   0.00571   2.75355
    R8        2.26458  -0.01606   0.00000  -0.12312  -0.12312   2.14146
    R9        2.34395  -0.01181   0.00000  -0.19455  -0.19455   2.14940
   R10        2.06558   0.00177   0.00000  -0.00188  -0.00188   2.06369
   R11        2.06769  -0.00063   0.00000  -0.00355  -0.00355   2.06414
   R12        2.06962  -0.00190   0.00000  -0.00407  -0.00407   2.06555
   R13        2.08158  -0.00521   0.00000  -0.00490  -0.00490   2.07668
   R14        2.07495  -0.00417   0.00000  -0.00319  -0.00319   2.07176
   R15        2.07663  -0.00101   0.00000  -0.00077  -0.00077   2.07586
   R16        2.06964  -0.00112   0.00000   0.00027   0.00027   2.06991
   R17        2.06749  -0.00121   0.00000   0.00020   0.00020   2.06769
   R18        2.06846   0.00075   0.00000   0.00224   0.00224   2.07070
    A1        2.13384  -0.01089   0.00000  -0.00385  -0.00402   2.12983
    A2        1.98206   0.00400   0.00000  -0.00548  -0.00574   1.97633
    A3        1.88109  -0.00306   0.00000  -0.01636  -0.01655   1.86454
    A4        1.90875  -0.03223   0.00000  -0.03823  -0.03823   1.87052
    A5        1.89517   0.00448   0.00000   0.02121   0.02121   1.91639
    A6        1.93277  -0.00783   0.00000   0.00741   0.00738   1.94015
    A7        1.92076   0.00232   0.00000  -0.00252  -0.00264   1.91812
    A8        1.51323   0.00530   0.00000   0.02708   0.02703   1.54026
    A9        1.93358   0.00132   0.00000  -0.00550  -0.00551   1.92807
   A10        1.84954   0.00826   0.00000   0.00218   0.00218   1.85172
   A11        1.86175   0.00362   0.00000  -0.00197  -0.00197   1.85978
   A12        1.95221  -0.00476   0.00000   0.00102   0.00102   1.95323
   A13        1.93765  -0.00348   0.00000   0.00222   0.00221   1.93986
   A14        1.92509  -0.00405   0.00000   0.00185   0.00185   1.92693
   A15        2.64930   0.02013   0.00000  -0.00739  -0.00739   2.64191
   A16        2.57838  -0.00204   0.00000   0.03852   0.03852   2.61690
   A17        1.91719  -0.00285   0.00000  -0.00590  -0.00592   1.91128
   A18        1.95931  -0.00388   0.00000  -0.00361  -0.00362   1.95568
   A19        1.93567  -0.00199   0.00000  -0.00706  -0.00708   1.92859
   A20        1.87259   0.00337   0.00000   0.00693   0.00693   1.87952
   A21        1.86836   0.00269   0.00000   0.00531   0.00529   1.87365
   A22        1.90746   0.00316   0.00000   0.00523   0.00522   1.91267
   A23        1.88118   0.00556   0.00000   0.01266   0.01262   1.89380
   A24        1.84979   0.00182   0.00000   0.00535   0.00532   1.85511
   A25        1.93437   0.00122   0.00000   0.00490   0.00487   1.93923
   A26        1.91465  -0.00243   0.00000  -0.00606  -0.00611   1.90854
   A27        1.93349  -0.00243   0.00000  -0.00744  -0.00748   1.92601
   A28        1.94747  -0.00328   0.00000  -0.00820  -0.00821   1.93926
    D1        3.02628  -0.01061   0.00000  -0.02267  -0.02266   3.00361
    D2       -0.95296  -0.02329   0.00000  -0.06097  -0.06097  -1.01393
    D3        1.27539  -0.00483   0.00000  -0.02726  -0.02719   1.24820
    D4       -2.92583  -0.00500   0.00000  -0.02482  -0.02477  -2.95060
    D5       -0.78645  -0.00514   0.00000  -0.02578  -0.02573  -0.81218
    D6       -1.06920   0.00407   0.00000   0.00512   0.00507  -1.06412
    D7        1.01276   0.00389   0.00000   0.00756   0.00750   1.02026
    D8       -3.13104   0.00375   0.00000   0.00660   0.00654  -3.12450
    D9       -0.71871  -0.02531   0.00000   0.01623   0.01623  -0.70248
   D10       -1.91017   0.00155   0.00000   0.03222   0.03222  -1.87795
   D11       -3.03007   0.00002   0.00000  -0.00548  -0.00549  -3.03556
   D12       -0.98110   0.00086   0.00000  -0.00359  -0.00356  -0.98467
   D13        1.13465  -0.00130   0.00000  -0.00743  -0.00745   1.12720
   D14       -0.93352  -0.00238   0.00000  -0.01554  -0.01554  -0.94906
   D15        1.18737  -0.00227   0.00000  -0.01608  -0.01608   1.17129
   D16       -3.04433  -0.00117   0.00000  -0.01384  -0.01385  -3.05818
   D17        0.71005   0.00151   0.00000   0.01720   0.01720   0.72725
   D18        2.83094   0.00163   0.00000   0.01666   0.01666   2.84760
   D19       -1.40076   0.00273   0.00000   0.01890   0.01889  -1.38187
   D20        1.98543  -0.00110   0.00000  -0.02718  -0.02706   1.95837
   D21        0.06196  -0.00500   0.00000  -0.03541  -0.03553   0.02643
   D22       -1.73492  -0.01095   0.00000  -0.00125  -0.00126  -1.73618
   D23        0.20046  -0.01718   0.00000   0.01645   0.01646   0.21692
         Item               Value     Threshold  Converged?
 Maximum Force            0.032232     0.000450     NO 
 RMS     Force            0.008538     0.000300     NO 
 Maximum Displacement     0.141959     0.001800     NO 
 RMS     Displacement     0.030516     0.001200     NO 
 Predicted change in Energy=-6.767490D-03
 GradGradGradGradGradGradGradGradGradGradGradGradGradGradGradGradGradGrad

                          Input orientation:                          
 ---------------------------------------------------------------------
 Center     Atomic      Atomic             Coordinates (Angstroms)
 Number     Number       Type             X           Y           Z
 ---------------------------------------------------------------------
      1          6           0        0.305717    0.694081    0.528464
      2          8           0       -0.469759    0.276019    1.431943
      3          8           0       -0.501733    0.742341   -0.820040
      4          8           0       -1.745532   -1.196787    0.035395
      5          6           0       -3.178546   -1.013163    0.224957
      6          1           0       -3.388360   -0.010420    0.603213
      7          1           0       -3.637612   -1.184924   -0.751192
      8          1           0       -3.499139   -1.778191    0.936780
      9          1           0       -1.312962   -0.384592   -0.625962
     10          1           0       -1.177789   -0.739696    0.908576
     11          6           0        1.128674    1.940008    0.698120
     12          1           0        1.935303    1.751519    1.420249
     13          1           0        1.591898    2.258683   -0.243056
     14          1           0        0.512927    2.755962    1.100328
     15          6           0       -1.325997    1.914201   -0.992228
     16          1           0       -0.678931    2.759618   -1.249844
     17          1           0       -1.993382    1.699282   -1.832246
     18          1           0       -1.895258    2.133508   -0.081982
     19         35           0        1.606841   -0.804121   -0.215778
 ---------------------------------------------------------------------
                    Distance matrix (angstroms):
                    1          2          3          4          5
     1  C    0.000000
     2  O    1.261909   0.000000
     3  O    1.572503   2.299979   0.000000
     4  O    2.833041   2.397310   2.457442   0.000000
     5  C    3.891900   3.233624   3.367364   1.457114   0.000000
     6  H    3.761398   3.047469   3.305285   2.104463   1.092059
     7  H    4.551705   4.115303   3.681416   2.049104   1.092296
     8  H    4.555851   3.693522   4.292312   2.055642   1.093041
     9  H    2.261936   2.319993   1.402047   1.133213   2.144661
    10  H    2.097854   1.344208   2.375205   1.137413   2.131935
    11  C    1.502790   2.421229   2.529317   4.305781   5.243782
    12  H    2.137524   2.821625   3.460705   4.915168   5.934951
    13  H    2.167368   3.314666   2.648678   4.812094   5.803546
    14  H    2.149726   2.688078   2.961759   4.675355   5.347855
    15  C    2.542379   3.048506   1.443023   3.303069   3.671913
    16  H    2.897991   3.661147   2.070154   4.294487   4.759936
    17  H    3.445176   3.873246   2.040910   3.454957   3.604728
    18  H    2.699794   2.788240   2.102852   3.335725   3.412123
    19  Br   2.119298   2.862508   2.683796   3.384624   4.810184
                    6          7          8          9         10
     6  H    0.000000
     7  H    1.809972   0.000000
     8  H    1.802374   1.794544   0.000000
     9  H    2.440933   2.461750   3.027153   0.000000
    10  H    2.347704   3.000631   2.543214   1.580879   0.000000
    11  C    4.921054   5.880747   5.941264   3.621953   3.541875
    12  H    5.666866   6.662975   6.498135   4.393310   4.019864
    13  H    5.537867   6.282070   6.603562   3.946103   4.241191
    14  H    4.808330   6.015454   6.056564   4.022068   3.887791
    15  C    3.240825   3.873789   4.698657   2.327825   3.267751
    16  H    4.295106   4.955992   5.772920   3.267611   4.141598
    17  H    3.286413   3.491535   4.693360   2.502124   3.758446
    18  H    2.700977   3.807313   4.348759   2.641176   3.122703
    19  Br   5.123742   5.285448   5.324306   2.978171   3.003745
                   11         12         13         14         15
    11  C    0.000000
    12  H    1.098931   0.000000
    13  H    1.096331   1.772491   0.000000
    14  H    1.098497   1.770426   1.793361   0.000000
    15  C    2.980495   4.059876   3.032167   2.910154   0.000000
    16  H    2.780963   3.870385   2.534013   2.635118   1.095349
    17  H    4.025908   5.100590   3.961400   3.999768   1.094177
    18  H    3.128924   4.132289   3.493118   2.754026   1.095766
    19  Br   2.931569   3.052175   3.062962   3.950060   4.073535
                   16         17         18         19
    16  H    0.000000
    17  H    1.786417   0.000000
    18  H    1.798712   1.805991   0.000000
    19  Br   4.358243   4.673500   4.572992   0.000000
 Stoichiometry    C4H11BrO3
 Framework group  C1[X(C4H11BrO3)]
 Deg. of freedom    51
 Full point group                 C1      NOp   1
 Largest Abelian subgroup         C1      NOp   1
 Largest concise Abelian subgroup C1      NOp   1
                         Standard orientation:                         
 ---------------------------------------------------------------------
 Center     Atomic      Atomic             Coordinates (Angstroms)
 Number     Number       Type             X           Y           Z
 ---------------------------------------------------------------------
      1          6           0        0.260350    0.682104    0.534899
      2          8           0       -0.507599    0.230123    1.428420
      3          8           0       -0.543767    0.733642   -0.815474
      4          8           0       -1.742811   -1.249270    0.002677
      5          6           0       -3.180454   -1.103655    0.190190
      6          1           0       -3.415749   -0.112845    0.584557
      7          1           0       -3.632125   -1.269913   -0.790352
      8          1           0       -3.484625   -1.888181    0.887855
      9          1           0       -1.328002   -0.415740   -0.643335
     10          1           0       -1.189098   -0.793428    0.885467
     11          6           0        1.052270    1.944547    0.728488
     12          1           0        1.860951    1.763439    1.450211
     13          1           0        1.510593    2.290258   -0.205517
     14          1           0        0.415624    2.738409    1.142203
     15          6           0       -1.395694    1.887942   -0.970812
     16          1           0       -0.768535    2.753031   -1.211815
     17          1           0       -2.055004    1.671189   -1.816714
     18          1           0       -1.972987    2.077932   -0.059034
     19         35           0        1.599815   -0.771307   -0.229860
 ---------------------------------------------------------------------
 Rotational constants (GHZ):      1.6642801      0.9172312      0.7274771
 Standard basis: 6-31+G(d) (6D, 7F)
 There are   189 symmetry adapted cartesian basis functions of A   symmetry.
 There are   189 symmetry adapted basis functions of A   symmetry.
   189 basis functions,   355 primitive gaussians,   189 cartesian basis functions
    47 alpha electrons       47 beta electrons
       nuclear repulsion energy       689.1017455389 Hartrees.
 NAtoms=   19 NActive=   19 NUniq=   19 SFac= 1.00D+00 NAtFMM=   60 NAOKFM=F Big=F
 Integral buffers will be    131072 words long.
 Raffenetti 2 integral format.
 Two-electron integral symmetry is turned on.
 One-electron integrals computed using PRISM.
 PrsmSu:  requested number of processors reduced to:   4 ShMem   1 Linda.
 NBasis=   189 RedAO= T EigKep=  4.90D-05  NBF=   189
 NBsUse=   189 1.00D-06 EigRej= -1.00D+00 NBFU=   189
 Initial guess from the checkpoint file:  "/lustre/SCRATCH5/gau/Gau-14356.chk"
 B after Tr=     0.000000    0.000000    0.000000
         Rot=    0.999975   -0.003840    0.001650   -0.005767 Ang=  -0.82 deg.
 ExpMin= 3.50D-02 ExpMax= 5.74D+05 ExpMxC= 5.74D+03 IAcc=3 IRadAn=         5 AccDes= 0.00D+00
 Harris functional with IExCor=  402 and IRadAn=       5 diagonalized for initial guess.
 HarFok:  IExCor=  402 AccDes= 0.00D+00 IRadAn=         5 IDoV= 1 UseB2=F ITyADJ=14
 ICtDFT=  3500011 ScaDFX=  1.000000  1.000000  1.000000  1.000000
 FoFCou: FMM=F IPFlag=           0 FMFlag=      100000 FMFlg1=           0
         NFxFlg=           0 DoJE=T BraDBF=F KetDBF=T FulRan=T
         wScrn=  0.000000 ICntrl=     500 IOpCl=  0 I1Cent=   200000004 NGrid=           0
         NMat0=    1 NMatS0=      1 NMatT0=    0 NMatD0=    1 NMtDS0=    0 NMtDT0=    0
 Petite list used in FoFCou.
 Requested convergence on RMS density matrix=1.00D-08 within 128 cycles.
 Requested convergence on MAX density matrix=1.00D-06.
 Requested convergence on             energy=1.00D-06.
 No special actions if energy rises.
 SCF Done:  E(RB3LYP) =  -2956.40537139     A.U. after   12 cycles
            NFock= 12  Conv=0.32D-08     -V/T= 2.0067
 PrsmSu:  requested number of processors reduced to:   3 ShMem   1 Linda.
 Calling FoFJK, ICntrl=      2127 FMM=F ISym2X=0 I1Cent= 0 IOpClX= 0 NMat=1 NMatS=1 NMatT=0.
 ***** Axes restored to original set *****
 -------------------------------------------------------------------
 Center     Atomic                   Forces (Hartrees/Bohr)
 Number     Number              X              Y              Z
 -------------------------------------------------------------------
      1        6          -0.002210211   -0.008705846   -0.028674223
      2        8          -0.001504046   -0.004014209    0.026905063
      3        8          -0.003068337    0.009812098   -0.005692911
      4        8           0.000748617    0.015111663   -0.005847266
      5        6           0.009819340   -0.007818553   -0.004024470
      6        1          -0.001917601    0.000944574    0.000437014
      7        1          -0.003777073    0.001227730    0.001995734
      8        1          -0.001872957    0.002006694   -0.000686434
      9        1          -0.003639915   -0.015078087    0.011569159
     10        1          -0.000447434    0.003819968   -0.004063923
     11        6           0.006968759    0.007266908    0.004579229
     12        1          -0.003863968   -0.001196393   -0.001745459
     13        1          -0.001991618   -0.003160589    0.001470090
     14        1          -0.001197753   -0.001500564   -0.000784157
     15        6           0.007541398   -0.002253620   -0.000580749
     16        1          -0.002793812    0.001137545    0.000047883
     17        1          -0.000575178    0.001487088    0.001153490
     18        1          -0.001587199    0.000815114   -0.000470607
     19       35           0.005368990    0.000098479    0.004412538
 -------------------------------------------------------------------
 Cartesian Forces:  Max     0.028674223 RMS     0.007191030

 GradGradGradGradGradGradGradGradGradGradGradGradGradGradGradGradGradGrad
 Berny optimization.
 FormGI is forming the generalized inverse of G from B-inverse, IUseBI=4.
 GSVD:  received Info=                   1 from GESDD.
 Internal  Forces:  Max     0.023299509 RMS     0.005928751
 Search for a saddle point.
 Step number   3 out of a maximum of   79
 All quantities printed in internal units (Hartrees-Bohrs-Radians)
 Swapping is turned off.
 Update second derivatives using D2CorX and points    2    3
 ITU=  0  0  0
     Eigenvalues ---   -0.07523  -0.00078   0.00149   0.00423   0.00513
     Eigenvalues ---    0.00705   0.01055   0.02986   0.04073   0.04570
     Eigenvalues ---    0.05037   0.05701   0.05883   0.06461   0.06634
     Eigenvalues ---    0.07603   0.08344   0.08557   0.08676   0.08809
     Eigenvalues ---    0.10402   0.12348   0.13379   0.13700   0.14226
     Eigenvalues ---    0.14603   0.15521   0.18196   0.18539   0.18604
     Eigenvalues ---    0.18866   0.19253   0.20167   0.24419   0.31558
     Eigenvalues ---    0.31783   0.32528   0.32682   0.33379   0.33457
     Eigenvalues ---    0.33708   0.33851   0.34028   0.34322   0.35613
     Eigenvalues ---    0.36009   0.38831   0.60183   1.13229   2.61875
     Eigenvalues ---    4.44854
 Eigenvectors required to have negative eigenvalues:
                          R9        R8        R5        R4        A1
   1                    0.51310  -0.50473   0.48420  -0.43743  -0.10163
                          R1        D1        D5        D7        D3
   1                    0.09916   0.08724  -0.05918   0.05692  -0.05508
 RFO step:  Lambda0=2.064326892D-03 Lambda=-8.50775817D-03.
 Linear search not attempted -- option 19 set.
 Maximum step size (   0.300) exceeded in Quadratic search.
    -- Step size scaled by   0.578
 Iteration  1 RMS(Cart)=  0.04105498 RMS(Int)=  0.00607942
 Iteration  2 RMS(Cart)=  0.01600684 RMS(Int)=  0.00022298
 Iteration  3 RMS(Cart)=  0.00023693 RMS(Int)=  0.00020894
 Iteration  4 RMS(Cart)=  0.00000006 RMS(Int)=  0.00020894
 Variable       Old X    -DE/DX   Delta X   Delta X   Delta X     New X
                                 (Linear)    (Quad)   (Total)
    R1        2.38466   0.01436   0.00000   0.00092   0.00092   2.38558
    R2        2.83986   0.00152   0.00000   0.01218   0.01218   2.85204
    R3        4.00489   0.00168   0.00000   0.04432   0.04432   4.04921
    R4        2.54018  -0.00524   0.00000   0.19556   0.19556   2.73575
    R5        2.64948   0.00932   0.00000   0.07769   0.07769   2.72717
    R6        2.72692  -0.00052   0.00000  -0.01094  -0.01094   2.71598
    R7        2.75355  -0.00298   0.00000  -0.00184  -0.00184   2.75171
    R8        2.14146  -0.00802   0.00000  -0.05016  -0.05016   2.09130
    R9        2.14940  -0.00080   0.00000  -0.16660  -0.16660   1.98280
   R10        2.06369   0.00138   0.00000   0.00001   0.00001   2.06370
   R11        2.06414  -0.00039   0.00000  -0.00302  -0.00302   2.06113
   R12        2.06555  -0.00130   0.00000  -0.00359  -0.00359   2.06196
   R13        2.07668  -0.00378   0.00000  -0.00761  -0.00761   2.06907
   R14        2.07176  -0.00302   0.00000  -0.00512  -0.00512   2.06665
   R15        2.07586  -0.00073   0.00000  -0.00137  -0.00137   2.07449
   R16        2.06991  -0.00079   0.00000  -0.00068  -0.00068   2.06923
   R17        2.06769  -0.00083   0.00000  -0.00024  -0.00024   2.06745
   R18        2.07070   0.00060   0.00000   0.00225   0.00225   2.07294
    A1        2.12983  -0.00819   0.00000  -0.01330  -0.01379   2.11604
    A2        1.97633   0.00241   0.00000  -0.01059  -0.01139   1.96494
    A3        1.86454  -0.00223   0.00000  -0.02224  -0.02284   1.84170
    A4        1.87052  -0.02330   0.00000  -0.04888  -0.04888   1.82165
    A5        1.91639   0.00395   0.00000   0.03482   0.03482   1.95121
    A6        1.94015  -0.00540   0.00000   0.02380   0.02346   1.96361
    A7        1.91812   0.00202   0.00000   0.00407   0.00336   1.92148
    A8        1.54026   0.00381   0.00000   0.04788   0.04741   1.58767
    A9        1.92807   0.00072   0.00000  -0.00352  -0.00351   1.92456
   A10        1.85172   0.00613   0.00000   0.00947   0.00946   1.86118
   A11        1.85978   0.00263   0.00000   0.00350   0.00349   1.86326
   A12        1.95323  -0.00340   0.00000  -0.00442  -0.00441   1.94882
   A13        1.93986  -0.00247   0.00000  -0.00318  -0.00318   1.93668
   A14        1.92693  -0.00292   0.00000  -0.00094  -0.00098   1.92596
   A15        2.64191   0.01284   0.00000  -0.04471  -0.04471   2.59720
   A16        2.61690  -0.00292   0.00000   0.02786   0.02786   2.64476
   A17        1.91128  -0.00216   0.00000  -0.01352  -0.01358   1.89770
   A18        1.95568  -0.00283   0.00000  -0.00531  -0.00534   1.95035
   A19        1.92859  -0.00156   0.00000  -0.01129  -0.01135   1.91723
   A20        1.87952   0.00252   0.00000   0.01369   0.01367   1.89319
   A21        1.87365   0.00201   0.00000   0.00851   0.00841   1.88206
   A22        1.91267   0.00233   0.00000   0.00909   0.00905   1.92173
   A23        1.89380   0.00424   0.00000   0.01573   0.01566   1.90946
   A24        1.85511   0.00136   0.00000   0.00808   0.00802   1.86313
   A25        1.93923   0.00096   0.00000   0.00551   0.00546   1.94469
   A26        1.90854  -0.00186   0.00000  -0.00716  -0.00724   1.90130
   A27        1.92601  -0.00190   0.00000  -0.00878  -0.00884   1.91717
   A28        1.93926  -0.00256   0.00000  -0.01229  -0.01232   1.92694
    D1        3.00361  -0.00765   0.00000  -0.02801  -0.02807   2.97554
    D2       -1.01393  -0.01725   0.00000  -0.09036  -0.09030  -1.10423
    D3        1.24820  -0.00389   0.00000  -0.07093  -0.07073   1.17747
[...]
 216159,-0.03300846,-0.01837177,-0.01005562,-0.04513589,0.01256121,0.44
 768322,0.01229769,-0.00854776,0.00530731,-0.02023181,-0.00313499,-0.01
 556589,-0.04675196,-0.05514123,0.01298046,0.07819808,0.22474013,0.0044
 3069,0.01104998,-0.04546675,-0.05118074,-0.03985516,0.00260518,0.03131
 822,0.03208258,0.01492634,0.03908010,0.00000766,0.31409104,-0.00488243
 ,-0.00059387,0.00226883,0.00831873,0.00582316,0.00159810,0.00754166,0.
 01200673,-0.00154542,-0.20263267,0.00051278,0.01086863,0.44542181,0.00
 023226,-0.00034214,0.00129462,0.00013019,-0.00039685,-0.00179229,-0.00
 159031,-0.00726399,0.00091324,0.01190209,-0.07286309,0.00769523,0.0047
 4858,0.60433655,0.00099732,0.00135900,-0.00472785,-0.00506341,-0.00700
 818,-0.00270466,0.00097817,0.00293765,0.00085892,0.02649185,0.00813158
 ,-0.09891375,0.03048357,-0.00688404,0.61873760,0.00102073,0.00061926,-
 0.00222266,-0.00262622,-0.00300847,-0.00084286,0.00000471,-0.00069634,
 0.00070187,-0.03312472,-0.00416937,-0.03456861,-0.09209119,-0.00887299
 ,-0.09611180,0.11557943,-0.00003989,0.00022807,-0.00041221,-0.00004759
 ,-0.00003070,0.00028597,0.00022636,-0.00008410,0.00036937,-0.00050001,
 0.00170873,0.00054254,-0.00889626,-0.05606534,-0.02038665,0.01027266,0
 .05021509,0.00018928,0.00005214,-0.00001497,0.00003384,0.00029492,0.00
 035166,-0.00029703,-0.00047047,-0.00001874,0.00471349,0.00017036,0.012
 44444,-0.10821091,-0.01992128,-0.28215318,0.11338584,0.02170988,0.2939
 9231,0.00089700,-0.00035637,0.00103852,-0.00024182,0.00004457,-0.00076
 504,-0.00203823,-0.00427584,0.00025261,-0.02616626,-0.03314531,0.02707
 202,-0.05623730,-0.03734880,0.02393728,0.00523356,0.01206351,-0.006676
 58,0.07424212,0.00027109,-0.00011891,0.00035350,-0.00014358,0.00001523
 ,-0.00037932,-0.00005872,0.00029301,-0.00029118,-0.00202076,0.00612998
 ,-0.00279150,-0.04577037,-0.23220810,0.12512195,0.00180726,0.00441055,
 -0.00291938,0.04993691,0.24082984,-0.00037354,0.00000314,0.00010443,0.
 00031562,0.00034009,-0.00006911,0.00041962,0.00077224,-0.00016204,0.00
 488935,0.00303502,0.00001771,0.03126867,0.12337861,-0.14114961,0.00606
 922,0.02402580,-0.01414347,-0.03736394,-0.13529595,0.14393294,-0.00035
 065,0.00029757,0.00062359,0.00014905,-0.00083723,-0.00071984,-0.000690
 82,-0.00155065,-0.00007306,-0.02953300,0.02711265,0.01847042,-0.065482
 25,0.05024786,0.02604856,0.00631845,-0.01241482,-0.00490097,0.00408843
 ,-0.00472767,-0.00417877,0.08129994,-0.00019292,-0.00001773,-0.0001758
 5,0.00046400,0.00041287,0.00067245,0.00067334,0.00093254,-0.00030358,0
 .00293593,0.00860248,0.00229982,0.05616883,-0.24683039,-0.10263575,-0.
 00058756,-0.00011342,0.00038895,0.00561128,-0.01963691,-0.01331833,-0.
 06410472,0.25827292,-0.00003331,-0.00047673,0.00118978,0.00103673,0.00
 073908,-0.00028093,-0.00020867,0.00078890,-0.00045253,0.00597117,-0.00
 127683,0.00096493,0.02950808,-0.10198524,-0.11098102,0.00761232,-0.025
 46596,-0.01057800,-0.00560007,0.01604787,0.01080081,-0.03712391,0.1130
 3595,0.11000048,-0.01548277,0.00218187,-0.02845299,-0.01156018,-0.0123
 3023,0.00791133,-0.02206430,0.01905889,0.00123323,-0.04226298,0.015873
 89,-0.02455970,-0.01819358,-0.01364603,0.01120999,0.00098755,-0.000628
 76,0.00008325,-0.00004247,0.00097227,-0.00081162,0.00212098,-0.0007701
 6,0.00001904,0.06922180,-0.01855369,0.02492394,-0.04183667,-0.01553197
 ,-0.02049113,0.01064788,0.04028296,0.01199710,0.01056770,0.00441110,-0
 .06370133,0.01446190,-0.01765215,0.01320844,-0.00994244,0.00088959,-0.
 00011802,0.00090614,0.00814905,0.00056637,-0.00184462,0.00402499,-0.00
 085568,-0.00156309,-0.04007352,0.03682256,-0.01107514,-0.01901873,0.01
 758938,0.01080720,0.00804008,-0.00375550,-0.00958802,-0.00580703,-0.03
 300384,-0.00521709,0.01629653,-0.04743763,0.00941049,-0.00417697,0.000
 77235,-0.00153673,-0.00062474,0.00011897,-0.00306450,-0.00058401,0.000
 90465,-0.00087619,0.00099639,0.00004730,0.02228063,-0.01521391,0.10307
 000,-0.01992849,-0.01777771,0.04121356,0.01654043,0.03282235,-0.003959
 04,-0.01542454,-0.00767023,-0.00816519,-0.07232838,-0.01989575,-0.0219
 9898,-0.02581617,-0.00481930,-0.01892693,-0.00077318,-0.00003816,0.001
 83318,0.00116412,-0.00019941,-0.00053793,0.00240809,-0.00014706,-0.001
 45925,0.02358458,0.02314508,-0.00528012,0.08367239,-0.01923976,-0.0130
 1219,0.03217360,0.02694923,0.00554250,-0.00427082,-0.00968736,-0.00397
 302,-0.00984943,-0.01838606,-0.04522193,-0.02479535,-0.00368885,-0.000
 66535,0.00785416,0.00350520,-0.00010169,-0.00023547,-0.00074483,-0.000
 12306,-0.00092522,0.00224166,-0.00032285,0.00017976,0.01759997,0.01680
 875,0.02014928,-0.00326744,0.04366889,-0.00419395,0.00088320,0.0467045
 0,0.02766061,0.02348253,-0.03181863,-0.01297571,-0.00709884,-0.0083286
 7,-0.05852674,-0.02790902,-0.16408687,-0.00524028,0.00129329,0.0193304
 7,0.00698699,-0.00002826,0.00000829,0.00136610,0.00076734,-0.00016978,
 0.00289604,-0.00115076,-0.00054604,0.00719353,0.02474216,-0.03198976,0
 .02821484,-0.01324191,0.18311377,-0.09918786,-0.05239497,-0.01205033,-
 0.01367145,-0.02723457,0.00831852,-0.01802377,-0.01443166,-0.01590197,
 -0.00211662,-0.00219785,-0.00032473,0.00071536,-0.00006359,-0.00011885
 ,-0.00013386,0.00003255,-0.00001149,-0.00013810,-0.00003340,0.00004367
 ,0.00001994,0.00003665,-0.00001404,0.00095479,0.00414853,-0.00221477,0
 .00246801,0.00103164,0.00249295,0.55450419,-0.06623612,-0.16092943,-0.
 01950799,-0.01775177,-0.01339790,0.00654624,0.00863664,0.00752284,0.00
 578168,-0.00025699,0.00112202,-0.00287240,-0.00006101,0.00013923,-0.00
 011941,-0.00004942,-0.00002738,-0.00002258,0.00008779,0.00000891,-0.00
 000927,-0.00000866,-0.00001978,0.00005981,-0.00098962,-0.00348372,0.00
 240461,0.00212689,0.00203799,0.00227747,-0.04116674,0.50717968,-0.0150
 9805,-0.01916829,-0.07295166,0.02790330,0.03278585,0.00309541,-0.02070
 423,-0.01571486,-0.01241609,0.00240070,-0.00099972,0.00638694,-0.00034
 674,-0.00002397,0.00040419,0.00026604,0.00004127,-0.00001785,-0.000091
 52,-0.00004094,-0.00001654,-0.00000148,0.00000866,-0.00014022,0.001914
 96,0.00550332,-0.00368712,-0.00470623,-0.00301589,-0.00650919,-0.02167
 013,-0.03220620,0.59571301,-0.01484848,0.00613021,-0.01199917,0.001786
 37,-0.00052032,0.00132610,-0.00193436,-0.00249599,-0.00104775,0.000104
 95,-0.00034568,0.00071784,0.00005643,-0.00001535,0.00007173,0.00001681
 ,0.00000651,0.00000246,-0.00003760,-0.00001380,-0.00000124,0.00000114,
 0.00001077,-0.00002093,0.00049985,0.00119008,-0.00072772,-0.00048017,-
 0.00038968,-0.00038798,-0.19345463,0.04832649,-0.12880992,0.20772210,-
 0.02064977,0.00580226,-0.01718619,0.00216833,0.00025685,0.00034086,-0.
 00577898,-0.00371128,-0.00360996,0.00003295,-0.00053251,0.00096729,0.0
 0011222,-0.00002650,0.00000504,0.00001388,0.00000840,-0.00000631,-0.00
 004308,-0.00000242,0.00000620,-0.00001301,0.00000735,-0.00000677,0.000
 42545,0.00163267,-0.00103550,-0.00048352,-0.00038336,-0.00058180,0.051
 41493,-0.06319086,0.04647895,-0.05282268,0.06960933,-0.00483972,0.0015
 2811,-0.00491599,0.00144350,0.00075332,0.00013745,-0.00162499,-0.00185
 619,0.00013029,-0.00006710,-0.00037816,0.00048776,0.00003279,-0.000044
 17,0.00003637,0.00001729,0.00001236,-0.00000379,-0.00002367,0.00000053
 ,0.00000899,0.00000212,0.00000214,-0.00001286,0.00032374,0.00105009,-0
 .00043208,-0.00026825,-0.00023708,-0.00023003,-0.12877332,0.04404846,-
 0.16028924,0.14103103,-0.04670124,0.17074052,-0.00860514,-0.00320392,0
 .01820626,-0.00224745,-0.00540811,-0.00087799,0.00056634,0.00123289,-0
 .00097738,-0.00039507,0.00043549,-0.00107582,0.00008038,0.00001310,-0.
 00011544,-0.00005894,-0.00001257,0.00000115,0.00002391,0.00001193,0.00
 000607,-0.00001127,-0.00000411,0.00003877,-0.00048339,-0.00112980,0.00
 047119,0.00115557,0.00043866,0.00126748,-0.09346149,-0.03857424,0.0940
 7824,0.01217286,0.00902992,-0.02023169,0.09946695,-0.00818168,-0.00713
 720,0.02744346,-0.00591747,-0.00558113,-0.00142465,0.00128792,0.000821
 32,-0.00088832,-0.00069843,-0.00008372,-0.00152116,0.00020014,0.000008
 95,-0.00009556,-0.00007606,0.00000104,0.00000830,0.00000286,-0.0000013
 4,0.00000963,0.00000513,0.00000823,0.00002866,-0.00034197,-0.00075271,
 0.00045904,0.00111440,0.00114611,0.00171522,-0.03680143,-0.08087493,0.
 07538301,-0.00302153,-0.00356450,0.00539485,0.04310739,0.08674740,-0.0
 0317068,-0.00403535,0.00422342,-0.00145745,-0.00092206,0.00155610,0.00
 007599,-0.00012542,0.00055542,0.00013217,0.00013746,0.00005701,-0.0000
 3092,-0.00000764,0.00008205,0.00002368,0.00000506,-0.00000644,0.000005
 67,-0.00000218,-0.00000350,-0.00000227,-0.00000771,-0.00000754,0.00004
 501,-0.00003009,0.00004148,-0.00025487,-0.00018727,0.00001737,0.097391
 21,0.08174308,-0.24812938,0.00946546,0.00598171,-0.01590933,-0.1039961
 5,-0.08574969,0.26594151,0.00882290,-0.01312784,-0.00646006,0.00090493
 ,0.00133615,-0.00122810,0.00080393,0.00106856,0.00100459,0.00024864,0.
 00027887,0.00001916,-0.00008514,-0.00000059,0.00000721,0.00001451,-0.0
 0000004,-0.00000053,0.00001728,0.00001080,-0.00000331,0.00000309,-0.00
 000968,0.00000242,-0.00018360,-0.00039930,0.00022180,-0.00014235,-0.00
 002843,-0.00017347,-0.13539833,0.10422901,0.06564308,-0.01285503,0.015
 94560,0.01176539,-0.00742608,0.00861497,0.00288635,0.14597191,0.017681
 49,-0.02050864,-0.01155177,-0.00091725,0.00334116,0.00086291,-0.000297
 50,0.00088503,0.00067466,0.00012278,0.00021604,0.00019553,0.00010693,-
 0.00001333,-0.00000043,0.00000512,-0.00000210,-0.00000145,-0.00000332,
 0.00000518,-0.00000154,-0.00004736,0.00001410,0.00001611,0.00002255,-0
 .00033825,-0.00001505,-0.00027730,-0.00017848,-0.00027478,0.10330725,-
 0.17709384,-0.07606100,0.00380098,-0.00518911,-0.00303329,-0.00725683,
 0.01018186,0.00417865,-0.11589857,0.19177014,0.00398490,-0.00524060,-0
 .00402746,-0.00032121,0.00151375,0.00019732,-0.00043870,0.00096573,-0.
 00007013,0.00005480,0.00024629,-0.00017051,0.00000949,-0.00000851,-0.0
 0002409,-0.00000072,-0.00001120,-0.00000758,0.00000973,0.00001814,-0.0
 0000048,-0.00002520,-0.00000188,0.00003137,-0.00023606,-0.00045850,0.0
 0016790,0.00007151,-0.00009818,0.00001788,0.06559142,-0.07671538,-0.09
 601664,-0.01117523,0.01540009,0.01044084,0.01389822,-0.02002382,-0.009
 04208,-0.07051931,0.08642386,0.09891681,-0.01740586,0.01535947,-0.0077
 7892,0.00089987,-0.00187723,0.00562652,-0.10902164,0.04908575,-0.00715
 523,-0.00899346,-0.00944939,0.00600646,0.00317237,-0.00157502,0.000431
 48,-0.00027536,-0.00009750,-0.00013593,-0.00098303,0.00008444,0.000188
 49,-0.00051430,0.00015817,0.00034008,0.01842880,0.01047791,-0.00565764
 ,-0.00043202,0.00024290,-0.00132618,-0.00023820,-0.00118770,-0.0008243
 1,0.00055718,0.00087827,0.00062860,-0.00083082,0.00011599,-0.00022349,
 -0.00096794,0.00041822,-0.00021046,0.54440986,0.02016467,-0.00972821,0
 .02647511,0.00083029,0.00395524,-0.00955333,0.04787752,-0.16662354,-0.
 01681636,0.00324452,0.00778485,-0.00224788,-0.00424778,-0.00001165,0.0
 0118561,0.00030642,0.00003733,0.00011100,0.00040143,-0.00032546,-0.000
 21468,0.00057238,-0.00045014,-0.00049145,0.00426786,-0.02085319,0.0005
 8978,-0.00080558,-0.00187140,-0.00013602,-0.00263135,0.00233242,-0.001
 84609,-0.00068675,-0.00183888,-0.00046282,-0.00064660,0.00048942,0.000
 20066,0.00050791,-0.00019112,-0.00111136,0.08321813,0.49140798,-0.0062
 6990,0.01505076,0.01173873,0.00271353,0.00096353,-0.00593778,-0.003139
 57,-0.02301830,-0.08197054,0.00083997,-0.00047977,0.00093931,-0.000153
 58,0.00067572,0.00053769,-0.00003928,-0.00029822,-0.00013904,-0.000029
 78,-0.00011627,-0.00016338,0.00035986,0.00007243,-0.00006960,0.0004705
 6,0.00236628,-0.00050083,-0.00156178,-0.00018742,-0.00091812,-0.001264
 59,0.00015028,-0.00129262,0.00021261,0.00046962,0.00001331,0.00048310,
 -0.00029434,-0.00009977,-0.00166392,-0.00008363,-0.00018807,0.01592959
 ,-0.00414398,0.59633147,0.00099883,0.00045818,0.00034944,0.00000761,-0
 .00017622,-0.00046797,0.01454159,0.02552318,-0.00335485,0.00154064,0.0
 0156662,-0.00104216,-0.00051168,0.00035977,0.00003120,0.00005977,0.000
 05891,0.00003527,0.00020904,-0.00008228,-0.00004101,0.00014135,-0.0000
 6417,-0.00018857,-0.00316548,-0.00102835,0.00083535,0.00001084,0.00004
 921,0.00021835,-0.00027510,0.00012234,-0.00135955,-0.00007785,0.000297
 96,0.00026983,-0.00055069,-0.00005062,-0.00007907,-0.00064059,0.000263
 80,-0.00014538,-0.15436686,-0.13414988,0.02990096,0.16100980,-0.003567
 06,-0.00030789,-0.00331598,0.00058301,0.00025629,0.00131158,-0.0058307
 8,-0.03880405,0.00361923,-0.00262677,-0.00275301,0.00196964,0.00078099
 ,-0.00050897,0.00020642,-0.00005376,0.00000865,-0.00002559,-0.00030718
 ,0.00000652,0.00004780,-0.00011537,0.00004329,0.00006814,0.00576780,0.
 00489368,-0.00163877,-0.00041921,0.00001326,-0.00072894,-0.00011319,0.
 00002842,0.00014211,0.00006244,0.00050808,-0.00008734,0.00048737,-0.00
 006076,-0.00022293,-0.00027124,0.00039363,0.00035089,-0.12637767,-0.20
 393315,0.03646185,0.13348571,0.23515656,0.00135677,0.00149672,-0.00009
 922,-0.00084756,-0.00017984,-0.00002441,-0.00302994,-0.00249259,0.0031
 4663,-0.00032186,-0.00021970,-0.00006769,0.00015069,-0.00019989,-0.000
 17573,0.00001698,0.00007420,0.00004207,-0.00002039,0.00007099,0.000080
 14,-0.00013699,0.00001812,0.00005569,0.00045198,0.00011477,-0.00019356
 ,0.00021879,-0.00008665,0.00006676,-0.00026842,0.00016012,0.00025473,0
 .00014318,-0.00020714,-0.00003191,-0.00027038,0.00012208,0.00014050,-0
 .00035367,-0.00002396,-0.00098744,0.02975207,0.03605440,-0.06176597,-0
 .03061514,-0.03818719,0.05749246,0.00174253,-0.00072244,0.00600498,0.0
 0097120,0.00069785,-0.00161797,-0.01807883,0.00955359,-0.01563492,0.00
 062140,0.00085368,-0.00009313,-0.00028468,-0.00001290,0.00002404,0.000
 09896,0.00000817,0.00000447,0.00004358,0.00000178,0.00000969,0.0000658
 0,-0.00003265,0.00001430,-0.00062272,-0.00098652,0.00005153,-0.0004220
 5,-0.00033039,-0.00031294,-0.00003729,0.00030616,-0.00014136,0.0000128
 7,0.00004810,-0.00002860,0.00013110,-0.00011369,-0.00009809,-0.0001455
 2,-0.00009571,0.00008509,-0.17141487,-0.01781322,-0.13016930,-0.012128
 53,-0.00218812,-0.01507323,0.18765313,-0.00139098,-0.00120064,-0.00745
 174,-0.00117025,-0.00077047,0.00223882,0.03182446,-0.00826225,0.027625
 43,-0.00060118,-0.00030157,-0.00076873,0.00018062,-0.00002654,0.000036
 81,-0.00011004,-0.00012631,-0.00005004,-0.00006333,0.00005013,-0.00002
 878,-0.00003824,-0.00000554,0.00013617,0.00078653,0.00022811,0.0010768
 5,0.00087579,0.00067705,0.00071032,-0.00006263,-0.00041828,-0.00020132
 ,-0.00003444,0.00049817,0.00013667,0.00025108,-0.00009792,-0.00010666,
 -0.00023398,0.00038837,0.00047807,-0.02282695,-0.04976024,-0.02028045,
 -0.01634449,0.00047846,-0.01935707,0.00974825,0.05863627,0.00115952,-0
 .00019880,-0.00005641,-0.00030070,0.00005650,0.00060996,0.00245798,0.0
 0274361,0.00498942,0.00085513,0.00065172,-0.00014008,-0.00049048,0.000
 15759,0.00014932,0.00006251,0.00015252,0.00008782,0.00012937,-0.000110
 58,-0.00001055,0.00004591,-0.00008096,-0.00030488,-0.00111091,-0.00059
 342,0.00041365,-0.00036975,-0.00030110,-0.00029400,0.00012737,-0.00022
 593,-0.00011153,-0.00006747,0.00005853,0.00005934,-0.00006994,0.000099
 10,0.00007564,0.00003184,0.00027397,0.00012500,-0.13377102,-0.01547536
 ,-0.19605419,0.00501033,0.00000922,0.00564124,0.14627532,0.01582680,0.
 20360791,0.00033413,-0.00005465,0.00521590,0.00104810,-0.00032818,-0.0
 0172514,-0.01267637,0.01489691,0.01459762,0.00046610,0.00107343,-0.000
 74337,-0.00024530,-0.00005485,-0.00012542,-0.00000306,0.00000417,0.000
 01202,0.00005912,0.00000558,-0.00001483,0.00002674,-0.00014656,0.00004
 072,-0.00138579,-0.00238132,0.00029708,0.00036032,0.00030653,0.0005295
 1,-0.00050534,0.00036763,0.00025467,0.00010717,-0.00021915,-0.00019578
 ,0.00023970,0.00000769,-0.00006239,-0.00040768,-0.00041446,-0.00035351
 ,-0.09950243,0.00188294,0.09543001,-0.00693268,0.00040664,0.01891844,0
 .01262244,-0.00193233,-0.02007495,0.10644071,-0.00036417,0.00178018,-0
 .00475335,-0.00203668,-0.00020407,0.00152412,0.02188309,-0.01409957,-0
 .02726768,-0.00094782,-0.00075703,0.00059626,0.00039569,-0.00045440,-0
 .00016497,-0.00003196,0.00006092,0.00001404,-0.00010956,0.00009907,0.0
 0007399,-0.00033494,-0.00007940,0.00013658,0.00191051,0.00230920,-0.00
 149727,0.00037538,-0.00032478,0.00000613,0.00001356,-0.00010281,0.0006
 7025,0.00014169,0.00008469,-0.00008507,0.00007879,-0.00006025,-0.00008
 620,-0.00005378,-0.00002140,-0.00011002,0.00197259,-0.05263884,-0.0086
 1917,-0.01005879,0.00441575,0.02304019,0.00038165,0.00077346,-0.002964
 49,-0.01318586,0.05919666,-0.00261459,0.00099115,-0.00241425,-0.000559
 81,-0.00079689,0.00171942,0.00279629,-0.00687887,0.00622327,-0.0011375
 9,-0.00100888,0.00028150,0.00079808,-0.00031020,-0.00043181,-0.0000488
 9,-0.00000473,-0.00000798,-0.00014087,0.00017848,0.00011009,-0.0002276
 0,0.00011987,0.00035302,0.00138063,0.00124933,-0.00072662,0.00055651,0
 .00031379,0.00039389,0.00015353,-0.00024944,0.00001467,-0.00002680,0.0
 0011107,0.00010781,-0.00010600,0.00005968,-0.00000189,-0.00019604,0.00
 021730,0.00016990,0.09921823,-0.01267965,-0.26082813,0.00063530,-0.000
 00849,-0.00346395,0.01060942,-0.00001678,-0.01875790,-0.11140181,0.018
 82986,0.27735728,-0.00659211,-0.00281268,-0.00843635,-0.02256773,0.005
 07165,0.02818194,-0.01958134,0.02395204,-0.00389041,-0.00409501,-0.002
 01606,-0.00239631,0.00115564,0.00036588,-0.00025056,-0.00024795,0.0000
 0274,-0.00006081,-0.00009336,-0.00005208,0.00011577,-0.00006072,0.0000
 0063,0.00006511,-0.00035109,0.00101732,0.00086267,0.00438301,0.0033978
 0,0.00431082,-0.00202026,0.00207931,0.00129253,0.00065039,-0.00035740,
 0.00053882,0.00023354,0.00074638,-0.00065018,0.00146508,-0.00052084,-0
 .00027937,-0.00252129,-0.00229289,-0.00204851,0.00012998,0.00029637,-0
 .00007130,-0.00082851,0.00114212,0.00009993,-0.00004588,-0.00002939,0.
 00031200,0.05098761,-0.01658963,-0.02963282,0.00683172,0.01560863,0.01
 240409,-0.01600612,0.01462913,-0.01290892,0.00316597,0.00257303,0.0027
 3393,0.00298373,-0.00012637,-0.00001651,0.00039922,0.00023657,-0.00000
 973,-0.00000315,0.00010021,0.00000141,-0.00005411,-0.00030957,0.000038
 04,0.00002906,-0.00008729,-0.00279678,-0.00040058,-0.00465924,-0.00371
 643,-0.00472730,0.01714625,-0.02083259,-0.01173514,0.00067705,0.000031
 63,-0.00004116,0.00114958,-0.00118986,-0.00076344,-0.00196842,-0.00365
 922,-0.00161738,0.00137961,0.00221858,0.00131108,-0.00023087,0.0001652
 3,-0.00019757,0.00069638,-0.00076025,-0.00007892,-0.00023416,0.0000226
 3,-0.00011661,-0.02999090,0.05790757,-0.01119705,-0.00380872,-0.014930
 63,0.02886856,-0.00526899,-0.02101194,-0.00451027,0.00356354,0.0070944
 9,0.00233082,0.00087358,0.00308112,-0.00037908,-0.00005411,0.00035274,
 0.00022879,0.00001300,0.00004548,-0.00003494,-0.00002747,-0.00007128,-
 0.00018022,0.00006005,-0.00006976,0.00065338,-0.00012682,-0.00139872,-
 0.00462008,-0.00323880,-0.00476184,0.00849397,-0.01124313,-0.00429085,
 0.00129381,-0.00048446,-0.00033746,-0.00072971,-0.00072551,0.00050942,
 -0.00098344,-0.00179609,0.00046745,-0.00103834,0.00056242,0.00036753,0
 .00000768,0.00002835,-0.00011034,0.00009070,-0.00000436,-0.00002975,-0
 .00059879,0.00065679,-0.00009834,-0.01769579,0.02102073,0.03519268\\0.
 00002727,-0.00001755,0.00000772,-0.00001668,0.00001103,0.00001507,-0.0
 0002343,0.00002188,-0.00001832,-0.00002174,0.00005667,0.00001988,0.000
 01586,-0.00002504,0.00000739,0.00000821,-0.00001096,0.00000033,0.00001
 380,-0.00001441,0.00000107,0.00000540,-0.00001593,0.00000540,0.0000344
 0,-0.00001635,-0.00001923,0.00002202,-0.00004267,-0.00001953,-0.000004
 77,0.00001551,-0.00000727,-0.00000078,0.00000961,-0.00000796,-0.000010
 85,0.00001406,-0.00000213,-0.00000610,0.00000509,0.00000479,-0.0000128
 0,-0.00000027,0.00000327,-0.00001522,0.00000381,0.00000655,-0.00001212
 ,0.00000002,0.00000772,-0.00000662,-0.00000530,0.00000831,0.00000414,0
 .00001079,-0.00001307\\\@


 I HAVE NOT FAILED, I HAVE ONLY DISCOVERED 10,000
 WAYS THAT DIDN'T WORK.  -- THOMAS A. EDISON
 Job cpu time:       0 days  0 hours 16 minutes 48.5 seconds.
 File lengths (MBytes):  RWF=     93 Int=      0 D2E=      0 Chk=      4 Scr=      1
 Normal termination of Gaussian 09 at Mon Feb  2 12:07:08 2015.
