 Entering Link 1 = C:\G09W\l1.exe PID=      1328.
  
 Copyright (c) 1988,1990,1992,1993,1995,1998,2003,2009, Gaussian, Inc.
                  All Rights Reserved.
  
 This is part of the Gaussian(R) 09 program.  It is based on
 the Gaussian(R) 03 system (copyright 2003, Gaussian, Inc.),
 the Gaussian(R) 98 system (copyright 1998, Gaussian, Inc.),
 the Gaussian(R) 94 system (copyright 1995, Gaussian, Inc.),
 the Gaussian 92(TM) system (copyright 1992, Gaussian, Inc.),
 the Gaussian 90(TM) system (copyright 1990, Gaussian, Inc.),
 the Gaussian 88(TM) system (copyright 1988, Gaussian, Inc.),
 the Gaussian 86(TM) system (copyright 1986, Carnegie Mellon
 University), and the Gaussian 82(TM) system (copyright 1983,
 Carnegie Mellon University). Gaussian is a federally registered
 trademark of Gaussian, Inc.
  
 This software contains proprietary and confidential information,
 including trade secrets, belonging to Gaussian, Inc.
  
 This software is provided under written license and may be
 used, copied, transmitted, or stored only in accord with that
 written license.
  
 The following legend is applicable only to US Government
 contracts under FAR:
  
                    RESTRICTED RIGHTS LEGEND
  
 Use, reproduction and disclosure by the US Government is
 subject to restrictions as set forth in subparagraphs (a)
 and (c) of the Commercial Computer Software - Restricted
 Rights clause in FAR 52.227-19.
  
 Gaussian, Inc.
 340 Quinnipiac St., Bldg. 40, Wallingford CT 06492
  
  
 ---------------------------------------------------------------
 Warning -- This program may not be used in any manner that
 competes with the business of Gaussian, Inc. or will provide
 assistance to any competitor of Gaussian, Inc.  The licensee
 of this program is prohibited from giving any competitor of
 Gaussian, Inc. access to this program.  By using this program,
 the user acknowledges that Gaussian, Inc. is engaged in the
 business of creating and licensing software in the field of
 computational chemistry and represents and warrants to the
 licensee that it is not a competitor of Gaussian, Inc. and that
 it will not use this program in any manner prohibited above.
 ---------------------------------------------------------------
  

 Cite this work as:
 Gaussian 09, Revision A.02,
 M. J. Frisch, G. W. Trucks, H. B. Schlegel, G. E. Scuseria, 
 M. A. Robb, J. R. Cheeseman, G. Scalmani, V. Barone, B. Mennucci, 
 G. A. Petersson, H. Nakatsuji, M. Caricato, X. Li, H. P. Hratchian, 
 A. F. Izmaylov, J. Bloino, G. Zheng, J. L. Sonnenberg, M. Hada, 
 M. Ehara, K. Toyota, R. Fukuda, J. Hasegawa, M. Ishida, T. Nakajima, 
 Y. Honda, O. Kitao, H. Nakai, T. Vreven, J. A. Montgomery, Jr., 
 J. E. Peralta, F. Ogliaro, M. Bearpark, J. J. Heyd, E. Brothers, 
 K. N. Kudin, V. N. Staroverov, R. Kobayashi, J. Normand, 
 K. Raghavachari, A. Rendell, J. C. Burant, S. S. Iyengar, J. Tomasi, 
 M. Cossi, N. Rega, J. M. Millam, M. Klene, J. E. Knox, J. B. Cross, 
 V. Bakken, C. Adamo, J. Jaramillo, R. Gomperts, R. E. Stratmann, 
 O. Yazyev, A. J. Austin, R. Cammi, C. Pomelli, J. W. Ochterski, 
 R. L. Martin, K. Morokuma, V. G. Zakrzewski, G. A. Voth, 
 P. Salvador, J. J. Dannenberg, S. Dapprich, A. D. Daniels, 
 O. Farkas, J. B. Foresman, J. V. Ortiz, J. Cioslowski, 
 and D. J. Fox, Gaussian, Inc., Wallingford CT, 2009.
 
 ******************************************
 Gaussian 09:  IA32W-G09RevA.02 11-Jun-2009
                23-Feb-2015 
 ******************************************
 ----------------------------------------------------------------------
 # opt=(calcfc,ts,noeigentest) freq=noraman b3lyp/gen geom=connectivity
  gfinput pseudo=read
 ----------------------------------------------------------------------
 1/5=1,10=4,11=1,14=-1,18=20,26=3,38=1,57=2/1,3;
 2/9=110,12=2,17=6,18=5,40=1/2;
 3/5=7,11=2,16=1,17=8,24=10,25=1,30=1,71=2,74=-5/1,2,3;
 4//1;
 5/5=2,38=5/2;
 8/6=4,10=90,11=11/1;
 11/6=1,8=1,9=11,15=111,16=1/1,2,10;
 10/6=1,7=6,13=1/2;
 6/7=2,8=2,9=2,10=2,28=1/1;
 7/10=1,18=20,25=1/1,2,3,16;
 1/5=1,10=4,11=1,14=-1,18=20/3(2);
 2/9=110/2;
 99//99;
 2/9=110/2;
 3/5=7,6=1,11=2,16=1,17=8,25=1,30=1,71=1,74=-5,82=7/1,2,3;
 4/5=5,16=3/1;
 5/5=2,38=5/2;
 7//1,2,3,16;
 1/5=1,11=1,14=-1,18=20/3(-5);
 2/9=110/2;
 6/7=2,8=2,9=2,10=2,19=2,28=1/1;
 99/9=1/99;
 -----------------------
 ts624cl-6-31+g(d)/MidiX
 -----------------------
 Symbolic Z-matrix:
 Charge =  0 Multiplicity = 1
 C                     0.88456   0.11663   0.41891 
 C                    -0.39856   2.08642  -0.60959 
 H                    -1.16612   2.27151  -1.36713 
 H                    -0.77958   2.23626   0.40602 
 H                     0.47888   2.71442  -0.79914 
 C                     2.12077   0.93679   0.59068 
 H                     2.88275   0.36133   1.14581 
 H                     2.57087   1.21375  -0.37438 
 H                     1.92442   1.84967   1.16978 
 O                     0.01831   0.71086  -0.79507 
 O                    -1.76363  -0.8697   -0.10176 
 C                    -3.04071  -0.26804   0.23386 
 H                    -3.56304  -0.12891  -0.71933 
 H                    -3.57601  -0.99358   0.85919 
 H                    -2.90073   0.67793   0.76431 
 H                    -1.12805  -0.88883   0.81811 
 H                    -1.03451  -0.03214  -0.7197 
 Cl                    1.32383  -1.44391  -0.5023 
 O                     0.04404  -0.08688   1.34089 
 

 GradGradGradGradGradGradGradGradGradGradGradGradGradGradGradGradGradGrad
 Berny optimization.
 Initialization pass.
                           ----------------------------
                           !    Initial Parameters    !
                           ! (Angstroms and Degrees)  !
 --------------------------                            --------------------------
 ! Name  Definition              Value          Derivative Info.                !
 --------------------------------------------------------------------------------
 ! R1    R(1,6)                  1.4934         calculate D2E/DX2 analytically  !
 ! R2    R(1,10)                 1.6054         calculate D2E/DX2 analytically  !
 ! R3    R(1,18)                 1.8646         calculate D2E/DX2 analytically  !
 ! R4    R(1,19)                 1.2641         calculate D2E/DX2 analytically  !
 ! R5    R(2,3)                  1.0942         calculate D2E/DX2 analytically  !
 ! R6    R(2,4)                  1.095          calculate D2E/DX2 analytically  !
 ! R7    R(2,5)                  1.0955         calculate D2E/DX2 analytically  !
 ! R8    R(2,10)                 1.4493         calculate D2E/DX2 analytically  !
 ! R9    R(6,7)                  1.1045         calculate D2E/DX2 analytically  !
 ! R10   R(6,8)                  1.1003         calculate D2E/DX2 analytically  !
 ! R11   R(6,9)                  1.0988         calculate D2E/DX2 analytically  !
 ! R12   R(10,17)                1.2908         calculate D2E/DX2 analytically  !
 ! R13   R(11,12)                1.4511         calculate D2E/DX2 analytically  !
 ! R14   R(11,16)                1.1182         calculate D2E/DX2 analytically  !
 ! R15   R(11,17)                1.2708         calculate D2E/DX2 analytically  !
 ! R16   R(12,13)                1.0958         calculate D2E/DX2 analytically  !
 ! R17   R(12,14)                1.0973         calculate D2E/DX2 analytically  !
 ! R18   R(12,15)                1.0935         calculate D2E/DX2 analytically  !
 ! R19   R(16,19)                1.5133         calculate D2E/DX2 analytically  !
 ! A1    A(6,1,10)             109.29           calculate D2E/DX2 analytically  !
 ! A2    A(6,1,18)             108.7494         calculate D2E/DX2 analytically  !
 ! A3    A(6,1,19)             123.7047         calculate D2E/DX2 analytically  !
 ! A4    A(10,1,18)             93.6298         calculate D2E/DX2 analytically  !
 ! A5    A(10,1,19)            104.6163         calculate D2E/DX2 analytically  !
 ! A6    A(18,1,19)            112.4725         calculate D2E/DX2 analytically  !
 ! A7    A(3,2,4)              112.0175         calculate D2E/DX2 analytically  !
 ! A8    A(3,2,5)              110.1863         calculate D2E/DX2 analytically  !
 ! A9    A(3,2,10)             105.8855         calculate D2E/DX2 analytically  !
 ! A10   A(4,2,5)              111.1443         calculate D2E/DX2 analytically  !
 ! A11   A(4,2,10)             110.4062         calculate D2E/DX2 analytically  !
 ! A12   A(5,2,10)             106.9508         calculate D2E/DX2 analytically  !
 ! A13   A(1,6,7)              110.0441         calculate D2E/DX2 analytically  !
 ! A14   A(1,6,8)              112.0838         calculate D2E/DX2 analytically  !
 ! A15   A(1,6,9)              111.652          calculate D2E/DX2 analytically  !
 ! A16   A(7,6,8)              106.8439         calculate D2E/DX2 analytically  !
 ! A17   A(7,6,9)              106.9335         calculate D2E/DX2 analytically  !
 ! A18   A(8,6,9)              109.0408         calculate D2E/DX2 analytically  !
 ! A19   A(1,10,2)             114.1896         calculate D2E/DX2 analytically  !
 ! A20   A(1,10,17)            100.5379         calculate D2E/DX2 analytically  !
 ! A21   A(2,10,17)            107.7134         calculate D2E/DX2 analytically  !
 ! A22   A(12,11,16)           108.4848         calculate D2E/DX2 analytically  !
 ! A23   A(12,11,17)           110.1294         calculate D2E/DX2 analytically  !
 ! A24   A(16,11,17)            94.8855         calculate D2E/DX2 analytically  !
 ! A25   A(11,12,13)           105.722          calculate D2E/DX2 analytically  !
 ! A26   A(11,12,14)           106.6785         calculate D2E/DX2 analytically  !
 ! A27   A(11,12,15)           110.9905         calculate D2E/DX2 analytically  !
 ! A28   A(13,12,14)           110.3134         calculate D2E/DX2 analytically  !
 ! A29   A(13,12,15)           111.9091         calculate D2E/DX2 analytically  !
 ! A30   A(14,12,15)           110.9771         calculate D2E/DX2 analytically  !
 ! A31   A(11,16,19)           135.6682         calculate D2E/DX2 analytically  !
 ! A32   A(10,17,11)           151.1314         calculate D2E/DX2 analytically  !
 ! A33   A(1,19,16)            110.3856         calculate D2E/DX2 analytically  !
 ! D1    D(10,1,6,7)          -159.762          calculate D2E/DX2 analytically  !
 ! D2    D(10,1,6,8)           -41.0181         calculate D2E/DX2 analytically  !
 ! D3    D(10,1,6,9)            81.6562         calculate D2E/DX2 analytically  !
 ! D4    D(18,1,6,7)           -58.8302         calculate D2E/DX2 analytically  !
 ! D5    D(18,1,6,8)            59.9137         calculate D2E/DX2 analytically  !
 ! D6    D(18,1,6,9)          -177.412          calculate D2E/DX2 analytically  !
 ! D7    D(19,1,6,7)            76.5385         calculate D2E/DX2 analytically  !
 ! D8    D(19,1,6,8)          -164.7176         calculate D2E/DX2 analytically  !
 ! D9    D(19,1,6,9)           -42.0433         calculate D2E/DX2 analytically  !
 ! D10   D(6,1,10,2)           -59.7896         calculate D2E/DX2 analytically  !
 ! D11   D(6,1,10,17)         -174.8027         calculate D2E/DX2 analytically  !
 ! D12   D(18,1,10,2)         -171.101          calculate D2E/DX2 analytically  !
 ! D13   D(18,1,10,17)          73.8859         calculate D2E/DX2 analytically  !
 ! D14   D(19,1,10,2)           74.5458         calculate D2E/DX2 analytically  !
 ! D15   D(19,1,10,17)         -40.4674         calculate D2E/DX2 analytically  !
 ! D16   D(6,1,19,16)          176.7496         calculate D2E/DX2 analytically  !
 ! D17   D(10,1,19,16)          50.9937         calculate D2E/DX2 analytically  !
 ! D18   D(18,1,19,16)         -49.2991         calculate D2E/DX2 analytically  !
 ! D19   D(3,2,10,1)          -166.3283         calculate D2E/DX2 analytically  !
 ! D20   D(3,2,10,17)          -55.5997         calculate D2E/DX2 analytically  !
 ! D21   D(4,2,10,1)           -44.879          calculate D2E/DX2 analytically  !
 ! D22   D(4,2,10,17)           65.8496         calculate D2E/DX2 analytically  !
 ! D23   D(5,2,10,1)            76.1679         calculate D2E/DX2 analytically  !
 ! D24   D(5,2,10,17)         -173.1035         calculate D2E/DX2 analytically  !
 ! D25   D(1,10,17,11)          13.1394         calculate D2E/DX2 analytically  !
 ! D26   D(2,10,17,11)        -106.6587         calculate D2E/DX2 analytically  !
 ! D27   D(16,11,12,13)        171.4295         calculate D2E/DX2 analytically  !
 ! D28   D(16,11,12,14)        -71.1302         calculate D2E/DX2 analytically  !
 ! D29   D(16,11,12,15)         49.8827         calculate D2E/DX2 analytically  !
 ! D30   D(17,11,12,13)         68.8279         calculate D2E/DX2 analytically  !
 ! D31   D(17,11,12,14)       -173.7318         calculate D2E/DX2 analytically  !
 ! D32   D(17,11,12,15)        -52.7189         calculate D2E/DX2 analytically  !
 ! D33   D(12,11,16,19)       -103.5454         calculate D2E/DX2 analytically  !
 ! D34   D(17,11,16,19)          9.581          calculate D2E/DX2 analytically  !
 ! D35   D(12,11,17,10)        114.9612         calculate D2E/DX2 analytically  !
 ! D36   D(16,11,17,10)          3.2308         calculate D2E/DX2 analytically  !
 ! D37   D(11,16,19,1)         -43.6502         calculate D2E/DX2 analytically  !
 --------------------------------------------------------------------------------
 Trust Radius=3.00D-01 FncErr=1.00D-07 GrdErr=1.00D-06
 Number of steps in this run=  99 maximum allowed number of steps= 114.
 Search for a saddle point of order  1.
 GradGradGradGradGradGradGradGradGradGradGradGradGradGradGradGradGradGrad

                          Input orientation:                          
 ---------------------------------------------------------------------
 Center     Atomic      Atomic             Coordinates (Angstroms)
 Number     Number       Type             X           Y           Z
 ---------------------------------------------------------------------
      1          6           0        0.884558    0.116628    0.418907
      2          6           0       -0.398563    2.086422   -0.609586
      3          1           0       -1.166118    2.271506   -1.367134
      4          1           0       -0.779578    2.236265    0.406015
      5          1           0        0.478877    2.714415   -0.799143
      6          6           0        2.120771    0.936787    0.590683
      7          1           0        2.882752    0.361331    1.145809
      8          1           0        2.570868    1.213746   -0.374381
      9          1           0        1.924419    1.849674    1.169780
     10          8           0        0.018310    0.710864   -0.795072
     11          8           0       -1.763632   -0.869703   -0.101762
     12          6           0       -3.040711   -0.268041    0.233857
     13          1           0       -3.563040   -0.128910   -0.719331
     14          1           0       -3.576005   -0.993577    0.859193
     15          1           0       -2.900725    0.677932    0.764309
     16          1           0       -1.128054   -0.888828    0.818105
     17          1           0       -1.034514   -0.032144   -0.719698
     18         17           0        1.323828   -1.443907   -0.502301
     19          8           0        0.044036   -0.086882    1.340889
 ---------------------------------------------------------------------
                    Distance matrix (angstroms):
                    1          2          3          4          5
     1  C    0.000000
     2  C    2.565986   0.000000
     3  H    3.469685   1.094201   0.000000
     4  H    2.694880   1.095021   1.815134   0.000000
     5  H    2.897709   1.095540   1.795770   1.806860   0.000000
     6  C    1.493449   3.018170   4.051933   3.183515   2.790590
     7  H    2.140338   4.101753   5.133907   4.180351   3.885673
     8  H    2.162548   3.103934   4.008675   3.588879   2.609379
     9  H    2.156054   2.935718   4.020609   2.836263   2.591144
    10  O    1.605381   1.449258   2.041012   2.099067   2.055810
    11  O    2.873474   3.295447   3.438805   3.297459   4.284984
    12  C    3.948411   3.638109   3.539289   3.378448   4.727540
    13  H    4.597500   3.864409   3.453532   3.822057   4.942465
    14  H    4.617687   4.662600   4.628699   4.296191   5.739456
    15  H    3.842230   3.183119   3.176695   2.656321   4.244214
    16  H    2.284931   3.379729   3.842451   3.171350   4.263928
    17  H    2.236379   2.214696   2.396518   2.545172   3.136917
    18  Cl   1.864632   3.929550   4.555443   4.335092   4.253669
    19  O    1.264098   2.953557   3.789440   2.636160   3.551913
                    6          7          8          9         10
     6  C    0.000000
     7  H    1.104504   0.000000
     8  H    1.100292   1.770554   0.000000
     9  H    1.098758   1.770351   1.790736   0.000000
    10  O    2.528181   3.477675   2.635417   2.964925   0.000000
    11  O    4.339524   4.965960   4.816946   4.755371   2.480764
    12  C    5.312234   6.026208   5.835706   5.478429   3.372619
    13  H    5.929381   6.728099   6.288604   6.131537   3.679270
    14  H    6.020935   6.605563   6.646655   6.199613   4.308226
    15  H    5.031160   5.804686   5.614449   4.981907   3.309610
    16  H    3.733558   4.213888   4.418695   4.115903   2.544701
    17  H    3.551302   4.356594   3.830178   3.983296   1.290806
    18  Cl   2.738145   2.899206   2.938468   3.742224   2.536362
    19  O    2.433831   2.880496   3.319437   2.704694   2.280217
                   11         12         13         14         15
    11  O    0.000000
    12  C    1.451058   0.000000
    13  H    2.041577   1.095788   0.000000
    14  H    2.055110   1.097264   1.799876   0.000000
    15  H    2.106712   1.093545   1.814068   1.805256   0.000000
    16  H    1.118249   2.094034   2.978312   2.450536   2.366431
    17  H    1.270812   2.233773   2.530377   3.142678   2.487816
    18  Cl   3.165841   4.579715   5.065353   5.105372   4.894216
    19  O    2.441662   3.282378   4.154187   3.762821   3.096611
                   16         17         18         19
    16  H    0.000000
    17  H    1.762809   0.000000
    18  Cl   2.839597   2.757193   0.000000
    19  O    1.513346   2.326432   2.622353   0.000000
 Stoichiometry    C4H11ClO3
 Framework group  C1[X(C4H11ClO3)]
 Deg. of freedom    51
 Full point group                 C1      NOp   1
 Largest Abelian subgroup         C1      NOp   1
 Largest concise Abelian subgroup C1      NOp   1
                         Standard orientation:                         
 ---------------------------------------------------------------------
 Center     Atomic      Atomic             Coordinates (Angstroms)
 Number     Number       Type             X           Y           Z
 ---------------------------------------------------------------------
      1          6           0        0.884558    0.116628    0.418907
      2          6           0       -0.398563    2.086422   -0.609586
      3          1           0       -1.166118    2.271506   -1.367134
      4          1           0       -0.779578    2.236265    0.406015
      5          1           0        0.478877    2.714415   -0.799143
      6          6           0        2.120771    0.936787    0.590683
      7          1           0        2.882752    0.361331    1.145809
      8          1           0        2.570868    1.213746   -0.374381
      9          1           0        1.924419    1.849674    1.169780
     10          8           0        0.018310    0.710864   -0.795072
     11          8           0       -1.763632   -0.869703   -0.101762
     12          6           0       -3.040711   -0.268041    0.233857
     13          1           0       -3.563040   -0.128910   -0.719331
     14          1           0       -3.576005   -0.993577    0.859193
     15          1           0       -2.900725    0.677932    0.764309
     16          1           0       -1.128054   -0.888828    0.818105
     17          1           0       -1.034514   -0.032144   -0.719698
     18         17           0        1.323828   -1.443907   -0.502301
     19          8           0        0.044036   -0.086882    1.340889
 ---------------------------------------------------------------------
 Rotational constants (GHZ):      2.0335794      1.2248437      0.9612350
 General basis read from cards:  (5D, 7F)
 AO basis set in the form of general basis input (Overlap normalization):
      1 0
 S   6 1.00       0.000000000000
      0.3047524880D+04  0.1834737132D-02
      0.4573695180D+03  0.1403732281D-01
      0.1039486850D+03  0.6884262226D-01
      0.2921015530D+02  0.2321844432D+00
      0.9286662960D+01  0.4679413484D+00
      0.3163926960D+01  0.3623119853D+00
 SP   3 1.00       0.000000000000
      0.7868272350D+01 -0.1193324198D+00  0.6899906659D-01
      0.1881288540D+01 -0.1608541517D+00  0.3164239610D+00
      0.5442492580D+00  0.1143456438D+01  0.7443082909D+00
 SP   1 1.00       0.000000000000
      0.1687144782D+00  0.1000000000D+01  0.1000000000D+01
 SP   1 1.00       0.000000000000
      0.4380000000D-01  0.1000000000D+01  0.1000000000D+01
 D   1 1.00       0.000000000000
      0.8000000000D+00  0.1000000000D+01
 ****
      2 0
 S   6 1.00       0.000000000000
      0.3047524880D+04  0.1834737132D-02
      0.4573695180D+03  0.1403732281D-01
      0.1039486850D+03  0.6884262226D-01
      0.2921015530D+02  0.2321844432D+00
      0.9286662960D+01  0.4679413484D+00
      0.3163926960D+01  0.3623119853D+00
 SP   3 1.00       0.000000000000
      0.7868272350D+01 -0.1193324198D+00  0.6899906659D-01
      0.1881288540D+01 -0.1608541517D+00  0.3164239610D+00
      0.5442492580D+00  0.1143456438D+01  0.7443082909D+00
 SP   1 1.00       0.000000000000
      0.1687144782D+00  0.1000000000D+01  0.1000000000D+01
 SP   1 1.00       0.000000000000
      0.4380000000D-01  0.1000000000D+01  0.1000000000D+01
 D   1 1.00       0.000000000000
      0.8000000000D+00  0.1000000000D+01
 ****
      3 0
 S   3 1.00       0.000000000000
      0.1873113696D+02  0.3349460434D-01
      0.2825394365D+01  0.2347269535D+00
      0.6401216923D+00  0.8137573261D+00
 S   1 1.00       0.000000000000
      0.1612777588D+00  0.1000000000D+01
 ****
      4 0
 S   3 1.00       0.000000000000
      0.1873113696D+02  0.3349460434D-01
      0.2825394365D+01  0.2347269535D+00
      0.6401216923D+00  0.8137573261D+00
 S   1 1.00       0.000000000000
      0.1612777588D+00  0.1000000000D+01
 ****
      5 0
 S   3 1.00       0.000000000000
      0.1873113696D+02  0.3349460434D-01
      0.2825394365D+01  0.2347269535D+00
      0.6401216923D+00  0.8137573261D+00
 S   1 1.00       0.000000000000
      0.1612777588D+00  0.1000000000D+01
 ****
      6 0
 S   6 1.00       0.000000000000
      0.3047524880D+04  0.1834737132D-02
      0.4573695180D+03  0.1403732281D-01
      0.1039486850D+03  0.6884262226D-01
      0.2921015530D+02  0.2321844432D+00
      0.9286662960D+01  0.4679413484D+00
      0.3163926960D+01  0.3623119853D+00
 SP   3 1.00       0.000000000000
      0.7868272350D+01 -0.1193324198D+00  0.6899906659D-01
      0.1881288540D+01 -0.1608541517D+00  0.3164239610D+00
      0.5442492580D+00  0.1143456438D+01  0.7443082909D+00
 SP   1 1.00       0.000000000000
      0.1687144782D+00  0.1000000000D+01  0.1000000000D+01
 SP   1 1.00       0.000000000000
      0.4380000000D-01  0.1000000000D+01  0.1000000000D+01
 D   1 1.00       0.000000000000
      0.8000000000D+00  0.1000000000D+01
 ****
      7 0
 S   3 1.00       0.000000000000
      0.1873113696D+02  0.3349460434D-01
      0.2825394365D+01  0.2347269535D+00
      0.6401216923D+00  0.8137573261D+00
 S   1 1.00       0.000000000000
      0.1612777588D+00  0.1000000000D+01
 ****
      8 0
 S   3 1.00       0.000000000000
      0.1873113696D+02  0.3349460434D-01
      0.2825394365D+01  0.2347269535D+00
      0.6401216923D+00  0.8137573261D+00
 S   1 1.00       0.000000000000
      0.1612777588D+00  0.1000000000D+01
 ****
      9 0
 S   3 1.00       0.000000000000
      0.1873113696D+02  0.3349460434D-01
      0.2825394365D+01  0.2347269535D+00
      0.6401216923D+00  0.8137573261D+00
 S   1 1.00       0.000000000000
      0.1612777588D+00  0.1000000000D+01
 ****
     10 0
 S   6 1.00       0.000000000000
      0.5484671660D+04  0.1831074430D-02
      0.8252349460D+03  0.1395017220D-01
      0.1880469580D+03  0.6844507810D-01
      0.5296450000D+02  0.2327143360D+00
      0.1689757040D+02  0.4701928980D+00
      0.5799635340D+01  0.3585208530D+00
 SP   3 1.00       0.000000000000
      0.1553961625D+02 -0.1107775495D+00  0.7087426823D-01
      0.3599933586D+01 -0.1480262627D+00  0.3397528391D+00
      0.1013761750D+01  0.1130767015D+01  0.7271585773D+00
 SP   1 1.00       0.000000000000
      0.2700058226D+00  0.1000000000D+01  0.1000000000D+01
 SP   1 1.00       0.000000000000
      0.8450000000D-01  0.1000000000D+01  0.1000000000D+01
 D   1 1.00       0.000000000000
      0.8000000000D+00  0.1000000000D+01
 ****
     11 0
 S   6 1.00       0.000000000000
      0.5484671660D+04  0.1831074430D-02
      0.8252349460D+03  0.1395017220D-01
      0.1880469580D+03  0.6844507810D-01
      0.5296450000D+02  0.2327143360D+00
      0.1689757040D+02  0.4701928980D+00
      0.5799635340D+01  0.3585208530D+00
 SP   3 1.00       0.000000000000
      0.1553961625D+02 -0.1107775495D+00  0.7087426823D-01
      0.3599933586D+01 -0.1480262627D+00  0.3397528391D+00
      0.1013761750D+01  0.1130767015D+01  0.7271585773D+00
 SP   1 1.00       0.000000000000
      0.2700058226D+00  0.1000000000D+01  0.1000000000D+01
 SP   1 1.00       0.000000000000
      0.8450000000D-01  0.1000000000D+01  0.1000000000D+01
 D   1 1.00       0.000000000000
      0.8000000000D+00  0.1000000000D+01
 ****
     12 0
 S   6 1.00       0.000000000000
      0.3047524880D+04  0.1834737132D-02
      0.4573695180D+03  0.1403732281D-01
      0.1039486850D+03  0.6884262226D-01
      0.2921015530D+02  0.2321844432D+00
      0.9286662960D+01  0.4679413484D+00
      0.3163926960D+01  0.3623119853D+00
 SP   3 1.00       0.000000000000
      0.7868272350D+01 -0.1193324198D+00  0.6899906659D-01
      0.1881288540D+01 -0.1608541517D+00  0.3164239610D+00
      0.5442492580D+00  0.1143456438D+01  0.7443082909D+00
 SP   1 1.00       0.000000000000
      0.1687144782D+00  0.1000000000D+01  0.1000000000D+01
 SP   1 1.00       0.000000000000
      0.4380000000D-01  0.1000000000D+01  0.1000000000D+01
 D   1 1.00       0.000000000000
      0.8000000000D+00  0.1000000000D+01
 ****
     13 0
 S   3 1.00       0.000000000000
      0.1873113696D+02  0.3349460434D-01
      0.2825394365D+01  0.2347269535D+00
      0.6401216923D+00  0.8137573261D+00
 S   1 1.00       0.000000000000
      0.1612777588D+00  0.1000000000D+01
 ****
     14 0
 S   3 1.00       0.000000000000
      0.1873113696D+02  0.3349460434D-01
      0.2825394365D+01  0.2347269535D+00
      0.6401216923D+00  0.8137573261D+00
 S   1 1.00       0.000000000000
      0.1612777588D+00  0.1000000000D+01
 ****
     15 0
 S   3 1.00       0.000000000000
      0.1873113696D+02  0.3349460434D-01
      0.2825394365D+01  0.2347269535D+00
      0.6401216923D+00  0.8137573261D+00
 S   1 1.00       0.000000000000
      0.1612777588D+00  0.1000000000D+01
 ****
     16 0
 S   3 1.00       0.000000000000
      0.1873113696D+02  0.3349460434D-01
      0.2825394365D+01  0.2347269535D+00
      0.6401216923D+00  0.8137573261D+00
 S   1 1.00       0.000000000000
      0.1612777588D+00  0.1000000000D+01
 ****
     17 0
 S   3 1.00       0.000000000000
      0.1873113696D+02  0.3349460434D-01
      0.2825394365D+01  0.2347269535D+00
      0.6401216923D+00  0.8137573261D+00
 S   1 1.00       0.000000000000
      0.1612777588D+00  0.1000000000D+01
 ****
     18 0
 S   3 1.00       0.000000000000
      0.1362022000D+04  0.6554398503D-01
      0.2058111000D+03  0.3829869125D+00
      0.4477216700D+02  0.6752098457D+00
 S   3 1.00       0.000000000000
      0.5922573200D+02 -0.9561999185D-01
      0.5213902000D+01  0.6414259453D+00
      0.2047346000D+01  0.4251529638D+00
 S   2 1.00       0.000000000000
      0.3419712000D+01  0.3208071805D+00
      0.4700170000D+00 -0.1130921225D+01
 S   1 1.00       0.000000000000
      0.1699580000D+00  0.1000000000D+01
 P   3 1.00       0.000000000000
      0.6409995800D+02  0.1017890594D+00
      0.1428713900D+02  0.4561072660D+00
      0.3828135000D+01  0.6142823583D+00
 P   2 1.00       0.000000000000
      0.1095126000D+01  0.4970218365D+00
      0.1321760000D+00  0.7302483162D+00
 P   1 1.00       0.000000000000
      0.3960040000D+00  0.1000000000D+01
 D   1 1.00       0.000000000000
      0.6500000000D+00  0.1000000000D+01
 ****
     19 0
 S   6 1.00       0.000000000000
      0.5484671660D+04  0.1831074430D-02
      0.8252349460D+03  0.1395017220D-01
      0.1880469580D+03  0.6844507810D-01
      0.5296450000D+02  0.2327143360D+00
      0.1689757040D+02  0.4701928980D+00
      0.5799635340D+01  0.3585208530D+00
 SP   3 1.00       0.000000000000
      0.1553961625D+02 -0.1107775495D+00  0.7087426823D-01
      0.3599933586D+01 -0.1480262627D+00  0.3397528391D+00
      0.1013761750D+01  0.1130767015D+01  0.7271585773D+00
 SP   1 1.00       0.000000000000
      0.2700058226D+00  0.1000000000D+01  0.1000000000D+01
 SP   1 1.00       0.000000000000
      0.8450000000D-01  0.1000000000D+01  0.1000000000D+01
 D   1 1.00       0.000000000000
      0.8000000000D+00  0.1000000000D+01
 ****

 ======================================================================================================
                                       Pseudopotential Parameters
 ======================================================================================================
  Center     Atomic      Valence      Angular      Power
  Number     Number     Electrons     Momentum     of R      Exponent        Coefficient   SO-Coeffient
 ======================================================================================================
    1          6
                                   No pseudopotential on this center.
    2          6
                                   No pseudopotential on this center.
    3          1
                                   No pseudopotential on this center.
    4          1
                                   No pseudopotential on this center.
    5          1
                                   No pseudopotential on this center.
    6          6
                                   No pseudopotential on this center.
    7          1
                                   No pseudopotential on this center.
    8          1
                                   No pseudopotential on this center.
    9          1
                                   No pseudopotential on this center.
   10          8
                                   No pseudopotential on this center.
   11          8
                                   No pseudopotential on this center.
   12          6
                                   No pseudopotential on this center.
   13          1
                                   No pseudopotential on this center.
   14          1
                                   No pseudopotential on this center.
   15          1
                                   No pseudopotential on this center.
   16          1
                                   No pseudopotential on this center.
   17          1
                                   No pseudopotential on this center.
   18         17
                                   No pseudopotential on this center.
   19          8
                                   No pseudopotential on this center.
 ======================================================================================================
 There are   166 symmetry adapted basis functions of A   symmetry.
 Integral buffers will be    262144 words long.
 Raffenetti 2 integral format.
 Two-electron integral symmetry is turned on.
   166 basis functions,   301 primitive gaussians,   174 cartesian basis functions
    38 alpha electrons       38 beta electrons
       nuclear repulsion energy       523.1875724889 Hartrees.
 NAtoms=   19 NActive=   19 NUniq=   19 SFac= 7.50D-01 NAtFMM=   80 NAOKFM=F Big=F
 One-electron integrals computed using PRISM.
   1 Symmetry operations used in ECPInt.
 ECPInt:  NShTT=    2145 NPrTT=   10610 LenC2=    2115 LenP2D=    7613.
 LDataN:  DoStor=T MaxTD1= 4 Len=   56
 NBasis=   166 RedAO= T  NBF=   166
 NBsUse=   166 1.00D-06 NBFU=   166
 Harris functional with IExCor=  402 diagonalized for initial guess.
 ExpMin= 4.38D-02 ExpMax= 5.48D+03 ExpMxC= 1.36D+03 IAcc=2 IRadAn=         0 AccDes= 0.00D+00
 HarFok:  IExCor=  402 AccDes= 0.00D+00 IRadAn=         0 IDoV= 1
 ScaDFX=  1.000000  1.000000  1.000000  1.000000
 FoFCou: FMM=F IPFlag=           0 FMFlag=      100000 FMFlg1=           0
         NFxFlg=           0 DoJE=T BraDBF=F KetDBF=T FulRan=T
         Omega=  0.000000  0.000000  1.000000  0.000000  0.000000 ICntrl=     500 IOpCl=  0
         NMat0=    1 NMatS0=    1 NMatT0=    0 NMatD0=    1 NMtDS0=    0 NMtDT0=    0
         I1Cent=           4 NGrid=           0.
 Petite list used in FoFCou.
 Initial guess orbital symmetries:
       Occupied  (A) (A) (A) (A) (A) (A) (A) (A) (A) (A) (A) (A)
                 (A) (A) (A) (A) (A) (A) (A) (A) (A) (A) (A) (A)
                 (A) (A) (A) (A) (A) (A) (A) (A) (A) (A) (A) (A)
                 (A) (A)
       Virtual   (A) (A) (A) (A) (A) (A) (A) (A) (A) (A) (A) (A)
                 (A) (A) (A) (A) (A) (A) (A) (A) (A) (A) (A) (A)
                 (A) (A) (A) (A) (A) (A) (A) (A) (A) (A) (A) (A)
                 (A) (A) (A) (A) (A) (A) (A) (A) (A) (A) (A) (A)
                 (A) (A) (A) (A) (A) (A) (A) (A) (A) (A) (A) (A)
                 (A) (A) (A) (A) (A) (A) (A) (A) (A) (A) (A) (A)
                 (A) (A) (A) (A) (A) (A) (A) (A) (A) (A) (A) (A)
                 (A) (A) (A) (A) (A) (A) (A) (A) (A) (A) (A) (A)
                 (A) (A) (A) (A) (A) (A) (A) (A) (A) (A) (A) (A)
                 (A) (A) (A) (A) (A) (A) (A) (A) (A) (A) (A) (A)
                 (A) (A) (A) (A) (A) (A) (A) (A)
 The electronic state of the initial guess is 1-A.
 Requested convergence on RMS density matrix=1.00D-08 within 128 cycles.
 Requested convergence on MAX density matrix=1.00D-06.
 Requested convergence on             energy=1.00D-06.
 No special actions if energy rises.
 SCF Done:  E(RB3LYP) =  -842.717290678     A.U. after   14 cycles
             Convg  =    0.4057D-08             -V/T =  2.0069
 Range of M.O.s used for correlation:     1   166
 NBasis=   166 NAE=    38 NBE=    38 NFC=     0 NFV=     0
 NROrb=    166 NOA=    38 NOB=    38 NVA=   128 NVB=   128

 **** Warning!!: The largest alpha MO coefficient is  0.23941917D+02

   1 Symmetry operations used in ECPInt.
 ECPInt:  NShTT=    2145 NPrTT=   10610 LenC2=    2115 LenP2D=    7613.
 LDataN:  DoStor=T MaxTD1= 5 Len=  102
 Symmetrizing basis deriv contribution to polar:
 IMax=3 JMax=2 DiffMx= 0.00D+00
 G2DrvN: will do    20 centers at a time, making    1 passes doing MaxLOS=2.
 Calling FoFCou, ICntrl=  3107 FMM=F I1Cent=   0 AccDes= 0.00D+00.
 FoFDir/FoFCou used for L=0 through L=2.
 End of G2Drv Frequency-dependent properties file   721 does not exist.
 End of G2Drv Frequency-dependent properties file   722 does not exist.
          IDoAtm=1111111111111111111
          Differentiating once with respect to nuclear coordinates.
          There are    60 degrees of freedom in the 1st order CPHF.  IDoFFX=5.
     54 vectors produced by pass  0 Test12= 8.11D-11 1.67D-07 XBig12= 2.20D-01 6.99D-02.
 AX will form    54 AO Fock derivatives at one time.
     54 vectors produced by pass  1 Test12= 8.11D-11 1.67D-07 XBig12= 4.54D-02 4.44D-02.
     54 vectors produced by pass  2 Test12= 8.11D-11 1.67D-07 XBig12= 5.03D-04 3.03D-03.
     54 vectors produced by pass  3 Test12= 8.11D-11 1.67D-07 XBig12= 1.69D-06 1.39D-04.
     24 vectors produced by pass  4 Test12= 8.11D-11 1.67D-07 XBig12= 2.16D-09 5.49D-06.
      1 vectors produced by pass  5 Test12= 8.11D-11 1.67D-07 XBig12= 2.51D-12 2.21D-07.
 Inverted reduced A of dimension   241 with in-core refinement.
 End of Minotr Frequency-dependent properties file   721 does not exist.
 End of Minotr Frequency-dependent properties file   722 does not exist.

 **********************************************************************

            Population analysis using the SCF density.

 **********************************************************************

 Orbital symmetries:
       Occupied  (A) (A) (A) (A) (A) (A) (A) (A) (A) (A) (A) (A)
                 (A) (A) (A) (A) (A) (A) (A) (A) (A) (A) (A) (A)
                 (A) (A) (A) (A) (A) (A) (A) (A) (A) (A) (A) (A)
                 (A) (A)
       Virtual   (A) (A) (A) (A) (A) (A) (A) (A) (A) (A) (A) (A)
                 (A) (A) (A) (A) (A) (A) (A) (A) (A) (A) (A) (A)
                 (A) (A) (A) (A) (A) (A) (A) (A) (A) (A) (A) (A)
                 (A) (A) (A) (A) (A) (A) (A) (A) (A) (A) (A) (A)
                 (A) (A) (A) (A) (A) (A) (A) (A) (A) (A) (A) (A)
                 (A) (A) (A) (A) (A) (A) (A) (A) (A) (A) (A) (A)
                 (A) (A) (A) (A) (A) (A) (A) (A) (A) (A) (A) (A)
                 (A) (A) (A) (A) (A) (A) (A) (A) (A) (A) (A) (A)
                 (A) (A) (A) (A) (A) (A) (A) (A) (A) (A) (A) (A)
                 (A) (A) (A) (A) (A) (A) (A) (A) (A) (A) (A) (A)
                 (A) (A) (A) (A) (A) (A) (A) (A)
 The electronic state is 1-A.
 Alpha  occ. eigenvalues -- -100.87436 -19.20052 -19.19524 -19.11814 -10.33684
 Alpha  occ. eigenvalues --  -10.25516 -10.25003 -10.19177  -9.41205  -7.15223
 Alpha  occ. eigenvalues --   -7.14059  -7.13950  -1.08687  -1.04411  -1.00379
 Alpha  occ. eigenvalues --   -0.81467  -0.74580  -0.71911  -0.70603  -0.57647
 Alpha  occ. eigenvalues --   -0.55259  -0.54093  -0.50008  -0.48349  -0.47269
 Alpha  occ. eigenvalues --   -0.46304  -0.44919  -0.43708  -0.42050  -0.40875
 Alpha  occ. eigenvalues --   -0.38797  -0.37439  -0.36050  -0.30993  -0.29569
 Alpha  occ. eigenvalues --   -0.28614  -0.26822  -0.26218
 Alpha virt. eigenvalues --   -0.00805   0.00921   0.01177   0.02176   0.03288
 Alpha virt. eigenvalues --    0.03596   0.04537   0.05242   0.06634   0.07319
 Alpha virt. eigenvalues --    0.07947   0.08112   0.09366   0.10138   0.11284
 Alpha virt. eigenvalues --    0.11594   0.13329   0.15088   0.15879   0.16272
 Alpha virt. eigenvalues --    0.16769   0.17523   0.18510   0.19234   0.20066
 Alpha virt. eigenvalues --    0.20396   0.20887   0.22123   0.23437   0.24725
 Alpha virt. eigenvalues --    0.25358   0.26543   0.29039   0.29375   0.29762
 Alpha virt. eigenvalues --    0.31075   0.32201   0.32798   0.33646   0.35288
 Alpha virt. eigenvalues --    0.36268   0.38296   0.39548   0.44777   0.49878
 Alpha virt. eigenvalues --    0.57809   0.59589   0.62172   0.63972   0.64942
 Alpha virt. eigenvalues --    0.68866   0.68923   0.71381   0.73718   0.74312
 Alpha virt. eigenvalues --    0.76833   0.82047   0.84440   0.85396   0.86525
 Alpha virt. eigenvalues --    0.88801   0.90036   0.91074   0.91788   0.93167
 Alpha virt. eigenvalues --    0.94634   0.97302   1.00470   1.01770   1.04113
 Alpha virt. eigenvalues --    1.06195   1.06867   1.10061   1.12064   1.19004
 Alpha virt. eigenvalues --    1.20326   1.22200   1.23631   1.25785   1.28853
 Alpha virt. eigenvalues --    1.31798   1.33311   1.34576   1.37892   1.41747
 Alpha virt. eigenvalues --    1.45327   1.49537   1.51573   1.55325   1.57201
 Alpha virt. eigenvalues --    1.60791   1.64050   1.69184   1.71149   1.73839
 Alpha virt. eigenvalues --    1.78836   1.81109   1.84867   1.85173   1.92792
 Alpha virt. eigenvalues --    1.97532   1.98859   2.02162   2.03094   2.05810
 Alpha virt. eigenvalues --    2.10026   2.10447   2.11930   2.13816   2.16243
 Alpha virt. eigenvalues --    2.18833   2.21226   2.24527   2.26938   2.27610
 Alpha virt. eigenvalues --    2.30385   2.32482   2.34990   2.39742   2.42677
 Alpha virt. eigenvalues --    2.50227   2.55435   2.64551   2.76639   2.82064
 Alpha virt. eigenvalues --    2.84980   2.89593   3.08080
          Condensed to atoms (all electrons):
              1          2          3          4          5          6
     1  C    6.432394  -0.163543  -0.001337  -0.033077   0.002303  -1.418130
     2  C   -0.163543   5.265664   0.391272   0.417013   0.388240   0.082480
     3  H   -0.001337   0.391272   0.506914  -0.030282  -0.023659   0.001150
     4  H   -0.033077   0.417013  -0.030282   0.504804  -0.032934   0.005530
     5  H    0.002303   0.388240  -0.023659  -0.032934   0.495706  -0.003939
     6  C   -1.418130   0.082480   0.001150   0.005530  -0.003939   7.370666
     7  H   -0.063282   0.001145   0.000000   0.000013  -0.000010   0.410371
     8  H   -0.112977  -0.002940  -0.000003   0.000150   0.000660   0.448675
     9  H    0.050754   0.003219   0.000048   0.000079  -0.001239   0.289894
    10  O    0.063091   0.024770  -0.043587  -0.072181  -0.036944  -0.089939
    11  O    0.024853   0.012273  -0.000593   0.000800  -0.001403   0.004972
    12  C    0.003482  -0.021355  -0.000650  -0.003691   0.001754  -0.021724
    13  H    0.000255  -0.001940   0.000091   0.000028   0.000001  -0.000138
    14  H   -0.000724   0.001873   0.000009   0.000007  -0.000001  -0.000120
    15  H   -0.006175  -0.000601  -0.000255   0.001180   0.000037   0.001366
    16  H   -0.034551   0.001166  -0.000029   0.000238   0.000019   0.026680
    17  H   -0.006057  -0.016121  -0.002235  -0.000011   0.001374   0.007387
    18  Cl   0.380979   0.019097  -0.000307   0.000090   0.000068  -0.051194
    19  O    0.328706   0.002505  -0.000444   0.015418  -0.002098  -0.165017
              7          8          9         10         11         12
     1  C   -0.063282  -0.112977   0.050754   0.063091   0.024853   0.003482
     2  C    0.001145  -0.002940   0.003219   0.024770   0.012273  -0.021355
     3  H    0.000000  -0.000003   0.000048  -0.043587  -0.000593  -0.000650
     4  H    0.000013   0.000150   0.000079  -0.072181   0.000800  -0.003691
     5  H   -0.000010   0.000660  -0.001239  -0.036944  -0.001403   0.001754
     6  C    0.410371   0.448675   0.289894  -0.089939   0.004972  -0.021724
     7  H    0.458117  -0.023303  -0.024188   0.006977   0.000110  -0.000127
     8  H   -0.023303   0.479651  -0.031350   0.000417   0.000455  -0.000150
     9  H   -0.024188  -0.031350   0.496771  -0.006835  -0.000151   0.000033
    10  O    0.006977   0.000417  -0.006835   8.877497  -0.063072   0.021588
    11  O    0.000110   0.000455  -0.000151  -0.063072   8.796409   0.035469
    12  C   -0.000127  -0.000150   0.000033   0.021588   0.035469   5.155846
    13  H    0.000000   0.000000   0.000000  -0.000802  -0.041168   0.395856
    14  H    0.000000   0.000000   0.000000  -0.001064  -0.040863   0.390016
    15  H    0.000000  -0.000001   0.000002   0.000772  -0.083078   0.406365
    16  H   -0.000031  -0.000087   0.000007  -0.005377   0.074767  -0.002675
    17  H   -0.000066   0.000078  -0.000025   0.110457   0.091143  -0.009629
    18  Cl  -0.006400  -0.001038   0.005330  -0.141991  -0.000293  -0.002594
    19  O   -0.003248   0.007697  -0.005820  -0.175021  -0.105722   0.018962
             13         14         15         16         17         18
     1  C    0.000255  -0.000724  -0.006175  -0.034551  -0.006057   0.380979
     2  C   -0.001940   0.001873  -0.000601   0.001166  -0.016121   0.019097
     3  H    0.000091   0.000009  -0.000255  -0.000029  -0.002235  -0.000307
     4  H    0.000028   0.000007   0.001180   0.000238  -0.000011   0.000090
     5  H    0.000001  -0.000001   0.000037   0.000019   0.001374   0.000068
     6  C   -0.000138  -0.000120   0.001366   0.026680   0.007387  -0.051194
     7  H    0.000000   0.000000   0.000000  -0.000031  -0.000066  -0.006400
     8  H    0.000000   0.000000  -0.000001  -0.000087   0.000078  -0.001038
     9  H    0.000000   0.000000   0.000002   0.000007  -0.000025   0.005330
    10  O   -0.000802  -0.001064   0.000772  -0.005377   0.110457  -0.141991
    11  O   -0.041168  -0.040863  -0.083078   0.074767   0.091143  -0.000293
    12  C    0.395856   0.390016   0.406365  -0.002675  -0.009629  -0.002594
    13  H    0.499008  -0.024445  -0.032833   0.002068  -0.003164  -0.000001
    14  H   -0.024445   0.496288  -0.030344  -0.003642   0.001791  -0.000006
    15  H   -0.032833  -0.030344   0.531423   0.001975   0.001418  -0.000019
    16  H    0.002068  -0.003642   0.001975   0.284695  -0.004068  -0.002353
    17  H   -0.003164   0.001791   0.001418  -0.004068   0.272860   0.002219
    18  Cl  -0.000001  -0.000006  -0.000019  -0.002353   0.002219  17.188517
    19  O   -0.000687   0.000060   0.005579   0.128090  -0.002413  -0.130493
             19
     1  C    0.328706
     2  C    0.002505
     3  H   -0.000444
     4  H    0.015418
     5  H   -0.002098
     6  C   -0.165017
     7  H   -0.003248
     8  H    0.007697
     9  H   -0.005820
    10  O   -0.175021
    11  O   -0.105722
    12  C    0.018962
    13  H   -0.000687
    14  H    0.000060
    15  H    0.005579
    16  H    0.128090
    17  H   -0.002413
    18  Cl  -0.130493
    19  O    8.588384
 Mulliken atomic charges:
              1
     1  C    0.553038
     2  C   -0.404216
     3  H    0.203895
     4  H    0.226826
     5  H    0.212065
     6  C   -0.898971
     7  H    0.243922
     8  H    0.234066
     9  H    0.223472
    10  O   -0.468756
    11  O   -0.704909
    12  C   -0.366776
    13  H    0.207871
    14  H    0.211164
    15  H    0.203187
    16  H    0.533110
    17  H    0.555060
    18  Cl  -0.259610
    19  O   -0.504438
 Sum of Mulliken atomic charges =   0.00000
 Mulliken charges with hydrogens summed into heavy atoms:
              1
     1  C    0.553038
     2  C    0.238570
     6  C   -0.197511
    10  O   -0.468756
    11  O    0.383261
    12  C    0.255446
    18  Cl  -0.259610
    19  O   -0.504438
 Sum of Mulliken charges with hydrogens summed into heavy atoms =   0.00000
 APT atomic charges:
              1
     1  C    0.073525
     2  C   -1.348439
     3  H    0.521968
     4  H    0.353521
     5  H    0.511094
     6  C   -1.475201
     7  H    0.603898
     8  H    0.489244
     9  H    0.489699
    10  O   -0.197955
    11  O   -0.338614
    12  C   -1.486685
    13  H    0.542195
    14  H    0.626807
    15  H    0.291447
    16  H    0.497928
    17  H    0.505206
    18  Cl  -0.118585
    19  O   -0.541054
 Sum of APT charges=   0.00000
 APT Atomic charges with hydrogens summed into heavy atoms:
              1
     1  C    0.073525
     2  C    0.038145
     3  H    0.000000
     4  H    0.000000
     5  H    0.000000
     6  C    0.107640
     7  H    0.000000
     8  H    0.000000
     9  H    0.000000
    10  O   -0.197955
    11  O    0.664520
    12  C   -0.026236
    13  H    0.000000
    14  H    0.000000
    15  H    0.000000
    16  H    0.000000
    17  H    0.000000
    18  Cl  -0.118585
    19  O   -0.541054
 Sum of APT charges=   0.00000
 Electronic spatial extent (au):  <R**2>=           1338.6139
 Charge=              0.0000 electrons
 Dipole moment (field-independent basis, Debye):
    X=             -3.0191    Y=              4.0094    Z=             -0.3196  Tot=              5.0291
 Quadrupole moment (field-independent basis, Debye-Ang):
   XX=            -47.3854   YY=            -56.8075   ZZ=            -62.2212
   XY=              2.6737   XZ=              1.1228   YZ=             -2.4663
 Traceless Quadrupole moment (field-independent basis, Debye-Ang):
   XX=              8.0859   YY=             -1.3361   ZZ=             -6.7498
   XY=              2.6737   XZ=              1.1228   YZ=             -2.4663
 Octapole moment (field-independent basis, Debye-Ang**2):
  XXX=            -27.6437  YYY=              9.6436  ZZZ=             -7.7794  XYY=             -3.4562
  XXY=              4.4124  XXZ=              6.6262  XZZ=             -5.9543  YZZ=             -0.4960
  YYZ=             -0.3543  XYZ=              3.6358
 Hexadecapole moment (field-independent basis, Debye-Ang**3):
 XXXX=           -902.9474 YYYY=           -526.6262 ZZZZ=           -249.5273 XXXY=             20.4923
 XXXZ=              2.2894 YYYX=              1.8937 YYYZ=             -5.7583 ZZZX=              1.7803
 ZZZY=             -2.5848 XXYY=           -258.5916 XXZZ=           -191.6249 YYZZ=           -123.1139
 XXYZ=             -9.8570 YYXZ=             -5.0028 ZZXY=              2.0838
 N-N= 5.231875724889D+02 E-N=-3.034200460706D+03  KE= 8.369025195130D+02
  Exact polarizability:   0.000   0.000   0.000   0.000   0.000   0.000
 Approx polarizability: 110.218  -2.393 113.387  -4.217   5.584 106.949
   1 Symmetry operations used in ECPInt.
 ECPInt:  NShTT=    2145 NPrTT=   10610 LenC2=    2146 LenP2D=   10052.
 LDataN:  DoStor=T MaxTD1= 6 Len=  172
 Calling FoFJK, ICntrl=    100147 FMM=F ISym2X=0 I1Cent= 0 IOpClX= 0 NMat=1 NMatS=1 NMatT=0.
 ***** Axes restored to original set *****
 -------------------------------------------------------------------
 Center     Atomic                   Forces (Hartrees/Bohr)
 Number     Number              X              Y              Z
 -------------------------------------------------------------------
      1        6          -0.027690116   -0.012869729   -0.009447059
      2        6           0.008292756   -0.007721475   -0.004458767
      3        1           0.000231612    0.003090123    0.002204557
      4        1          -0.001027673    0.001570371   -0.000520210
      5        1          -0.004021742    0.002916853    0.000838388
      6        6           0.018320557    0.010136344    0.005184808
      7        1          -0.007441747    0.001152954   -0.002195774
      8        1          -0.003605286   -0.002289824    0.002627027
      9        1          -0.002718979   -0.002117824   -0.001002300
     10        8          -0.017830492    0.009242646   -0.017719100
     11        8           0.010318508    0.011085748    0.014381132
     12        6           0.003513976   -0.012954613   -0.005018082
     13        1          -0.002432218    0.001997323    0.004372446
     14        1          -0.002028567    0.004781446   -0.001345002
     15        1          -0.001345989    0.000952288    0.000314658
     16        1          -0.005607334    0.013795475   -0.035084769
     17        1           0.014605964   -0.009803937    0.018505679
     18       17           0.007059647   -0.009175628   -0.001571196
     19        8           0.013407122   -0.003788541    0.029933565
 -------------------------------------------------------------------
 Cartesian Forces:  Max     0.035084769 RMS     0.010702573

 GradGradGradGradGradGradGradGradGradGradGradGradGradGradGradGradGradGrad
 Berny optimization.
 Internal  Forces:  Max     0.021141142 RMS     0.005860587
 Search for a saddle point.
 Step number   1 out of a maximum of   99
 All quantities printed in internal units (Hartrees-Bohrs-Radians)
 Swaping is turned off.
 Second derivative matrix not updated -- analytic derivatives used.
     Eigenvalues ---   -0.05334   0.00165   0.00223   0.00264   0.00309
     Eigenvalues ---    0.00394   0.00586   0.01163   0.02340   0.02932
     Eigenvalues ---    0.03387   0.04417   0.04609   0.05461   0.06151
     Eigenvalues ---    0.06441   0.06535   0.06581   0.06615   0.07311
     Eigenvalues ---    0.08246   0.10505   0.11358   0.12250   0.12551
     Eigenvalues ---    0.13516   0.13738   0.13886   0.14496   0.14580
     Eigenvalues ---    0.16908   0.17897   0.18522   0.18725   0.18909
     Eigenvalues ---    0.19058   0.19585   0.20885   0.32348   0.32574
     Eigenvalues ---    0.32811   0.33284   0.33428   0.33756   0.33863
     Eigenvalues ---    0.33939   0.34083   0.34177   0.35850   0.36309
     Eigenvalues ---    0.590681000.000001000.000001000.000001000.00000
     Eigenvalues --- 1000.000001000.000001000.000001000.000001000.00000
     Eigenvalues --- 1000.000001000.000001000.000001000.000001000.00000
     Eigenvalues --- 1000.000001000.000001000.000001000.000001000.00000
     Eigenvalues --- 1000.000001000.000001000.000001000.000001000.00000
     Eigenvalues --- 1000.000001000.000001000.000001000.000001000.00000
     Eigenvalues --- 1000.000001000.000001000.000001000.000001000.00000
     Eigenvalues --- 1000.000001000.000001000.000001000.00000
 Eigenvectors required to have negative eigenvalues:
                          R12       R15       R19       R2        R14
   1                    0.58490  -0.57579  -0.39390  -0.25268   0.23092
                          A31       R4        D16       A32       A3
   1                    0.08275   0.07961   0.06472  -0.06157  -0.05980
 RFO step:  Lambda0=4.430496883D-04 Lambda=-2.18884433D-02.
 Linear search not attempted -- option 19 set.
 Maximum step size (   0.300) exceeded in Quadratic search.
    -- Step size scaled by   0.665
 Iteration  1 RMS(Cart)=  0.03118186 RMS(Int)=  0.00158944
 Iteration  2 RMS(Cart)=  0.00213156 RMS(Int)=  0.00054872
 Iteration  3 RMS(Cart)=  0.00000402 RMS(Int)=  0.00054871
 Iteration  4 RMS(Cart)=  0.00000000 RMS(Int)=  0.00054871
 Variable       Old X    -DE/DX   Delta X   Delta X   Delta X     New X
                                 (Linear)    (Quad)   (Total)
    R1        2.82221   0.00808   0.00000   0.02217   0.02217   2.84438
    R2        3.03373   0.01007   0.00000   0.02340   0.02342   3.05715
    R3        3.52364   0.01012   0.00000   0.02910   0.02910   3.55274
    R4        2.38880   0.00215   0.00000   0.00182   0.00212   2.39092
    R5        2.06774  -0.00117   0.00000  -0.00041  -0.00041   2.06733
    R6        2.06929   0.00010   0.00000   0.00239   0.00239   2.07168
    R7        2.07027  -0.00170   0.00000  -0.00206  -0.00206   2.06822
    R8        2.73870  -0.00136   0.00000  -0.01604  -0.01604   2.72266
    R9        2.08721  -0.00684   0.00000  -0.01369  -0.01369   2.07352
   R10        2.07925  -0.00435   0.00000  -0.00875  -0.00875   2.07050
   R11        2.07635  -0.00181   0.00000  -0.00418  -0.00418   2.07217
   R12        2.43927  -0.01390   0.00000  -0.00067  -0.00147   2.43780
   R13        2.74210  -0.00054   0.00000  -0.00745  -0.00745   2.73465
   R14        2.11318  -0.02114   0.00000  -0.08851  -0.08819   2.02499
   R15        2.40149  -0.01289   0.00000  -0.13667  -0.13739   2.26410
   R16        2.07074  -0.00239   0.00000  -0.00519  -0.00519   2.06555
   R17        2.07353  -0.00294   0.00000  -0.00632  -0.00632   2.06720
   R18        2.06650   0.00080   0.00000   0.00166   0.00166   2.06816
   R19        2.85981  -0.00002   0.00000   0.02397   0.02472   2.88453
    A1        1.90747  -0.00217   0.00000  -0.00841  -0.00922   1.89825
    A2        1.89804   0.00031   0.00000  -0.00205  -0.00213   1.89591
    A3        2.15905  -0.00972   0.00000  -0.03899  -0.03863   2.12042
    A4        1.63415   0.00252   0.00000   0.01397   0.01414   1.64829
    A5        1.82590   0.00894   0.00000   0.04404   0.04479   1.87069
    A6        1.96302   0.00370   0.00000   0.00809   0.00651   1.96952
    A7        1.95507  -0.00339   0.00000  -0.01908  -0.01913   1.93594
    A8        1.92311  -0.00390   0.00000  -0.01343  -0.01370   1.90941
    A9        1.84805   0.00410   0.00000   0.01540   0.01525   1.86330
   A10        1.93983  -0.00318   0.00000  -0.01284  -0.01301   1.92683
   A11        1.92695   0.00062   0.00000   0.00756   0.00746   1.93441
   A12        1.86664   0.00657   0.00000   0.02593   0.02572   1.89236
   A13        1.92063  -0.00410   0.00000  -0.01975  -0.01989   1.90074
   A14        1.95623  -0.00179   0.00000  -0.00438  -0.00441   1.95182
   A15        1.94869  -0.00315   0.00000  -0.02056  -0.02073   1.92797
   A16        1.86478   0.00349   0.00000   0.01941   0.01940   1.88418
   A17        1.86634   0.00325   0.00000   0.01411   0.01383   1.88017
   A18        1.90312   0.00285   0.00000   0.01390   0.01384   1.91696
   A19        1.99298   0.00375   0.00000   0.00084   0.00146   1.99445
   A20        1.75472  -0.01151   0.00000  -0.04632  -0.04612   1.70860
   A21        1.87995   0.00696   0.00000   0.02828   0.02728   1.90724
   A22        1.89342   0.00206   0.00000   0.02463   0.02496   1.91838
   A23        1.92212   0.00638   0.00000   0.04929   0.04872   1.97084
   A24        1.65606  -0.00286   0.00000  -0.03809  -0.03869   1.61737
   A25        1.84520   0.00633   0.00000   0.01899   0.01890   1.86409
   A26        1.86189   0.00591   0.00000   0.01462   0.01452   1.87641
   A27        1.93715  -0.00028   0.00000  -0.00140  -0.00141   1.93574
   A28        1.92533  -0.00410   0.00000  -0.00753  -0.00774   1.91759
   A29        1.95318  -0.00370   0.00000  -0.01297  -0.01299   1.94019
   A30        1.93692  -0.00329   0.00000  -0.00915  -0.00916   1.92775
   A31        2.36786   0.01571   0.00000   0.09534   0.09668   2.46454
   A32        2.63774   0.00849   0.00000   0.05960   0.05867   2.69642
   A33        1.92659  -0.02098   0.00000  -0.09448  -0.09450   1.83209
    D1       -2.78837  -0.00054   0.00000  -0.01258  -0.01231  -2.80068
    D2       -0.71590  -0.00002   0.00000  -0.00412  -0.00394  -0.71984
    D3        1.42517   0.00006   0.00000  -0.00435  -0.00422   1.42095
    D4       -1.02678   0.00156   0.00000  -0.00104  -0.00096  -1.02774
    D5        1.04569   0.00208   0.00000   0.00742   0.00741   1.05310
    D6       -3.09642   0.00216   0.00000   0.00719   0.00713  -3.08929
    D7        1.33585  -0.00312   0.00000  -0.03536  -0.03549   1.30036
    D8       -2.87486  -0.00260   0.00000  -0.02691  -0.02712  -2.90198
    D9       -0.73379  -0.00252   0.00000  -0.02713  -0.02740  -0.76120
   D10       -1.04352   0.00403   0.00000   0.02026   0.02054  -1.02298
   D11       -3.05088   0.00102   0.00000   0.01375   0.01466  -3.03623
   D12       -2.98628   0.00313   0.00000   0.01860   0.01915  -2.96713
   D13        1.28955   0.00012   0.00000   0.01209   0.01327   1.30282
   D14        1.30107  -0.00323   0.00000  -0.00256  -0.00209   1.29898
   D15       -0.70629  -0.00624   0.00000  -0.00908  -0.00798  -0.71427
   D16        3.08486  -0.00517   0.00000  -0.05201  -0.05129   3.03357
   D17        0.89001  -0.00327   0.00000  -0.05308  -0.05117   0.83884
   D18       -0.86043  -0.01157   0.00000  -0.09227  -0.09150  -0.95193
   D19       -2.90298   0.00453   0.00000   0.02220   0.02241  -2.88056
   D20       -0.97040  -0.00329   0.00000  -0.01641  -0.01643  -0.98682
   D21       -0.78329   0.00330   0.00000   0.01284   0.01291  -0.77038
   D22        1.14929  -0.00452   0.00000  -0.02577  -0.02593   1.12336
   D23        1.32938   0.00386   0.00000   0.01765   0.01771   1.34709
   D24       -3.02123  -0.00396   0.00000  -0.02096  -0.02113  -3.04235
   D25        0.22933   0.00084   0.00000   0.00575   0.00631   0.23563
   D26       -1.86155  -0.00067   0.00000   0.01556   0.01638  -1.84516
   D27        2.99201  -0.00052   0.00000  -0.01121  -0.01119   2.98082
   D28       -1.24146   0.00063   0.00000  -0.00374  -0.00356  -1.24502
   D29        0.87062   0.00017   0.00000  -0.00653  -0.00643   0.86418
   D30        1.20127  -0.00089   0.00000   0.00046   0.00028   1.20155
   D31       -3.03219   0.00027   0.00000   0.00792   0.00791  -3.02428
   D32       -0.92012  -0.00019   0.00000   0.00514   0.00504  -0.91508
   D33       -1.80721  -0.00186   0.00000  -0.03035  -0.03086  -1.83807
   D34        0.16722   0.00438   0.00000   0.01347   0.01174   0.17896
   D35        2.00645   0.00207   0.00000   0.01325   0.01272   2.01917
   D36        0.05639  -0.00048   0.00000  -0.00903  -0.00857   0.04782
   D37       -0.76184   0.00025   0.00000   0.03019   0.02887  -0.73297
         Item               Value     Threshold  Converged?
 Maximum Force            0.021141     0.000450     NO 
 RMS     Force            0.005861     0.000300     NO 
 Maximum Displacement     0.102611     0.001800     NO 
 RMS     Displacement     0.031073     0.001200     NO 
 Predicted change in Energy=-1.045805D-02
 GradGradGradGradGradGradGradGradGradGradGradGradGradGradGradGradGradGrad

                          Input orientation:                          
 ---------------------------------------------------------------------
 Center     Atomic      Atomic             Coordinates (Angstroms)
 Number     Number       Type             X           Y           Z
 ---------------------------------------------------------------------
      1          6           0        0.871864    0.103779    0.420027
      2          6           0       -0.385795    2.089759   -0.620917
      3          1           0       -1.171740    2.293784   -1.354036
      4          1           0       -0.747682    2.262755    0.399352
      5          1           0        0.480896    2.724224   -0.830982
      6          6           0        2.116255    0.933259    0.590374
      7          1           0        2.858520    0.349946    1.149634
      8          1           0        2.558618    1.207009   -0.373912
      9          1           0        1.897451    1.838230    1.169650
     10          8           0        0.002780    0.714039   -0.800412
     11          8           0       -1.738227   -0.826619   -0.104122
     12          6           0       -3.036088   -0.281157    0.230804
     13          1           0       -3.572741   -0.141333   -0.711104
     14          1           0       -3.554636   -1.020697    0.847929
     15          1           0       -2.934442    0.664725    0.771853
     16          1           0       -1.110469   -0.834529    0.764290
     17          1           0       -1.035108   -0.041611   -0.674079
     18         17           0        1.322858   -1.474131   -0.497209
     19          8           0        0.075165   -0.097855    1.381999
 ---------------------------------------------------------------------
                    Distance matrix (angstroms):
                    1          2          3          4          5
     1  C    0.000000
     2  C    2.570873   0.000000
     3  H    3.481342   1.093983   0.000000
     4  H    2.698987   1.096284   1.804206   0.000000
     5  H    2.929951   1.094453   1.786076   1.798910   0.000000
     6  C    1.505179   3.010810   4.054957   3.163255   2.811087
     7  H    2.130664   4.085020   5.127365   4.150477   3.900402
     8  H    2.166240   3.083801   4.007155   3.555862   2.613003
     9  H    2.149903   2.912492   3.999557   2.787527   2.606558
    10  O    1.617775   1.440769   2.044894   2.097891   2.066488
    11  O    2.820096   3.255981   3.408828   3.283123   4.249861
    12  C    3.931421   3.656600   3.552159   3.425887   4.746460
    13  H    4.592825   3.891340   3.479650   3.872171   4.965658
    14  H    4.587095   4.676965   4.638171   4.342956   5.755753
    15  H    3.863471   3.235140   3.206299   2.733931   4.298273
    16  H    2.220041   3.315933   3.778545   3.139739   4.212132
    17  H    2.203349   2.228716   2.436203   2.558314   3.157963
    18  Cl   1.880032   3.954253   4.599387   4.365235   4.294938
    19  O    1.265218   3.001635   3.841952   2.686103   3.609160
                    6          7          8          9         10
     6  C    0.000000
     7  H    1.097262   0.000000
     8  H    1.095660   1.773610   0.000000
     9  H    1.096544   1.771735   1.793925   0.000000
    10  O    2.539512   3.477139   2.637656   2.955457   0.000000
    11  O    4.293777   4.907779   4.761439   4.684236   2.426840
    12  C    5.305727   5.999079   5.820743   5.450967   3.359842
    13  H    5.934077   6.713034   6.286913   6.113829   3.677497
    14  H    6.003606   6.564926   6.620229   6.164594   4.287371
    15  H    5.061086   5.813796   5.637424   4.988241   3.331925
    16  H    3.683350   4.159849   4.350353   4.044198   2.466917
    17  H    3.532747   4.317359   3.816283   3.941198   1.290031
    18  Cl   2.758232   2.897864   2.954796   3.752375   2.573447
    19  O    2.419900   2.828708   3.309597   2.667254   2.329663
                   11         12         13         14         15
    11  O    0.000000
    12  C    1.447117   0.000000
    13  H    2.050240   1.093040   0.000000
    14  H    2.059954   1.093918   1.790026   0.000000
    15  H    2.102943   1.094421   1.804526   1.797520   0.000000
    16  H    1.071579   2.073364   2.952980   2.452673   2.361080
    17  H    1.198109   2.209098   2.539861   3.102119   2.489397
    18  Cl   3.153415   4.577510   5.078286   5.079856   4.930499
    19  O    2.455207   3.322460   4.205970   3.783162   3.164102
                   16         17         18         19
    16  H    0.000000
    17  H    1.644172   0.000000
    18  Cl   2.814524   2.764670   0.000000
    19  O    1.526427   2.337376   2.642404   0.000000
 Stoichiometry    C4H11ClO3
 Framework group  C1[X(C4H11ClO3)]
 Deg. of freedom    51
 Full point group                 C1      NOp   1
 Largest Abelian subgroup         C1      NOp   1
 Largest concise Abelian subgroup C1      NOp   1
                         Standard orientation:                         
 ---------------------------------------------------------------------
 Center     Atomic      Atomic             Coordinates (Angstroms)
 Number     Number       Type             X           Y           Z
 ---------------------------------------------------------------------
      1          6           0        0.868083    0.118947    0.414352
      2          6           0       -0.421578    2.091944   -0.612024
      3          1           0       -1.212927    2.288398   -1.341388
      4          1           0       -0.782341    2.254507    0.410356
      5          1           0        0.435180    2.739861   -0.821778
      6          6           0        2.101030    0.965340    0.584717
      7          1           0        2.853540    0.389903    1.138418
      8          1           0        2.536046    1.250340   -0.379652
      9          1           0        1.871288    1.864102    1.169399
     10          8           0       -0.013929    0.722884   -0.799942
     11          8           0       -1.730203   -0.846168   -0.105656
     12          6           0       -3.034580   -0.321129    0.236518
     13          1           0       -3.576473   -0.184220   -0.702814
     14          1           0       -3.540301   -1.071187    0.851591
     15          1           0       -2.944628    0.623339    0.782088
     16          1           0       -1.099365   -0.849494    0.760550
     17          1           0       -1.040418   -0.048237   -0.673958
     18         17           0        1.338465   -1.447614   -0.512549
     19          8           0        0.077726   -0.099026    1.377991
 ---------------------------------------------------------------------
 Rotational constants (GHZ):      2.0042374      1.2265770      0.9623387
 Basis read from rwf:  (5D, 7F)
 Pseudo-potential data read from rwf file.
 There are   166 symmetry adapted basis functions of A   symmetry.
 Integral buffers will be    262144 words long.
 Raffenetti 2 integral format.
 Two-electron integral symmetry is turned on.
   166 basis functions,   301 primitive gaussians,   174 cartesian basis functions
    38 alpha electrons       38 beta electrons
       nuclear repulsion energy       522.6303729999 Hartrees.
 NAtoms=   19 NActive=   19 NUniq=   19 SFac= 7.50D-01 NAtFMM=   80 NAOKFM=F Big=F
 One-electron integrals computed using PRISM.
   1 Symmetry operations used in ECPInt.
 ECPInt:  NShTT=    2145 NPrTT=   10610 LenC2=    2115 LenP2D=    7618.
 LDataN:  DoStor=T MaxTD1= 4 Len=   56
 NBasis=   166 RedAO= T  NBF=   166
 NBsUse=   166 1.00D-06 NBFU=   166
 Initial guess read from the read-write file.
 B after Tr=     0.000000    0.000000    0.000000
         Rot=    1.000000    0.000000    0.000000    0.000000 Ang=   0.00 deg.
 Initial guess orbital symmetries:
       Occupied  (A) (A) (A) (A) (A) (A) (A) (A) (A) (A) (A) (A)
                 (A) (A) (A) (A) (A) (A) (A) (A) (A) (A) (A) (A)
                 (A) (A) (A) (A) (A) (A) (A) (A) (A) (A) (A) (A)
                 (A) (A)
       Virtual   (A) (A) (A) (A) (A) (A) (A) (A) (A) (A) (A) (A)
                 (A) (A) (A) (A) (A) (A) (A) (A) (A) (A) (A) (A)
                 (A) (A) (A) (A) (A) (A) (A) (A) (A) (A) (A) (A)
                 (A) (A) (A) (A) (A) (A) (A) (A) (A) (A) (A) (A)
                 (A) (A) (A) (A) (A) (A) (A) (A) (A) (A) (A) (A)
                 (A) (A) (A) (A) (A) (A) (A) (A) (A) (A) (A) (A)
                 (A) (A) (A) (A) (A) (A) (A) (A) (A) (A) (A) (A)
                 (A) (A) (A) (A) (A) (A) (A) (A) (A) (A) (A) (A)
                 (A) (A) (A) (A) (A) (A) (A) (A) (A) (A) (A) (A)
                 (A) (A) (A) (A) (A) (A) (A) (A) (A) (A) (A) (A)
                 (A) (A) (A) (A) (A) (A) (A) (A)
 Harris functional with IExCor=  402 diagonalized for initial guess.
 ExpMin= 4.38D-02 ExpMax= 5.48D+03 ExpMxC= 1.36D+03 IAcc=2 IRadAn=         0 AccDes= 0.00D+00
 HarFok:  IExCor=  402 AccDes= 0.00D+00 IRadAn=         0 IDoV= 1
 ScaDFX=  1.000000  1.000000  1.000000  1.000000
 FoFCou: FMM=F IPFlag=           0 FMFlag=      100000 FMFlg1=           0
         NFxFlg=           0 DoJE=T BraDBF=F KetDBF=T FulRan=T
         Omega=  0.000000  0.000000  1.000000  0.000000  0.000000 ICntrl=     500 IOpCl=  0
         NMat0=    1 NMatS0=    1 NMatT0=    0 NMatD0=    1 NMtDS0=    0 NMtDT0=    0
         I1Cent=           4 NGrid=           0.
 Petite list used in FoFCou.
 Requested convergence on RMS density matrix=1.00D-08 within 128 cycles.
 Requested convergence on MAX density matrix=1.00D-06.
 Requested convergence on             energy=1.00D-06.
 No special actions if energy rises.
 SCF Done:  E(RB3LYP) =  -842.727487422     A.U. after   12 cycles
             Convg  =    0.7139D-08             -V/T =  2.0068
   1 Symmetry operations used in ECPInt.
 ECPInt:  NShTT=    2145 NPrTT=   10610 LenC2=    2115 LenP2D=    7618.
 LDataN:  DoStor=T MaxTD1= 5 Len=  102
 Calling FoFJK, ICntrl=      2127 FMM=F ISym2X=0 I1Cent= 0 IOpClX= 0 NMat=1 NMatS=1 NMatT=0.
 ***** Axes restored to original set *****
 -------------------------------------------------------------------
 Center     Atomic                   Forces (Hartrees/Bohr)
 Number     Number              X              Y              Z
 -------------------------------------------------------------------
      1        6          -0.012703837   -0.004775458   -0.002840634
      2        6           0.004123409   -0.003540039   -0.001704027
      3        1           0.000009708    0.001372172    0.000930540
      4        1          -0.000584474    0.000793036   -0.000249399
      5        1          -0.001645097    0.001349255    0.000438506
      6        6           0.007540296    0.004497359    0.001800263
      7        1          -0.003073455    0.000453684   -0.000344854
      8        1          -0.001263862   -0.001080368    0.000943021
      9        1          -0.001249045   -0.000737194   -0.000602989
     10        8          -0.007486429    0.004612659   -0.008923648
     11        8           0.001010192    0.003296473    0.004995375
     12        6           0.001558591   -0.005717357   -0.002155771
     13        1          -0.000981883    0.000880785    0.001717396
     14        1          -0.000895969    0.001893148   -0.000445585
     15        1          -0.000627964    0.000344602    0.000112945
     16        1          -0.002188018    0.007262263   -0.012727387
     17        1           0.007339454   -0.003518163    0.007143756
     18       17           0.003468404   -0.003862833   -0.000695381
     19        8           0.007649980   -0.003524024    0.012607875
 -------------------------------------------------------------------
 Cartesian Forces:  Max     0.012727387 RMS     0.004524598

 GradGradGradGradGradGradGradGradGradGradGradGradGradGradGradGradGradGrad
 Berny optimization.
 Internal  Forces:  Max     0.008522768 RMS     0.002405248
 Search for a saddle point.
 Step number   2 out of a maximum of   99
 All quantities printed in internal units (Hartrees-Bohrs-Radians)
 Swaping is turned off.
 Update second derivatives using D2CorX and points    1    2
     Eigenvalues ---   -0.05234   0.00166   0.00230   0.00252   0.00324
     Eigenvalues ---    0.00394   0.00677   0.01222   0.02362   0.02961
     Eigenvalues ---    0.03380   0.04416   0.04607   0.05490   0.06148
     Eigenvalues ---    0.06440   0.06537   0.06580   0.06614   0.07328
     Eigenvalues ---    0.08441   0.10445   0.11429   0.12270   0.12565
     Eigenvalues ---    0.13497   0.13848   0.13902   0.14452   0.14574
     Eigenvalues ---    0.17007   0.17905   0.18546   0.18745   0.18914
     Eigenvalues ---    0.19055   0.19816   0.21225   0.32344   0.32575
     Eigenvalues ---    0.32806   0.33283   0.33425   0.33757   0.33863
     Eigenvalues ---    0.33939   0.34084   0.34176   0.35851   0.36308
     Eigenvalues ---    0.590641000.000001000.000001000.000001000.00000
     Eigenvalues --- 1000.000001000.000001000.000001000.000001000.00000
     Eigenvalues --- 1000.000001000.000001000.000001000.000001000.00000
     Eigenvalues --- 1000.000001000.000001000.000001000.000001000.00000
     Eigenvalues --- 1000.000001000.000001000.000001000.000001000.00000
     Eigenvalues --- 1000.000001000.000001000.000001000.000001000.00000
     Eigenvalues --- 1000.000001000.000001000.000001000.000001000.00000
     Eigenvalues --- 1000.000001000.000001000.000001000.00000
 Eigenvectors required to have negative eigenvalues:
                          R12       R15       R19       R2        R14
   1                    0.58495  -0.55584  -0.41136  -0.25104   0.24868
                          A31       R4        D16       A32       A3
   1                    0.08170   0.07975   0.06878  -0.06836  -0.06125
 RFO step:  Lambda0=1.782229103D-04 Lambda=-4.95972862D-03.
 Linear search not attempted -- option 19 set.
 Maximum step size (   0.300) exceeded in Quadratic search.
    -- Step size scaled by   0.811
 Iteration  1 RMS(Cart)=  0.03092754 RMS(Int)=  0.00182716
 Iteration  2 RMS(Cart)=  0.00238329 RMS(Int)=  0.00062018
 Iteration  3 RMS(Cart)=  0.00001091 RMS(Int)=  0.00062014
 Iteration  4 RMS(Cart)=  0.00000001 RMS(Int)=  0.00062014
 Variable       Old X    -DE/DX   Delta X   Delta X   Delta X     New X
                                 (Linear)    (Quad)   (Total)
    R1        2.84438   0.00355   0.00000   0.01281   0.01281   2.85718
    R2        3.05715   0.00525   0.00000   0.02397   0.02360   3.08075
    R3        3.55274   0.00442   0.00000   0.00227   0.00227   3.55502
    R4        2.39092   0.00110   0.00000   0.00471   0.00458   2.39550
    R5        2.06733  -0.00038   0.00000   0.00016   0.00016   2.06749
    R6        2.07168   0.00009   0.00000   0.00150   0.00150   2.07317
    R7        2.06822  -0.00061   0.00000  -0.00139  -0.00139   2.06682
    R8        2.72266  -0.00059   0.00000  -0.00819  -0.00819   2.71447
    R9        2.07352  -0.00250   0.00000  -0.00624  -0.00624   2.06728
   R10        2.07050  -0.00160   0.00000  -0.00469  -0.00469   2.06580
   R11        2.07217  -0.00068   0.00000  -0.00223  -0.00223   2.06994
   R12        2.43780  -0.00484   0.00000  -0.01637  -0.01663   2.42117
   R13        2.73465  -0.00031   0.00000  -0.01077  -0.01077   2.72388
   R14        2.02499  -0.00633   0.00000  -0.00484  -0.00436   2.02063
   R15        2.26410  -0.00322   0.00000  -0.04238  -0.04245   2.22165
   R16        2.06555  -0.00089   0.00000  -0.00173  -0.00173   2.06381
   R17        2.06720  -0.00110   0.00000  -0.00242  -0.00242   2.06479
   R18        2.06816   0.00030   0.00000   0.00220   0.00220   2.07036
   R19        2.88453   0.00116   0.00000  -0.06487  -0.06441   2.82012
    A1        1.89825  -0.00155   0.00000  -0.01025  -0.01039   1.88786
    A2        1.89591   0.00001   0.00000   0.00195   0.00176   1.89767
    A3        2.12042  -0.00408   0.00000  -0.02879  -0.02774   2.09268
    A4        1.64829   0.00127   0.00000   0.01418   0.01466   1.66295
    A5        1.87069   0.00451   0.00000   0.03075   0.02985   1.90055
    A6        1.96952   0.00122   0.00000   0.00323   0.00220   1.97172
    A7        1.93594  -0.00160   0.00000  -0.01393  -0.01395   1.92200
    A8        1.90941  -0.00171   0.00000  -0.00728  -0.00737   1.90204
    A9        1.86330   0.00172   0.00000   0.00857   0.00852   1.87182
   A10        1.92683  -0.00144   0.00000  -0.00671  -0.00678   1.92005
   A11        1.93441   0.00040   0.00000   0.00527   0.00523   1.93964
   A12        1.89236   0.00282   0.00000   0.01507   0.01499   1.90735
   A13        1.90074  -0.00185   0.00000  -0.01554  -0.01561   1.88512
   A14        1.95182  -0.00066   0.00000  -0.00093  -0.00093   1.95090
   A15        1.92797  -0.00149   0.00000  -0.01211  -0.01219   1.91578
   A16        1.88418   0.00156   0.00000   0.01486   0.01487   1.89905
   A17        1.88017   0.00134   0.00000   0.00567   0.00550   1.88567
   A18        1.91696   0.00121   0.00000   0.00869   0.00868   1.92565
   A19        1.99445   0.00124   0.00000  -0.00295  -0.00328   1.99117
   A20        1.70860  -0.00486   0.00000  -0.02168  -0.02175   1.68686
   A21        1.90724   0.00294   0.00000   0.00852   0.00781   1.91504
   A22        1.91838   0.00130   0.00000   0.03052   0.03163   1.95000
   A23        1.97084   0.00319   0.00000   0.04404   0.04328   2.01413
   A24        1.61737  -0.00185   0.00000  -0.04522  -0.04558   1.57179
   A25        1.86409   0.00251   0.00000   0.01345   0.01339   1.87749
   A26        1.87641   0.00235   0.00000   0.00953   0.00947   1.88589
   A27        1.93574  -0.00006   0.00000   0.00387   0.00385   1.93958
   A28        1.91759  -0.00163   0.00000  -0.00481  -0.00491   1.91268
   A29        1.94019  -0.00157   0.00000  -0.01238  -0.01240   1.92779
   A30        1.92775  -0.00137   0.00000  -0.00831  -0.00833   1.91942
   A31        2.46454   0.00705   0.00000   0.09602   0.09685   2.56139
   A32        2.69642   0.00350   0.00000   0.02564   0.02496   2.72138
   A33        1.83209  -0.00852   0.00000  -0.03663  -0.03907   1.79303
    D1       -2.80068  -0.00033   0.00000  -0.05034  -0.05055  -2.85123
    D2       -0.71984   0.00000   0.00000  -0.04257  -0.04283  -0.76267
    D3        1.42095   0.00003   0.00000  -0.04072  -0.04102   1.37993
    D4       -1.02774   0.00047   0.00000  -0.03769  -0.03753  -1.06527
    D5        1.05310   0.00080   0.00000  -0.02992  -0.02981   1.02329
    D6       -3.08929   0.00083   0.00000  -0.02806  -0.02800  -3.11729
    D7        1.30036  -0.00187   0.00000  -0.06037  -0.06017   1.24019
[...]
 926,0.00601533,-0.00646435,-0.00421052,0.00056164,0.24306380,-0.003725
 70,0.00081197,-0.00294833,-0.11422740,-0.12222678,0.03071814,0.0047630
 2,0.00578364,-0.00206690,0.00326733,0.00508605,0.00012217,0.12818884,0
 .14918497,0.00165748,0.00091434,-0.00039700,0.04714982,0.03135487,-0.0
 6580239,-0.01827306,-0.01245336,0.00590842,0.02587251,0.01664624,-0.00
 437216,-0.04895355,-0.03148546,0.06156110,-0.15099027,-0.05961887,-0.0
 1424566,-0.00101576,-0.00160789,-0.00099236,0.00002636,-0.00010508,0.0
 0001911,-0.00033903,0.00012903,0.00014910,-0.00028108,-0.00002808,-0.0
 0020906,0.51906749,-0.06752108,-0.11696349,-0.01434050,0.00006568,0.00
 333019,0.00087267,0.00005373,-0.00044989,-0.00029474,0.00032990,-0.000
 32830,-0.00031193,0.00015291,-0.00002065,0.00016900,-0.04541145,0.5497
 3920,-0.01760825,-0.01355263,-0.07592345,-0.00125668,-0.00089490,-0.00
 124617,-0.00025870,-0.00007510,-0.00009470,0.00037869,0.00055682,-0.00
 003090,-0.00103836,0.00039374,0.00045063,-0.02955910,-0.01541805,0.598
 23588,-0.01793143,0.01540522,-0.01649115,0.00041143,-0.00145402,0.0002
 0165,0.00006019,0.00013310,-0.00003243,0.00007009,0.00011627,0.0000372
 5,0.00011879,0.00017925,0.00008017,-0.15538931,0.08612466,-0.10148775,
 0.16738812,-0.01249634,0.00867997,-0.01078385,0.00007631,-0.00147629,0
 .00019299,0.00019993,0.00040422,0.00006695,-0.00017667,0.00009891,0.00
 011505,0.00037898,0.00034593,-0.00025367,0.08889866,-0.11671837,0.0843
 4442,-0.09320252,0.12574382,-0.00420607,0.00363601,-0.00437977,0.00032
 984,-0.00062057,-0.00005914,0.00003312,0.00014848,0.00004999,-0.000190
 24,0.00002383,0.00009705,0.00022466,-0.00012552,-0.00008587,-0.1018418
 7,0.08209199,-0.14333966,0.11271018,-0.08942672,0.15211483,-0.01030030
 ,-0.00195186,0.02676097,-0.00079996,-0.00012949,0.00032579,0.00013134,
 0.00013101,-0.00004961,0.00021075,-0.00003990,-0.00008902,-0.00019645,
 0.00053349,-0.00009167,-0.10438614,-0.02637816,0.10539037,0.01184897,0
 .00378214,-0.01843534,0.11189011,-0.00496354,-0.00321141,0.01916394,0.
 00042520,0.00054069,-0.00042521,-0.00016928,-0.00011209,0.00012706,-0.
 00008007,-0.00005766,0.00009259,0.00001853,-0.00022900,0.00012477,-0.0
 2513674,-0.06169205,0.04527045,-0.00858077,-0.00378876,0.01322628,0.02
 980937,0.06243891,-0.00362931,-0.00238974,0.00328071,-0.00000007,0.000
 26922,-0.00011273,-0.00009918,-0.00008744,0.00006434,-0.00010072,-0.00
 004528,0.00000876,-0.00004112,-0.00020993,0.00011059,0.11003471,0.0497
 3987,-0.25576869,0.00917472,0.00253801,-0.01494504,-0.11776708,-0.0525
 9943,0.27437691,0.00682390,-0.02346397,-0.01216509,-0.00059496,0.00043
 087,-0.00149714,-0.00018120,0.00002967,0.00015337,-0.00058441,0.000165
 38,0.00000624,-0.00060413,0.00015623,-0.00040590,-0.06877243,0.0599532
 1,0.03567572,-0.00501224,0.01673624,0.01113732,-0.00421828,0.01273499,
 0.00451576,0.07203693,0.00774011,-0.01723818,-0.00922903,0.00053604,-0
 .00052344,0.00038238,0.00012664,0.00038205,0.00024909,-0.00022357,0.00
 009429,0.00022854,0.00066371,0.00016867,0.00017262,0.05773810,-0.23729
 856,-0.10400430,0.00370700,-0.01303446,-0.00792527,-0.00167606,0.00835
 784,0.00367950,-0.06570756,0.25800523,0.00178361,-0.00496296,-0.004144
 29,-0.00052365,-0.00106120,-0.00003385,0.00026081,0.00041557,0.0001020
 3,-0.00023583,0.00003058,0.00021793,-0.00009901,0.00050184,-0.00091455
 ,0.03457734,-0.10494389,-0.10715297,-0.00415730,0.01687091,0.01036231,
 0.00575265,-0.02386780,-0.01046451,-0.03627034,0.11598599,0.11123305,-
 0.04423918,-0.04722371,0.03549905,-0.08870669,0.02012537,-0.00647234,-
 0.00427768,0.03217794,0.00615106,-0.00109532,0.01489708,0.00200445,0.0
 1451868,-0.02396230,-0.00619807,-0.01861494,0.01822420,-0.02289321,-0.
 00505854,-0.00523939,-0.00209001,0.00163011,0.00112635,0.00009026,0.00
 108661,-0.00029817,-0.00020938,0.18027193,-0.02539834,-0.03873286,-0.0
 2430385,0.02106562,-0.19039218,-0.02970790,0.00886611,-0.02377377,-0.0
 0070970,0.00959315,-0.02232370,-0.01021935,0.00704010,-0.03921144,-0.0
 0485240,-0.00460200,0.00644094,-0.00622495,-0.00223933,-0.00071485,-0.
 00101487,0.00131035,0.00010325,-0.00015552,0.00114325,0.00048426,0.001
 01710,-0.01838103,0.38825478,0.01995038,-0.05153406,-0.01603474,-0.009
 47872,-0.02213014,-0.08495657,-0.00432582,0.02713521,0.00692432,0.0063
 5660,-0.03413484,0.00283575,-0.00254400,0.00410468,0.00367388,-0.01251
 514,0.00981615,-0.00944598,-0.00165580,-0.00223040,0.00035558,-0.00102
 567,-0.00045543,0.00082528,0.00112860,0.00036488,-0.00002709,-0.009587
 42,0.01881208,0.17315171,0.01316506,-0.00551176,-0.01798989,-0.0084464
 8,0.00898767,0.00199538,0.00070412,-0.00106246,0.00099236,0.00015635,-
 0.00115075,-0.00152253,0.00070949,-0.00366946,-0.00066010,-0.00193973,
 -0.00016928,0.00253541,-0.00002472,-0.00008357,-0.00012305,-0.00063877
 ,-0.00064476,0.00022919,0.00033407,0.00001975,0.00007225,-0.04154231,-
 0.05016437,0.01900959,0.46735210,0.00408561,-0.01084883,0.01090343,-0.
 00345614,0.00832134,0.00008939,0.00059577,-0.00024748,0.00034842,0.000
 63405,-0.00076199,-0.00061971,0.00034308,-0.00193868,-0.00022126,-0.00
 091377,0.00152993,-0.00165759,-0.00056224,-0.00038994,-0.00037346,0.00
 058286,-0.00003445,0.00004791,0.00021321,0.00004184,0.00016360,-0.0531
 4208,-0.02300572,0.01055971,-0.01475196,0.19358596,0.00399455,0.010889
 30,-0.04634046,0.00546182,-0.00458428,-0.00001993,-0.00039210,-0.00069
 207,-0.00019147,-0.00047301,0.00095530,0.00040868,-0.00038625,0.002412
 68,0.00014338,-0.00079292,-0.00297235,0.00661767,0.00104248,0.00056456
 ,0.00043462,-0.00169982,-0.00110253,0.00008428,0.00006175,0.00019698,-
 0.00017315,0.04376393,0.02228194,0.01291355,0.02096972,-0.00682271,0.2
 8784558,-0.00378639,0.00034430,0.00240615,0.00105095,-0.00464714,-0.00
 022986,-0.00026020,0.00029565,-0.00038885,-0.00010508,0.00021107,0.000
 65622,-0.00015722,0.00065799,0.00010985,0.00044718,0.00001987,-0.00032
 821,0.00012174,0.00010471,0.00001712,0.00018420,0.00018529,-0.00003672
 ,-0.00002847,0.00012142,0.00001202,0.00941439,0.00681834,-0.00168380,-
 0.18549288,0.04043817,0.02059133,0.47414528,0.00156726,-0.00080661,0.0
 0055803,-0.00193248,0.00213654,0.00090538,0.00009982,-0.00016757,0.000
 29185,-0.00022425,-0.00045261,-0.00058334,0.00023024,-0.00087275,-0.00
 031006,-0.00017980,0.00021989,0.00014726,-0.00007701,-0.00005187,-0.00
 004367,-0.00002923,-0.00006438,0.00001365,0.00000287,-0.00004426,-0.00
 000498,-0.00759892,-0.00963864,0.00173196,0.05036652,-0.09098948,-0.00
 033129,0.04884968,0.58220746,0.00144760,0.00082228,-0.00526816,0.00073
 787,0.00137240,0.00059167,0.00006380,0.00002224,0.00024675,-0.00025583
 ,-0.00012407,-0.00048781,0.00011595,0.00012952,-0.00018053,-0.00024180
 ,-0.00002796,0.00055991,0.00006893,-0.00001214,0.00002153,-0.00017392,
 -0.00009282,0.00008996,0.00000293,-0.00000927,-0.00001951,0.00122176,0
 .00191902,0.00087476,0.03487708,-0.00440551,-0.10096698,0.03631296,-0.
 02006793,0.60989327,0.00097595,0.00041605,-0.00233375,-0.00019794,0.00
 044156,-0.00011641,0.00005718,-0.00020194,0.00010401,0.00000088,0.0000
 0207,-0.00004843,0.00006185,-0.00007824,0.00003850,-0.00009199,-0.0000
 5486,0.00026277,0.00002794,0.00000272,0.00001206,-0.00009186,-0.000051
 63,0.00002838,0.00000916,0.00000006,-0.00001460,-0.00016557,-0.0008185
 6,0.00087963,-0.03275124,0.00801771,-0.02919191,-0.10736566,0.00927841
 ,-0.10794887,0.13006861,-0.00032730,0.00014175,0.00036285,-0.00004531,
 -0.00006415,-0.00027490,-0.00004069,-0.00006617,0.00012069,0.00003650,
 0.00005692,0.00002380,0.00004629,0.00001341,0.00006473,0.00005837,-0.0
 0002553,-0.00005406,0.00000321,0.00000283,0.00000361,0.00001882,0.0000
 2234,-0.00000552,-0.00000688,-0.00000129,-0.00000827,0.00028507,0.0001
 1026,0.00007378,0.01153416,-0.00080242,0.01063390,0.00927871,-0.055804
 56,0.01999331,-0.01786451,0.05247965,0.00015827,-0.00000407,0.00010165
 ,-0.00010875,0.00013532,-0.00013452,-0.00001075,-0.00004879,0.00008325
 ,0.00001951,0.00001868,-0.00000422,0.00002641,-0.00003744,0.00004319,-
 0.00001595,-0.00001225,-0.00003336,-0.00000307,-0.00000434,-0.00000176
 ,0.00000738,0.00000805,-0.00000782,-0.00000222,-0.00000465,-0.00000253
 ,-0.00048566,-0.00034419,-0.00005316,0.00721349,-0.00220697,0.01450433
 ,-0.11854874,0.02416126,-0.26500980,0.12364116,-0.02441473,0.27550260,
 0.00087062,-0.00068145,0.00110730,-0.00075917,0.00057074,0.00003323,0.
 00003790,-0.00006802,0.00008171,0.00002919,-0.00007526,-0.00007177,0.0
 0006593,-0.00033584,-0.00001695,-0.00010669,0.00012114,-0.00009204,-0.
 00004719,-0.00001881,-0.00002516,0.00002603,-0.00000065,0.00000391,0.0
 0001717,-0.00001187,0.00001506,-0.00336509,-0.00320753,0.00029555,-0.0
 3211253,-0.01972323,0.02576151,-0.09346534,-0.07852306,0.05848754,0.00
 975069,0.01180390,-0.00839923,0.11434230,-0.00004445,0.00003919,-0.000
 00260,0.00021419,-0.00055988,-0.00014397,-0.00000432,0.00008450,-0.000
 15751,0.00005354,0.00010763,0.00022025,-0.00010720,0.00014193,0.000087
 82,0.00001920,-0.00003150,-0.00001004,-0.00000236,0.00000721,0.0000098
 2,0.00000162,-0.00000558,-0.00000171,0.00000749,0.00000330,0.00001360,
 0.00115616,0.00139315,-0.00041056,0.01064137,0.01405470,-0.01163892,-0
 .08625922,-0.19283976,0.11276184,-0.00047505,-0.00061186,0.00006858,0.
 08618091,0.19788972,-0.00039723,0.00019958,0.00002854,0.00015110,-0.00
 033603,-0.00018696,-0.00000664,-0.00002367,-0.00002818,0.00002147,0.00
 007457,0.00012964,-0.00002703,0.00008260,0.00009068,0.00004525,-0.0000
 2650,-0.00001612,0.00001014,0.00000672,0.00000836,0.00001123,0.0000122
 6,-0.00000244,-0.00000591,0.00000080,-0.00000050,0.00094631,0.00092319
 ,-0.00022831,0.00848233,0.00278677,-0.00219928,0.06408801,0.10852004,-
 0.14101033,0.01215556,0.02053636,-0.01396253,-0.07529529,-0.11811069,0
 .14510784,-0.00018608,0.00037193,0.00069148,-0.00026448,0.00047155,0.0
 0042326,0.00002250,-0.00008360,0.00000839,-0.00011519,-0.00027705,-0.0
 0016698,0.00006030,-0.00011324,-0.00013286,0.00002733,-0.00001323,-0.0
 0000807,-0.00000133,-0.00001160,0.00000252,-0.00000999,0.00000658,-0.0
 0000767,-0.00002146,-0.00003641,-0.00002139,-0.00078103,-0.00089883,-0
 .00016176,-0.01412998,0.03470612,0.02027476,-0.05351634,-0.02331776,-0
 .01345478,0.00108807,-0.01446004,-0.00581846,0.00120206,-0.01100277,-0
 .00813261,0.06130444,-0.00015959,-0.00012443,-0.00039635,0.00007762,-0
 .00074621,-0.00010465,-0.00006534,0.00002500,-0.00009968,-0.00009307,0
 .00007771,0.00021498,-0.00007641,0.00011019,0.00008122,0.00002407,-0.0
 0000989,-0.00000210,0.00001135,0.00000367,0.00000325,0.00000074,0.0000
 0607,-0.00000881,0.00000309,0.00002871,0.00000867,0.00137358,0.0011767
 6,-0.00030325,0.01162956,-0.00472362,-0.00493428,-0.01796133,-0.251026
 94,-0.10849376,-0.00097618,0.00538325,0.00252769,-0.00268641,-0.017770
 26,-0.01202623,0.01172494,0.26922115,-0.00009694,-0.00055289,0.0011464
 3,0.00019610,-0.00067004,-0.00011527,0.00002563,0.00017449,-0.00032404
 ,0.00011624,0.00009446,0.00037131,-0.00016995,0.00013928,0.00007782,-0
 .00000304,0.00006143,-0.00012651,-0.00002049,0.00000770,-0.00001270,0.
 00004874,0.00001902,-0.00001082,0.00001293,0.00001786,0.00003105,0.000
 16149,0.00092397,-0.00044485,0.00685157,-0.00566680,-0.00083683,-0.010
 02143,-0.10869008,-0.11683643,-0.00211891,-0.02515699,-0.01110405,0.00
 058026,0.01672361,0.01144013,0.00555191,0.12323801,0.11762789,-0.02840
 245,-0.01406498,0.05530320,-0.00103989,-0.00118551,-0.00155021,-0.0001
 8558,0.00134461,-0.00043247,0.00065868,-0.00007704,0.00067982,-0.00008
 035,-0.00046364,0.00014986,0.00311654,0.00221722,-0.00599602,-0.000792
 93,-0.00032465,-0.00035072,0.00196719,0.00114879,-0.00042192,-0.000223
 14,-0.00027904,0.00004936,-0.02246507,-0.00206323,-0.01151409,-0.07791
 782,-0.00753047,-0.02180425,-0.02745581,0.00472263,-0.01104002,0.00135
 456,-0.00056695,0.00157433,0.00082099,-0.00037056,-0.00095089,0.002843
 10,-0.00151588,-0.00168991,0.07189582,-0.01184399,-0.00276332,0.016656
 24,-0.00015899,-0.00172809,0.00037674,-0.00007495,0.00043955,-0.000133
 09,-0.00004122,-0.00042251,0.00006862,0.00008057,0.00014067,-0.0002128
 4,0.00032834,0.00120316,-0.00117918,-0.00029130,-0.00007451,-0.0001035
 3,0.00026524,0.00064719,-0.00010355,0.00000155,-0.00003620,-0.00009879
 ,-0.00471764,0.00072856,-0.00621275,-0.00411920,-0.03570337,-0.0116421
 3,0.00564238,-0.00098308,0.01249161,0.00325177,-0.00119664,-0.00105215
 ,-0.00097739,0.00033346,-0.00061651,0.00123832,-0.00064748,0.00051941,
 -0.01742035,0.05268572,0.00187816,0.00248507,0.04714665,-0.00132934,0.
 00035106,-0.00070757,-0.00006860,0.00071311,-0.00028044,0.00057146,-0.
 00028168,0.00034218,-0.00003197,-0.00075058,0.00000648,0.00275841,0.00
 155112,-0.00682214,-0.00062099,-0.00038870,-0.00014942,0.00190289,0.00
 131523,-0.00003454,-0.00025733,-0.00021658,0.00002800,-0.01552159,-0.0
 0190329,-0.00780398,-0.05894905,-0.00567395,-0.14216628,-0.00194226,0.
 00248625,0.02081937,0.00678789,-0.00239229,-0.00057181,0.00152607,0.00
 036673,-0.00028473,0.00223236,-0.00213430,-0.00075983,0.01256933,-0.02
 386953,0.16238269,-0.02061587,0.01698063,-0.04072535,0.01860888,-0.009
 24649,-0.00102982,-0.00068565,0.00137481,-0.00120234,-0.00109425,0.002
 82804,0.00197752,-0.00073590,0.00778855,0.00100830,0.00124792,-0.00250
 471,0.00307378,0.00111878,0.00043392,0.00058377,-0.00095844,-0.0002673
 6,0.00011216,-0.00031300,0.00005097,-0.00033619,-0.00467529,0.02333574
 ,0.00471212,-0.03215853,0.01412820,-0.02433748,-0.02354227,-0.00003236
 ,0.00820367,0.00094522,-0.00098743,0.00042100,0.00303215,0.00015981,-0
 .00160960,0.00269794,-0.00212804,-0.00080494,0.03770708,0.01146425,0.0
 1327006,0.04104773,-0.00423288,0.02824577,-0.02966593,-0.00416408,-0.0
 2298578,0.00089455,-0.00082316,0.00020903,-0.00015979,-0.00105295,0.00
 193851,0.00095447,0.00104039,0.00247830,-0.00000389,0.00270508,-0.0041
 6592,0.00446683,0.00150879,0.00087909,0.00085743,-0.00112830,-0.000305
 52,0.00002694,-0.00046413,-0.00013470,-0.00039524,0.04636655,-0.014615
 82,0.00812329,0.00233085,-0.06150247,0.01340738,-0.00586181,0.02018295
 ,-0.01175469,0.00069643,-0.00013853,0.00085392,0.00738966,-0.00222225,
 -0.00209111,0.00266156,-0.00163790,-0.00173114,0.01925473,0.00404250,0
 .02272566,-0.04971881,0.06384270,-0.01549142,-0.01493762,0.01964566,-0
 .00719064,0.00207951,0.00034049,0.00047629,0.00071344,0.00052874,-0.00
 021220,-0.00177359,-0.00088250,0.00035720,-0.00237584,-0.00039326,-0.0
 0137587,0.00332454,-0.00343950,-0.00110318,-0.00077140,-0.00044543,0.0
 0070302,0.00029707,0.00004660,0.00021645,-0.00011596,0.00017890,-0.009
 99788,-0.00232840,-0.03366378,-0.00359478,0.01072139,-0.03887260,0.008
 62226,-0.00652980,-0.00089157,-0.00164676,-0.00002218,0.00017165,-0.00
 301476,0.00034737,0.00116216,-0.00052033,0.00135346,0.00014792,-0.0032
 5537,0.01976102,-0.03102492,0.02318964,-0.01379853,0.09416865,-0.02742
 740,-0.00745774,-0.00026728,-0.00233724,-0.00118325,-0.00271316,-0.000
 25604,0.00111191,0.00021388,-0.00007546,0.00005099,0.00033177,0.000109
 91,0.00040694,-0.00018670,0.00360992,-0.01105023,-0.00633709,0.0006995
 4,-0.00044069,0.00070914,0.00062310,0.00032645,-0.00075187,-0.00085211
 ,-0.00221352,-0.00097413,-0.00744834,0.02603084,-0.00072027,-0.0025453
 0,0.00038850,-0.00062310,0.00087951,0.00005659,-0.00008045,-0.00009210
 ,0.00003118,-0.00007087,-0.00004898,-0.00007172,0.00004977,-0.00028368
 ,0.00007098,0.00007370,0.00213278,0.00097889,0.00224140,-0.00018382,0.
 00042336,0.00025404,0.04226545,-0.02163371,-0.04183178,0.00366266,0.00
 426929,0.00184825,0.00346111,0.00054976,-0.00164750,-0.00020611,-0.000
 21217,0.00021044,-0.00030851,-0.00030520,0.00017650,-0.00008722,0.0078
 9950,-0.02592222,-0.01356816,0.00033996,0.00007791,-0.00031469,0.00021
 819,-0.00100439,-0.00041263,-0.00399708,-0.00196960,-0.00116483,0.0158
 7844,-0.03507744,0.00166801,0.00513686,0.00195895,0.00352689,-0.000339
 04,0.00007809,0.00043283,0.00029569,-0.00011661,-0.00001057,0.00009687
 ,-0.00000234,-0.00010230,-0.00029615,0.00015230,0.00007591,-0.00753729
 ,-0.00242542,-0.00623540,-0.00142947,-0.00316264,-0.00047361,-0.024890
 97,0.10547019,-0.01188502,-0.00524378,-0.02633979,-0.00106193,0.000946
 86,0.00024091,0.00004129,0.00002082,0.00002128,-0.00041361,0.00096916,
 -0.00001910,0.00004588,0.00002657,-0.00006771,0.00372308,-0.01405706,-
 0.00365659,0.00087634,-0.00059070,-0.00005114,-0.00082423,-0.00065429,
 0.00073604,-0.00179196,-0.00114138,0.00064441,-0.00265553,0.00644420,0
 .00785854,0.00336704,0.00023753,0.00396719,-0.00036662,-0.00009329,0.0
 0046494,0.00025453,-0.00003995,0.00005327,-0.00002112,-0.00001434,-0.0
 0004849,-0.00020364,0.00016967,-0.00008974,-0.00701257,-0.00177487,-0.
 00598070,0.00118918,-0.00100551,-0.00172454,-0.01560670,0.03948024,0.0
 5700221,-0.24346341,-0.06668745,0.13924982,0.00105135,0.00214497,0.002
 79312,0.00065412,-0.00167029,-0.00044037,-0.00006398,-0.00195450,-0.00
 098542,0.00013354,0.00066225,-0.00093856,-0.02561537,-0.01415950,0.039
 54674,0.00239209,0.00138063,0.00150276,-0.00691162,-0.00588675,-0.0013
 3344,0.00109796,-0.00025761,0.00031872,0.03551332,0.00256971,0.0028800
 4,-0.05272089,-0.00405340,-0.06222100,0.00893241,-0.00325914,-0.008344
 43,-0.00358374,0.00120291,0.00040214,-0.00029005,-0.00009665,0.0004640
 4,0.00006380,0.00074632,0.00130705,0.03606631,0.01639370,0.03298311,-0
 .02144270,-0.01693130,0.01358426,-0.00876974,0.02595651,0.03234560,0.2
 7695659,-0.05705477,-0.10311512,0.03944766,-0.00096958,0.00400374,0.00
 032903,0.00016773,-0.00058105,0.00020256,-0.00054597,0.00078173,-0.000
 44019,-0.00016331,0.00005707,0.00026454,-0.02019667,0.00116305,0.02146
 156,-0.00111927,0.00000548,-0.00005240,-0.00532082,-0.00161100,-0.0002
 9554,0.00206157,0.00271450,0.00150010,0.00895249,-0.00120554,0.0350216
 9,-0.01931918,0.01145570,-0.02014838,0.00210096,-0.00108242,-0.0049568
 9,-0.00188151,0.00061735,0.00036664,0.00014627,-0.00001136,0.00019015,
 -0.00067033,0.00050192,0.00047279,0.02471160,-0.01424018,0.01185205,-0
 .01223028,-0.01094732,0.00452917,0.01743150,0.00318733,-0.02367987,0.0
 6389957,0.10830613,0.18943526,0.06858615,-0.29176241,0.00161514,-0.010
 95062,-0.00658854,-0.00087781,0.00286236,0.00094471,-0.00108893,0.0023
 3472,0.00183275,-0.00000932,0.00136879,0.00014730,0.01048576,0.0047784
 6,0.00123265,0.00137032,-0.00024538,0.00002565,-0.00074667,-0.00045923
 ,0.00172313,-0.00051518,0.00136781,0.00013527,-0.01372721,0.02944292,-
 0.05675491,-0.02375600,-0.00821018,0.00484770,0.00073057,-0.00216123,-
 0.00289105,-0.00074482,0.00055584,0.00042563,-0.00095582,-0.00010927,0
 .00000052,-0.00055613,0.00090647,-0.00018146,-0.00430745,-0.00287470,-
 0.03413900,0.01230453,0.00829537,-0.00505266,0.02445793,-0.02942361,-0
 .03301099,-0.19311418,-0.06606465,0.41906573||0.00000159,0.00000282,-0
 .00000310,-0.00000671,0.00000135,0.00000374,-0.00000793,0.00000020,0.0
 0000454,-0.00000460,-0.00000148,0.00000362,-0.00000817,0.00000444,0.00
 000240,-0.00000032,0.00000658,-0.00000289,0.00000265,0.00000747,-0.000
 00600,-0.00000289,0.00001031,-0.00000387,-0.00000217,0.00000454,-0.000
 00095,-0.00000319,0.00000077,0.00000014,0.00000124,-0.00000027,-0.0000
 0854,0.00000297,-0.00000810,0.00000287,0.00000093,-0.00000847,0.000004
 03,0.00000627,-0.00001117,0.00000234,0.00000078,-0.00000930,0.00000452
 ,0.00000980,-0.00000510,0.00000347,-0.00000114,-0.00000313,0.00000104,
 0.00000491,0.00000648,-0.00000634,0.00000599,0.00000207,-0.00000102|||
 @


 THE ONLY EXISTING THINGS ARE ATOMS AND EMPTY SPACE;
 ALL ELSE IS MERE OPINION. -- DEMOCRITUS OF ABDERA D. 370 B.C.
 EXPERIMENTS ARE THE ONLY MEANS OF KNOWLEDGE AT OUR DISPOSAL
 THE REST IS POETRY, IMAGINATION. -- MAX PLANCK
 Job cpu time:  0 days  0 hours 56 minutes  2.0 seconds.
 File lengths (MBytes):  RWF=     72 Int=      0 D2E=      0 Chk=      3 Scr=      1
 Normal termination of Gaussian 09 at Mon Feb 23 10:42:00 2015.
