 Entering Gaussian System, Link 0=g09
 Initial command:
 /opt/gridware/applications/gaussian/g09/l1.exe "/lustre/SCRATCH5/gau/mlawal/854269.sched01/Gau-19199.inp" -scrdir="/lustre/SCRATCH5/gau/mlawal/854269.sched01/"
 Entering Link 1 = /opt/gridware/applications/gaussian/g09/l1.exe PID=     19200.
  
 Copyright (c) 1988,1990,1992,1993,1995,1998,2003,2009,2013,
            Gaussian, Inc.  All Rights Reserved.
  
 This is part of the Gaussian(R) 09 program.  It is based on
 the Gaussian(R) 03 system (copyright 2003, Gaussian, Inc.),
 the Gaussian(R) 98 system (copyright 1998, Gaussian, Inc.),
 the Gaussian(R) 94 system (copyright 1995, Gaussian, Inc.),
 the Gaussian 92(TM) system (copyright 1992, Gaussian, Inc.),
 the Gaussian 90(TM) system (copyright 1990, Gaussian, Inc.),
 the Gaussian 88(TM) system (copyright 1988, Gaussian, Inc.),
 the Gaussian 86(TM) system (copyright 1986, Carnegie Mellon
 University), and the Gaussian 82(TM) system (copyright 1983,
 Carnegie Mellon University). Gaussian is a federally registered
 trademark of Gaussian, Inc.
  
 This software contains proprietary and confidential information,
 including trade secrets, belonging to Gaussian, Inc.
  
 This software is provided under written license and may be
 used, copied, transmitted, or stored only in accord with that
 written license.
  
 The following legend is applicable only to US Government
 contracts under FAR:
  
                    RESTRICTED RIGHTS LEGEND
  
 Use, reproduction and disclosure by the US Government is
 subject to restrictions as set forth in subparagraphs (a)
 and (c) of the Commercial Computer Software - Restricted
 Rights clause in FAR 52.227-19.
  
 Gaussian, Inc.
 340 Quinnipiac St., Bldg. 40, Wallingford CT 06492
  
  
 ---------------------------------------------------------------
 Warning -- This program may not be used in any manner that
 competes with the business of Gaussian, Inc. or will provide
 assistance to any competitor of Gaussian, Inc.  The licensee
 of this program is prohibited from giving any competitor of
 Gaussian, Inc. access to this program.  By using this program,
 the user acknowledges that Gaussian, Inc. is engaged in the
 business of creating and licensing software in the field of
 computational chemistry and represents and warrants to the
 licensee that it is not a competitor of Gaussian, Inc. and that
 it will not use this program in any manner prohibited above.
 ---------------------------------------------------------------
  

 Cite this work as:
 Gaussian 09, Revision D.01,
 M. J. Frisch, G. W. Trucks, H. B. Schlegel, G. E. Scuseria, 
 M. A. Robb, J. R. Cheeseman, G. Scalmani, V. Barone, B. Mennucci, 
 G. A. Petersson, H. Nakatsuji, M. Caricato, X. Li, H. P. Hratchian, 
 A. F. Izmaylov, J. Bloino, G. Zheng, J. L. Sonnenberg, M. Hada, 
 M. Ehara, K. Toyota, R. Fukuda, J. Hasegawa, M. Ishida, T. Nakajima, 
 Y. Honda, O. Kitao, H. Nakai, T. Vreven, J. A. Montgomery, Jr., 
 J. E. Peralta, F. Ogliaro, M. Bearpark, J. J. Heyd, E. Brothers, 
 K. N. Kudin, V. N. Staroverov, T. Keith, R. Kobayashi, J. Normand, 
 K. Raghavachari, A. Rendell, J. C. Burant, S. S. Iyengar, J. Tomasi, 
 M. Cossi, N. Rega, J. M. Millam, M. Klene, J. E. Knox, J. B. Cross, 
 V. Bakken, C. Adamo, J. Jaramillo, R. Gomperts, R. E. Stratmann, 
 O. Yazyev, A. J. Austin, R. Cammi, C. Pomelli, J. W. Ochterski, 
 R. L. Martin, K. Morokuma, V. G. Zakrzewski, G. A. Voth, 
 P. Salvador, J. J. Dannenberg, S. Dapprich, A. D. Daniels, 
 O. Farkas, J. B. Foresman, J. V. Ortiz, J. Cioslowski, 
 and D. J. Fox, Gaussian, Inc., Wallingford CT, 2013.
 
 ******************************************
 Gaussian 09:  EM64L-G09RevD.01 24-Apr-2013
                27-Mar-2015 
 ******************************************
 %nprocshared=8
 Will use up to    8 processors via shared memory.
 %nprocl=1
 Will use up to    1 processors via Linda.
 ----------------------------------------------------------------------
 # opt=(calcfc,ts,noeigentest) freq=noraman b3lyp/genecp geom=connectiv
 ity gfinput pseudo=read
 ----------------------------------------------------------------------
 1/5=1,10=4,11=1,14=-1,18=20,26=3,38=1,57=2/1,3;
 2/9=110,12=2,17=6,18=5,40=1/2;
 3/5=7,11=2,16=1,17=8,24=10,25=1,30=1,71=2,74=-5,140=1/1,2,3;
 4//1;
 5/5=2,38=5/2;
 8/6=4,10=90,11=11/1;
 11/6=1,8=1,9=11,15=111,16=1/1,2,10;
 10/6=1,13=1/2;
 6/7=2,8=2,9=2,10=2,28=1/1;
 7/10=1,18=20,25=1/1,2,3,16;
 1/5=1,10=4,11=1,14=-1,18=20,26=3/3(2);
 2/9=110/2;
 99//99;
 2/9=110/2;
 3/5=7,6=1,11=2,16=1,17=8,25=1,30=1,71=1,74=-5,82=7/1,2,3;
 4/5=5,16=3,69=1/1;
 5/5=2,38=5/2;
 7//1,2,3,16;
 1/5=1,11=1,14=-1,18=20,26=3/3(-5);
 2/9=110/2;
 6/7=2,8=2,9=2,10=2,19=2,28=1/1;
 99/9=1/99;
 --------------------------------------------------
 gen calculation ts624cl-C H O=aug-ccpvtz/Cl=dgdzvp
 --------------------------------------------------
 Symbolic Z-matrix:
 Charge =  0 Multiplicity = 1
 C                     0.88456   0.11663   0.41891 
 C                    -0.39856   2.08642  -0.60959 
 H                    -1.16612   2.27151  -1.36713 
 H                    -0.77958   2.23626   0.40602 
 H                     0.47888   2.71442  -0.79914 
 C                     2.12077   0.93679   0.59068 
 H                     2.88275   0.36133   1.14581 
 H                     2.57087   1.21375  -0.37438 
 H                     1.92442   1.84967   1.16978 
 O                     0.01831   0.71086  -0.79507 
 O                    -1.76363  -0.8697   -0.10176 
 C                    -3.04071  -0.26804   0.23386 
 H                    -3.56304  -0.12891  -0.71933 
 H                    -3.57601  -0.99358   0.85919 
 H                    -2.90073   0.67793   0.76431 
 H                    -1.12805  -0.88883   0.81811 
 H                    -1.03451  -0.03214  -0.7197 
 Cl                    1.32383  -1.44391  -0.5023 
 O                     0.04404  -0.08688   1.34089 
 
 Add virtual bond connecting atoms H16        and O11        Dist= 2.11D+00.
 Add virtual bond connecting atoms H17        and O11        Dist= 2.40D+00.
 Add virtual bond connecting atoms H17        and O10        Dist= 2.44D+00.
 Add virtual bond connecting atoms C1         and O10        Dist= 3.03D+00.
 Add virtual bond connecting atoms O19        and H16        Dist= 2.86D+00.

 GradGradGradGradGradGradGradGradGradGradGradGradGradGradGradGradGradGrad
 Berny optimization.
 Initialization pass.
                           ----------------------------
                           !    Initial Parameters    !
                           ! (Angstroms and Degrees)  !
 --------------------------                            --------------------------
 ! Name  Definition              Value          Derivative Info.                !
 --------------------------------------------------------------------------------
 ! R1    R(1,6)                  1.4934         calculate D2E/DX2 analytically  !
 ! R2    R(1,10)                 1.6054         calculate D2E/DX2 analytically  !
 ! R3    R(1,18)                 1.8646         calculate D2E/DX2 analytically  !
 ! R4    R(1,19)                 1.2641         calculate D2E/DX2 analytically  !
 ! R5    R(2,3)                  1.0942         calculate D2E/DX2 analytically  !
 ! R6    R(2,4)                  1.095          calculate D2E/DX2 analytically  !
 ! R7    R(2,5)                  1.0955         calculate D2E/DX2 analytically  !
 ! R8    R(2,10)                 1.4493         calculate D2E/DX2 analytically  !
 ! R9    R(6,7)                  1.1045         calculate D2E/DX2 analytically  !
 ! R10   R(6,8)                  1.1003         calculate D2E/DX2 analytically  !
 ! R11   R(6,9)                  1.0988         calculate D2E/DX2 analytically  !
 ! R12   R(10,17)                1.2908         calculate D2E/DX2 analytically  !
 ! R13   R(11,12)                1.4511         calculate D2E/DX2 analytically  !
 ! R14   R(11,16)                1.1182         calculate D2E/DX2 analytically  !
 ! R15   R(11,17)                1.2708         calculate D2E/DX2 analytically  !
 ! R16   R(12,13)                1.0958         calculate D2E/DX2 analytically  !
 ! R17   R(12,14)                1.0973         calculate D2E/DX2 analytically  !
 ! R18   R(12,15)                1.0935         calculate D2E/DX2 analytically  !
 ! R19   R(16,19)                1.5133         calculate D2E/DX2 analytically  !
 ! A1    A(6,1,10)             109.29           calculate D2E/DX2 analytically  !
 ! A2    A(6,1,18)             108.7494         calculate D2E/DX2 analytically  !
 ! A3    A(6,1,19)             123.7047         calculate D2E/DX2 analytically  !
 ! A4    A(10,1,18)             93.6298         calculate D2E/DX2 analytically  !
 ! A5    A(10,1,19)            104.6163         calculate D2E/DX2 analytically  !
 ! A6    A(18,1,19)            112.4725         calculate D2E/DX2 analytically  !
 ! A7    A(3,2,4)              112.0175         calculate D2E/DX2 analytically  !
 ! A8    A(3,2,5)              110.1863         calculate D2E/DX2 analytically  !
 ! A9    A(3,2,10)             105.8855         calculate D2E/DX2 analytically  !
 ! A10   A(4,2,5)              111.1443         calculate D2E/DX2 analytically  !
 ! A11   A(4,2,10)             110.4062         calculate D2E/DX2 analytically  !
 ! A12   A(5,2,10)             106.9508         calculate D2E/DX2 analytically  !
 ! A13   A(1,6,7)              110.0441         calculate D2E/DX2 analytically  !
 ! A14   A(1,6,8)              112.0838         calculate D2E/DX2 analytically  !
 ! A15   A(1,6,9)              111.652          calculate D2E/DX2 analytically  !
 ! A16   A(7,6,8)              106.8439         calculate D2E/DX2 analytically  !
 ! A17   A(7,6,9)              106.9335         calculate D2E/DX2 analytically  !
 ! A18   A(8,6,9)              109.0408         calculate D2E/DX2 analytically  !
 ! A19   A(1,10,2)             114.1896         calculate D2E/DX2 analytically  !
 ! A20   A(1,10,17)            100.5379         calculate D2E/DX2 analytically  !
 ! A21   A(2,10,17)            107.7134         calculate D2E/DX2 analytically  !
 ! A22   A(12,11,16)           108.4848         calculate D2E/DX2 analytically  !
 ! A23   A(12,11,17)           110.1294         calculate D2E/DX2 analytically  !
 ! A24   A(16,11,17)            94.8855         calculate D2E/DX2 analytically  !
 ! A25   A(11,12,13)           105.722          calculate D2E/DX2 analytically  !
 ! A26   A(11,12,14)           106.6785         calculate D2E/DX2 analytically  !
 ! A27   A(11,12,15)           110.9905         calculate D2E/DX2 analytically  !
 ! A28   A(13,12,14)           110.3134         calculate D2E/DX2 analytically  !
 ! A29   A(13,12,15)           111.9091         calculate D2E/DX2 analytically  !
 ! A30   A(14,12,15)           110.9771         calculate D2E/DX2 analytically  !
 ! A31   A(11,16,19)           135.6682         calculate D2E/DX2 analytically  !
 ! A32   A(10,17,11)           151.1314         calculate D2E/DX2 analytically  !
 ! A33   A(1,19,16)            110.3856         calculate D2E/DX2 analytically  !
 ! D1    D(10,1,6,7)          -159.762          calculate D2E/DX2 analytically  !
 ! D2    D(10,1,6,8)           -41.0181         calculate D2E/DX2 analytically  !
 ! D3    D(10,1,6,9)            81.6562         calculate D2E/DX2 analytically  !
 ! D4    D(18,1,6,7)           -58.8302         calculate D2E/DX2 analytically  !
 ! D5    D(18,1,6,8)            59.9137         calculate D2E/DX2 analytically  !
 ! D6    D(18,1,6,9)          -177.412          calculate D2E/DX2 analytically  !
 ! D7    D(19,1,6,7)            76.5385         calculate D2E/DX2 analytically  !
 ! D8    D(19,1,6,8)          -164.7176         calculate D2E/DX2 analytically  !
 ! D9    D(19,1,6,9)           -42.0433         calculate D2E/DX2 analytically  !
 ! D10   D(6,1,10,2)           -59.7896         calculate D2E/DX2 analytically  !
 ! D11   D(6,1,10,17)         -174.8027         calculate D2E/DX2 analytically  !
 ! D12   D(18,1,10,2)         -171.101          calculate D2E/DX2 analytically  !
 ! D13   D(18,1,10,17)          73.8859         calculate D2E/DX2 analytically  !
 ! D14   D(19,1,10,2)           74.5458         calculate D2E/DX2 analytically  !
 ! D15   D(19,1,10,17)         -40.4674         calculate D2E/DX2 analytically  !
 ! D16   D(6,1,19,16)          176.7496         calculate D2E/DX2 analytically  !
 ! D17   D(10,1,19,16)          50.9937         calculate D2E/DX2 analytically  !
 ! D18   D(18,1,19,16)         -49.2991         calculate D2E/DX2 analytically  !
 ! D19   D(3,2,10,1)          -166.3283         calculate D2E/DX2 analytically  !
 ! D20   D(3,2,10,17)          -55.5997         calculate D2E/DX2 analytically  !
 ! D21   D(4,2,10,1)           -44.879          calculate D2E/DX2 analytically  !
 ! D22   D(4,2,10,17)           65.8496         calculate D2E/DX2 analytically  !
 ! D23   D(5,2,10,1)            76.1679         calculate D2E/DX2 analytically  !
 ! D24   D(5,2,10,17)         -173.1035         calculate D2E/DX2 analytically  !
 ! D25   D(1,10,17,11)          13.1394         calculate D2E/DX2 analytically  !
 ! D26   D(2,10,17,11)        -106.6587         calculate D2E/DX2 analytically  !
 ! D27   D(16,11,12,13)        171.4295         calculate D2E/DX2 analytically  !
 ! D28   D(16,11,12,14)        -71.1302         calculate D2E/DX2 analytically  !
 ! D29   D(16,11,12,15)         49.8827         calculate D2E/DX2 analytically  !
 ! D30   D(17,11,12,13)         68.8279         calculate D2E/DX2 analytically  !
 ! D31   D(17,11,12,14)       -173.7318         calculate D2E/DX2 analytically  !
 ! D32   D(17,11,12,15)        -52.7189         calculate D2E/DX2 analytically  !
 ! D33   D(12,11,16,19)       -103.5454         calculate D2E/DX2 analytically  !
 ! D34   D(17,11,16,19)          9.581          calculate D2E/DX2 analytically  !
 ! D35   D(12,11,17,10)        114.9612         calculate D2E/DX2 analytically  !
 ! D36   D(16,11,17,10)          3.2308         calculate D2E/DX2 analytically  !
 ! D37   D(11,16,19,1)         -43.6502         calculate D2E/DX2 analytically  !
 --------------------------------------------------------------------------------
 Trust Radius=3.00D-01 FncErr=1.00D-07 GrdErr=1.00D-06
 Number of steps in this run=     99 maximum allowed number of steps=    114.
 Search for a saddle point of order  1.
 GradGradGradGradGradGradGradGradGradGradGradGradGradGradGradGradGradGrad

                          Input orientation:                          
 ---------------------------------------------------------------------
 Center     Atomic      Atomic             Coordinates (Angstroms)
 Number     Number       Type             X           Y           Z
 ---------------------------------------------------------------------
      1          6           0        0.884558    0.116628    0.418907
      2          6           0       -0.398563    2.086422   -0.609586
      3          1           0       -1.166118    2.271506   -1.367134
      4          1           0       -0.779578    2.236265    0.406015
      5          1           0        0.478877    2.714415   -0.799143
      6          6           0        2.120771    0.936787    0.590683
      7          1           0        2.882752    0.361331    1.145809
      8          1           0        2.570868    1.213746   -0.374381
      9          1           0        1.924419    1.849674    1.169780
     10          8           0        0.018310    0.710864   -0.795072
     11          8           0       -1.763632   -0.869703   -0.101762
     12          6           0       -3.040711   -0.268041    0.233857
     13          1           0       -3.563040   -0.128910   -0.719331
     14          1           0       -3.576005   -0.993577    0.859193
     15          1           0       -2.900725    0.677932    0.764309
     16          1           0       -1.128054   -0.888828    0.818105
     17          1           0       -1.034514   -0.032144   -0.719698
     18         17           0        1.323828   -1.443907   -0.502301
     19          8           0        0.044036   -0.086882    1.340889
 ---------------------------------------------------------------------
                    Distance matrix (angstroms):
                    1          2          3          4          5
     1  C    0.000000
     2  C    2.565986   0.000000
     3  H    3.469685   1.094201   0.000000
     4  H    2.694880   1.095021   1.815134   0.000000
     5  H    2.897709   1.095540   1.795770   1.806860   0.000000
     6  C    1.493449   3.018170   4.051933   3.183515   2.790590
     7  H    2.140338   4.101753   5.133907   4.180351   3.885673
     8  H    2.162548   3.103934   4.008675   3.588879   2.609379
     9  H    2.156054   2.935718   4.020609   2.836263   2.591144
    10  O    1.605381   1.449258   2.041012   2.099067   2.055810
    11  O    2.873474   3.295447   3.438805   3.297459   4.284984
    12  C    3.948411   3.638109   3.539289   3.378448   4.727540
    13  H    4.597500   3.864409   3.453532   3.822057   4.942465
    14  H    4.617687   4.662600   4.628699   4.296191   5.739456
    15  H    3.842230   3.183119   3.176695   2.656321   4.244214
    16  H    2.284931   3.379729   3.842451   3.171350   4.263928
    17  H    2.236379   2.214696   2.396518   2.545172   3.136917
    18  Cl   1.864632   3.929550   4.555443   4.335092   4.253669
    19  O    1.264098   2.953557   3.789440   2.636160   3.551913
                    6          7          8          9         10
     6  C    0.000000
     7  H    1.104504   0.000000
     8  H    1.100292   1.770554   0.000000
     9  H    1.098758   1.770351   1.790736   0.000000
    10  O    2.528181   3.477675   2.635417   2.964925   0.000000
    11  O    4.339524   4.965960   4.816946   4.755371   2.480764
    12  C    5.312234   6.026208   5.835706   5.478429   3.372619
    13  H    5.929381   6.728099   6.288604   6.131537   3.679270
    14  H    6.020935   6.605563   6.646655   6.199613   4.308226
    15  H    5.031160   5.804686   5.614449   4.981907   3.309610
    16  H    3.733558   4.213888   4.418695   4.115903   2.544701
    17  H    3.551302   4.356594   3.830178   3.983296   1.290806
    18  Cl   2.738145   2.899206   2.938468   3.742224   2.536362
    19  O    2.433831   2.880496   3.319437   2.704694   2.280217
                   11         12         13         14         15
    11  O    0.000000
    12  C    1.451058   0.000000
    13  H    2.041577   1.095788   0.000000
    14  H    2.055110   1.097264   1.799876   0.000000
    15  H    2.106712   1.093545   1.814068   1.805256   0.000000
    16  H    1.118249   2.094034   2.978312   2.450536   2.366431
    17  H    1.270812   2.233773   2.530377   3.142678   2.487816
    18  Cl   3.165841   4.579715   5.065353   5.105372   4.894216
    19  O    2.441662   3.282378   4.154187   3.762821   3.096611
                   16         17         18         19
    16  H    0.000000
    17  H    1.762809   0.000000
    18  Cl   2.839597   2.757193   0.000000
    19  O    1.513346   2.326432   2.622353   0.000000
 Stoichiometry    C4H11ClO3
 Framework group  C1[X(C4H11ClO3)]
 Deg. of freedom    51
 Full point group                 C1      NOp   1
 Largest Abelian subgroup         C1      NOp   1
 Largest concise Abelian subgroup C1      NOp   1
                         Standard orientation:                         
 ---------------------------------------------------------------------
 Center     Atomic      Atomic             Coordinates (Angstroms)
 Number     Number       Type             X           Y           Z
 ---------------------------------------------------------------------
      1          6           0        0.884558    0.116628    0.418907
      2          6           0       -0.398563    2.086422   -0.609586
      3          1           0       -1.166118    2.271506   -1.367134
      4          1           0       -0.779578    2.236265    0.406015
      5          1           0        0.478877    2.714415   -0.799143
      6          6           0        2.120771    0.936787    0.590683
      7          1           0        2.882752    0.361331    1.145809
      8          1           0        2.570868    1.213746   -0.374381
      9          1           0        1.924419    1.849674    1.169780
     10          8           0        0.018310    0.710864   -0.795072
     11          8           0       -1.763632   -0.869703   -0.101762
     12          6           0       -3.040711   -0.268041    0.233857
     13          1           0       -3.563040   -0.128910   -0.719331
     14          1           0       -3.576005   -0.993577    0.859193
     15          1           0       -2.900725    0.677932    0.764309
     16          1           0       -1.128054   -0.888828    0.818105
     17          1           0       -1.034514   -0.032144   -0.719698
     18         17           0        1.323828   -1.443907   -0.502301
     19          8           0        0.044036   -0.086882    1.340889
 ---------------------------------------------------------------------
 Rotational constants (GHZ):      2.0335794      1.2248437      0.9612350
 General basis read from cards:  (5D, 7F)
 ======================================================================================================
                                       Pseudopotential Parameters
 ======================================================================================================
  Center     Atomic      Valence      Angular      Power
  Number     Number     Electrons     Momentum     of R      Exponent        Coefficient   SO-Coeffient
 ======================================================================================================
    1          6
                                   No pseudopotential on this center.
    2          6
                                   No pseudopotential on this center.
    3          1
                                   No pseudopotential on this center.
    4          1
                                   No pseudopotential on this center.
    5          1
                                   No pseudopotential on this center.
    6          6
                                   No pseudopotential on this center.
    7          1
                                   No pseudopotential on this center.
    8          1
                                   No pseudopotential on this center.
    9          1
                                   No pseudopotential on this center.
   10          8
                                   No pseudopotential on this center.
   11          8
                                   No pseudopotential on this center.
   12          6
                                   No pseudopotential on this center.
   13          1
                                   No pseudopotential on this center.
   14          1
                                   No pseudopotential on this center.
   15          1
                                   No pseudopotential on this center.
   16          1
                                   No pseudopotential on this center.
   17          1
                                   No pseudopotential on this center.
   18         17
                                   No pseudopotential on this center.
   19          8
                                   No pseudopotential on this center.
 ======================================================================================================
 AO basis set in the form of general basis input (Overlap normalization):
      1 0
 S   7 1.00       0.000000000000
      0.8236000000D+04  0.5419783203D-03
      0.1235000000D+04  0.4192873817D-02
      0.2808000000D+03  0.2152216205D-01
      0.7927000000D+02  0.8353432195D-01
      0.2559000000D+02  0.2395828457D+00
      0.8997000000D+01  0.4428528419D+00
      0.3319000000D+01  0.3517995618D+00
 S   6 1.00       0.000000000000
      0.2808000000D+03 -0.5949224937D-04
      0.7927000000D+02 -0.1148158310D-02
      0.2559000000D+02 -0.1001913745D-01
      0.8997000000D+01 -0.6121949230D-01
      0.3319000000D+01 -0.1732698541D+00
      0.3643000000D+00  0.1072915192D+01
 S   1 1.00       0.000000000000
      0.9059000000D+00  0.1000000000D+01
 S   1 1.00       0.000000000000
      0.1285000000D+00  0.1000000000D+01
 S   1 1.00       0.000000000000
      0.4402000000D-01  0.1000000000D+01
 P   3 1.00       0.000000000000
      0.1871000000D+02  0.3942638716D-01
      0.4133000000D+01  0.2440889849D+00
      0.1200000000D+01  0.8154920089D+00
 P   1 1.00       0.000000000000
      0.3827000000D+00  0.1000000000D+01
 P   1 1.00       0.000000000000
      0.1209000000D+00  0.1000000000D+01
 P   1 1.00       0.000000000000
      0.3569000000D-01  0.1000000000D+01
 D   1 1.00       0.000000000000
      0.1097000000D+01  0.1000000000D+01
 D   1 1.00       0.000000000000
      0.3180000000D+00  0.1000000000D+01
 D   1 1.00       0.000000000000
      0.1000000000D+00  0.1000000000D+01
 F   1 1.00       0.000000000000
      0.7610000000D+00  0.1000000000D+01
 F   1 1.00       0.000000000000
      0.2680000000D+00  0.1000000000D+01
 ****
      2 0
 S   7 1.00       0.000000000000
      0.8236000000D+04  0.5419783203D-03
      0.1235000000D+04  0.4192873817D-02
      0.2808000000D+03  0.2152216205D-01
      0.7927000000D+02  0.8353432195D-01
      0.2559000000D+02  0.2395828457D+00
      0.8997000000D+01  0.4428528419D+00
      0.3319000000D+01  0.3517995618D+00
 S   6 1.00       0.000000000000
      0.2808000000D+03 -0.5949224937D-04
      0.7927000000D+02 -0.1148158310D-02
      0.2559000000D+02 -0.1001913745D-01
      0.8997000000D+01 -0.6121949230D-01
      0.3319000000D+01 -0.1732698541D+00
      0.3643000000D+00  0.1072915192D+01
 S   1 1.00       0.000000000000
      0.9059000000D+00  0.1000000000D+01
 S   1 1.00       0.000000000000
      0.1285000000D+00  0.1000000000D+01
 S   1 1.00       0.000000000000
      0.4402000000D-01  0.1000000000D+01
 P   3 1.00       0.000000000000
      0.1871000000D+02  0.3942638716D-01
      0.4133000000D+01  0.2440889849D+00
      0.1200000000D+01  0.8154920089D+00
 P   1 1.00       0.000000000000
      0.3827000000D+00  0.1000000000D+01
 P   1 1.00       0.000000000000
      0.1209000000D+00  0.1000000000D+01
 P   1 1.00       0.000000000000
      0.3569000000D-01  0.1000000000D+01
 D   1 1.00       0.000000000000
      0.1097000000D+01  0.1000000000D+01
 D   1 1.00       0.000000000000
      0.3180000000D+00  0.1000000000D+01
 D   1 1.00       0.000000000000
      0.1000000000D+00  0.1000000000D+01
 F   1 1.00       0.000000000000
      0.7610000000D+00  0.1000000000D+01
 F   1 1.00       0.000000000000
      0.2680000000D+00  0.1000000000D+01
 ****
      3 0
 S   3 1.00       0.000000000000
      0.3387000000D+02  0.2549486323D-01
      0.5095000000D+01  0.1903627659D+00
      0.1159000000D+01  0.8521620222D+00
 S   1 1.00       0.000000000000
      0.3258000000D+00  0.1000000000D+01
 S   1 1.00       0.000000000000
      0.1027000000D+00  0.1000000000D+01
 S   1 1.00       0.000000000000
      0.2526000000D-01  0.1000000000D+01
 P   1 1.00       0.000000000000
      0.1407000000D+01  0.1000000000D+01
 P   1 1.00       0.000000000000
      0.3880000000D+00  0.1000000000D+01
 P   1 1.00       0.000000000000
      0.1020000000D+00  0.1000000000D+01
 D   1 1.00       0.000000000000
      0.1057000000D+01  0.1000000000D+01
 D   1 1.00       0.000000000000
      0.2470000000D+00  0.1000000000D+01
 ****
      4 0
 S   3 1.00       0.000000000000
      0.3387000000D+02  0.2549486323D-01
      0.5095000000D+01  0.1903627659D+00
      0.1159000000D+01  0.8521620222D+00
 S   1 1.00       0.000000000000
      0.3258000000D+00  0.1000000000D+01
 S   1 1.00       0.000000000000
      0.1027000000D+00  0.1000000000D+01
 S   1 1.00       0.000000000000
      0.2526000000D-01  0.1000000000D+01
 P   1 1.00       0.000000000000
      0.1407000000D+01  0.1000000000D+01
 P   1 1.00       0.000000000000
      0.3880000000D+00  0.1000000000D+01
 P   1 1.00       0.000000000000
      0.1020000000D+00  0.1000000000D+01
 D   1 1.00       0.000000000000
      0.1057000000D+01  0.1000000000D+01
 D   1 1.00       0.000000000000
      0.2470000000D+00  0.1000000000D+01
 ****
      5 0
 S   3 1.00       0.000000000000
      0.3387000000D+02  0.2549486323D-01
      0.5095000000D+01  0.1903627659D+00
      0.1159000000D+01  0.8521620222D+00
 S   1 1.00       0.000000000000
      0.3258000000D+00  0.1000000000D+01
 S   1 1.00       0.000000000000
      0.1027000000D+00  0.1000000000D+01
 S   1 1.00       0.000000000000
      0.2526000000D-01  0.1000000000D+01
 P   1 1.00       0.000000000000
      0.1407000000D+01  0.1000000000D+01
 P   1 1.00       0.000000000000
      0.3880000000D+00  0.1000000000D+01
 P   1 1.00       0.000000000000
      0.1020000000D+00  0.1000000000D+01
 D   1 1.00       0.000000000000
      0.1057000000D+01  0.1000000000D+01
 D   1 1.00       0.000000000000
      0.2470000000D+00  0.1000000000D+01
 ****
      6 0
 S   7 1.00       0.000000000000
      0.8236000000D+04  0.5419783203D-03
      0.1235000000D+04  0.4192873817D-02
      0.2808000000D+03  0.2152216205D-01
      0.7927000000D+02  0.8353432195D-01
      0.2559000000D+02  0.2395828457D+00
      0.8997000000D+01  0.4428528419D+00
      0.3319000000D+01  0.3517995618D+00
 S   6 1.00       0.000000000000
      0.2808000000D+03 -0.5949224937D-04
      0.7927000000D+02 -0.1148158310D-02
      0.2559000000D+02 -0.1001913745D-01
      0.8997000000D+01 -0.6121949230D-01
      0.3319000000D+01 -0.1732698541D+00
      0.3643000000D+00  0.1072915192D+01
 S   1 1.00       0.000000000000
      0.9059000000D+00  0.1000000000D+01
 S   1 1.00       0.000000000000
      0.1285000000D+00  0.1000000000D+01
 S   1 1.00       0.000000000000
      0.4402000000D-01  0.1000000000D+01
 P   3 1.00       0.000000000000
      0.1871000000D+02  0.3942638716D-01
      0.4133000000D+01  0.2440889849D+00
      0.1200000000D+01  0.8154920089D+00
 P   1 1.00       0.000000000000
      0.3827000000D+00  0.1000000000D+01
 P   1 1.00       0.000000000000
      0.1209000000D+00  0.1000000000D+01
 P   1 1.00       0.000000000000
      0.3569000000D-01  0.1000000000D+01
 D   1 1.00       0.000000000000
      0.1097000000D+01  0.1000000000D+01
 D   1 1.00       0.000000000000
      0.3180000000D+00  0.1000000000D+01
 D   1 1.00       0.000000000000
      0.1000000000D+00  0.1000000000D+01
 F   1 1.00       0.000000000000
      0.7610000000D+00  0.1000000000D+01
 F   1 1.00       0.000000000000
      0.2680000000D+00  0.1000000000D+01
 ****
      7 0
 S   3 1.00       0.000000000000
      0.3387000000D+02  0.2549486323D-01
      0.5095000000D+01  0.1903627659D+00
      0.1159000000D+01  0.8521620222D+00
 S   1 1.00       0.000000000000
      0.3258000000D+00  0.1000000000D+01
 S   1 1.00       0.000000000000
      0.1027000000D+00  0.1000000000D+01
 S   1 1.00       0.000000000000
      0.2526000000D-01  0.1000000000D+01
 P   1 1.00       0.000000000000
      0.1407000000D+01  0.1000000000D+01
 P   1 1.00       0.000000000000
      0.3880000000D+00  0.1000000000D+01
 P   1 1.00       0.000000000000
      0.1020000000D+00  0.1000000000D+01
 D   1 1.00       0.000000000000
      0.1057000000D+01  0.1000000000D+01
 D   1 1.00       0.000000000000
      0.2470000000D+00  0.1000000000D+01
 ****
      8 0
 S   3 1.00       0.000000000000
      0.3387000000D+02  0.2549486323D-01
      0.5095000000D+01  0.1903627659D+00
      0.1159000000D+01  0.8521620222D+00
 S   1 1.00       0.000000000000
      0.3258000000D+00  0.1000000000D+01
 S   1 1.00       0.000000000000
      0.1027000000D+00  0.1000000000D+01
 S   1 1.00       0.000000000000
      0.2526000000D-01  0.1000000000D+01
 P   1 1.00       0.000000000000
      0.1407000000D+01  0.1000000000D+01
 P   1 1.00       0.000000000000
      0.3880000000D+00  0.1000000000D+01
 P   1 1.00       0.000000000000
      0.1020000000D+00  0.1000000000D+01
 D   1 1.00       0.000000000000
      0.1057000000D+01  0.1000000000D+01
 D   1 1.00       0.000000000000
      0.2470000000D+00  0.1000000000D+01
 ****
      9 0
 S   3 1.00       0.000000000000
      0.3387000000D+02  0.2549486323D-01
      0.5095000000D+01  0.1903627659D+00
      0.1159000000D+01  0.8521620222D+00
 S   1 1.00       0.000000000000
      0.3258000000D+00  0.1000000000D+01
 S   1 1.00       0.000000000000
      0.1027000000D+00  0.1000000000D+01
 S   1 1.00       0.000000000000
      0.2526000000D-01  0.1000000000D+01
 P   1 1.00       0.000000000000
      0.1407000000D+01  0.1000000000D+01
 P   1 1.00       0.000000000000
      0.3880000000D+00  0.1000000000D+01
 P   1 1.00       0.000000000000
      0.1020000000D+00  0.1000000000D+01
 D   1 1.00       0.000000000000
      0.1057000000D+01  0.1000000000D+01
 D   1 1.00       0.000000000000
      0.2470000000D+00  0.1000000000D+01
 ****
     10 0
 S   7 1.00       0.000000000000
      0.1533000000D+05  0.5198089434D-03
      0.2299000000D+04  0.4020256215D-02
      0.5224000000D+03  0.2071282673D-01
      0.1473000000D+03  0.8101055358D-01
      0.4755000000D+02  0.2359629851D+00
      0.1676000000D+02  0.4426534455D+00
      0.6207000000D+01  0.3570644227D+00
 S   6 1.00       0.000000000000
      0.5224000000D+03 -0.4421150084D-04
      0.1473000000D+03 -0.1225910413D-02
      0.4755000000D+02 -0.1055177248D-01
      0.1676000000D+02 -0.6744526326D-01
      0.6207000000D+01 -0.1711986073D+00
      0.6882000000D+00  0.1073298561D+01
 S   1 1.00       0.000000000000
      0.1752000000D+01  0.1000000000D+01
 S   1 1.00       0.000000000000
      0.2384000000D+00  0.1000000000D+01
 S   1 1.00       0.000000000000
      0.7376000000D-01  0.1000000000D+01
 P   3 1.00       0.000000000000
      0.3446000000D+02  0.4116348957D-01
      0.7749000000D+01  0.2577628359D+00
      0.2280000000D+01  0.8024192744D+00
 P   1 1.00       0.000000000000
      0.7156000000D+00  0.1000000000D+01
 P   1 1.00       0.000000000000
      0.2140000000D+00  0.1000000000D+01
 P   1 1.00       0.000000000000
      0.5974000000D-01  0.1000000000D+01
 D   1 1.00       0.000000000000
      0.2314000000D+01  0.1000000000D+01
 D   1 1.00       0.000000000000
      0.6450000000D+00  0.1000000000D+01
 D   1 1.00       0.000000000000
      0.2140000000D+00  0.1000000000D+01
 F   1 1.00       0.000000000000
      0.1428000000D+01  0.1000000000D+01
 F   1 1.00       0.000000000000
      0.5000000000D+00  0.1000000000D+01
 ****
     11 0
 S   7 1.00       0.000000000000
      0.1533000000D+05  0.5198089434D-03
      0.2299000000D+04  0.4020256215D-02
      0.5224000000D+03  0.2071282673D-01
      0.1473000000D+03  0.8101055358D-01
      0.4755000000D+02  0.2359629851D+00
      0.1676000000D+02  0.4426534455D+00
      0.6207000000D+01  0.3570644227D+00
 S   6 1.00       0.000000000000
      0.5224000000D+03 -0.4421150084D-04
      0.1473000000D+03 -0.1225910413D-02
      0.4755000000D+02 -0.1055177248D-01
      0.1676000000D+02 -0.6744526326D-01
      0.6207000000D+01 -0.1711986073D+00
      0.6882000000D+00  0.1073298561D+01
 S   1 1.00       0.000000000000
      0.1752000000D+01  0.1000000000D+01
 S   1 1.00       0.000000000000
      0.2384000000D+00  0.1000000000D+01
 S   1 1.00       0.000000000000
      0.7376000000D-01  0.1000000000D+01
 P   3 1.00       0.000000000000
      0.3446000000D+02  0.4116348957D-01
      0.7749000000D+01  0.2577628359D+00
      0.2280000000D+01  0.8024192744D+00
 P   1 1.00       0.000000000000
      0.7156000000D+00  0.1000000000D+01
 P   1 1.00       0.000000000000
      0.2140000000D+00  0.1000000000D+01
 P   1 1.00       0.000000000000
      0.5974000000D-01  0.1000000000D+01
 D   1 1.00       0.000000000000
      0.2314000000D+01  0.1000000000D+01
 D   1 1.00       0.000000000000
      0.6450000000D+00  0.1000000000D+01
 D   1 1.00       0.000000000000
      0.2140000000D+00  0.1000000000D+01
 F   1 1.00       0.000000000000
      0.1428000000D+01  0.1000000000D+01
 F   1 1.00       0.000000000000
      0.5000000000D+00  0.1000000000D+01
 ****
     12 0
 S   7 1.00       0.000000000000
      0.8236000000D+04  0.5419783203D-03
      0.1235000000D+04  0.4192873817D-02
      0.2808000000D+03  0.2152216205D-01
      0.7927000000D+02  0.8353432195D-01
      0.2559000000D+02  0.2395828457D+00
      0.8997000000D+01  0.4428528419D+00
      0.3319000000D+01  0.3517995618D+00
 S   6 1.00       0.000000000000
      0.2808000000D+03 -0.5949224937D-04
      0.7927000000D+02 -0.1148158310D-02
      0.2559000000D+02 -0.1001913745D-01
      0.8997000000D+01 -0.6121949230D-01
      0.3319000000D+01 -0.1732698541D+00
      0.3643000000D+00  0.1072915192D+01
 S   1 1.00       0.000000000000
      0.9059000000D+00  0.1000000000D+01
 S   1 1.00       0.000000000000
      0.1285000000D+00  0.1000000000D+01
 S   1 1.00       0.000000000000
      0.4402000000D-01  0.1000000000D+01
 P   3 1.00       0.000000000000
      0.1871000000D+02  0.3942638716D-01
      0.4133000000D+01  0.2440889849D+00
      0.1200000000D+01  0.8154920089D+00
 P   1 1.00       0.000000000000
      0.3827000000D+00  0.1000000000D+01
 P   1 1.00       0.000000000000
      0.1209000000D+00  0.1000000000D+01
 P   1 1.00       0.000000000000
      0.3569000000D-01  0.1000000000D+01
 D   1 1.00       0.000000000000
      0.1097000000D+01  0.1000000000D+01
 D   1 1.00       0.000000000000
      0.3180000000D+00  0.1000000000D+01
 D   1 1.00       0.000000000000
      0.1000000000D+00  0.1000000000D+01
 F   1 1.00       0.000000000000
      0.7610000000D+00  0.1000000000D+01
 F   1 1.00       0.000000000000
      0.2680000000D+00  0.1000000000D+01
 ****
     13 0
 S   3 1.00       0.000000000000
      0.3387000000D+02  0.2549486323D-01
      0.5095000000D+01  0.1903627659D+00
      0.1159000000D+01  0.8521620222D+00
 S   1 1.00       0.000000000000
      0.3258000000D+00  0.1000000000D+01
 S   1 1.00       0.000000000000
      0.1027000000D+00  0.1000000000D+01
 S   1 1.00       0.000000000000
      0.2526000000D-01  0.1000000000D+01
 P   1 1.00       0.000000000000
      0.1407000000D+01  0.1000000000D+01
 P   1 1.00       0.000000000000
      0.3880000000D+00  0.1000000000D+01
 P   1 1.00       0.000000000000
      0.1020000000D+00  0.1000000000D+01
 D   1 1.00       0.000000000000
      0.1057000000D+01  0.1000000000D+01
 D   1 1.00       0.000000000000
      0.2470000000D+00  0.1000000000D+01
 ****
     14 0
 S   3 1.00       0.000000000000
      0.3387000000D+02  0.2549486323D-01
      0.5095000000D+01  0.1903627659D+00
      0.1159000000D+01  0.8521620222D+00
 S   1 1.00       0.000000000000
      0.3258000000D+00  0.1000000000D+01
 S   1 1.00       0.000000000000
      0.1027000000D+00  0.1000000000D+01
 S   1 1.00       0.000000000000
      0.2526000000D-01  0.1000000000D+01
 P   1 1.00       0.000000000000
      0.1407000000D+01  0.1000000000D+01
 P   1 1.00       0.000000000000
      0.3880000000D+00  0.1000000000D+01
 P   1 1.00       0.000000000000
      0.1020000000D+00  0.1000000000D+01
 D   1 1.00       0.000000000000
      0.1057000000D+01  0.1000000000D+01
 D   1 1.00       0.000000000000
      0.2470000000D+00  0.1000000000D+01
 ****
     15 0
 S   3 1.00       0.000000000000
      0.3387000000D+02  0.2549486323D-01
      0.5095000000D+01  0.1903627659D+00
      0.1159000000D+01  0.8521620222D+00
 S   1 1.00       0.000000000000
      0.3258000000D+00  0.1000000000D+01
 S   1 1.00       0.000000000000
      0.1027000000D+00  0.1000000000D+01
 S   1 1.00       0.000000000000
      0.2526000000D-01  0.1000000000D+01
 P   1 1.00       0.000000000000
      0.1407000000D+01  0.1000000000D+01
 P   1 1.00       0.000000000000
      0.3880000000D+00  0.1000000000D+01
 P   1 1.00       0.000000000000
      0.1020000000D+00  0.1000000000D+01
 D   1 1.00       0.000000000000
      0.1057000000D+01  0.1000000000D+01
 D   1 1.00       0.000000000000
      0.2470000000D+00  0.1000000000D+01
 ****
     16 0
 S   3 1.00       0.000000000000
      0.3387000000D+02  0.2549486323D-01
      0.5095000000D+01  0.1903627659D+00
      0.1159000000D+01  0.8521620222D+00
 S   1 1.00       0.000000000000
      0.3258000000D+00  0.1000000000D+01
 S   1 1.00       0.000000000000
      0.1027000000D+00  0.1000000000D+01
 S   1 1.00       0.000000000000
      0.2526000000D-01  0.1000000000D+01
 P   1 1.00       0.000000000000
      0.1407000000D+01  0.1000000000D+01
 P   1 1.00       0.000000000000
      0.3880000000D+00  0.1000000000D+01
 P   1 1.00       0.000000000000
      0.1020000000D+00  0.1000000000D+01
 D   1 1.00       0.000000000000
      0.1057000000D+01  0.1000000000D+01
 D   1 1.00       0.000000000000
      0.2470000000D+00  0.1000000000D+01
 ****
     17 0
 S   3 1.00       0.000000000000
      0.3387000000D+02  0.2549486323D-01
      0.5095000000D+01  0.1903627659D+00
      0.1159000000D+01  0.8521620222D+00
 S   1 1.00       0.000000000000
      0.3258000000D+00  0.1000000000D+01
 S   1 1.00       0.000000000000
      0.1027000000D+00  0.1000000000D+01
 S   1 1.00       0.000000000000
      0.2526000000D-01  0.1000000000D+01
 P   1 1.00       0.000000000000
      0.1407000000D+01  0.1000000000D+01
 P   1 1.00       0.000000000000
      0.3880000000D+00  0.1000000000D+01
 P   1 1.00       0.000000000000
      0.1020000000D+00  0.1000000000D+01
 D   1 1.00       0.000000000000
      0.1057000000D+01  0.1000000000D+01
 D   1 1.00       0.000000000000
      0.2470000000D+00  0.1000000000D+01
 ****
     18 0
 S   6 1.00       0.000000000000
      0.2635145800D+05  0.1732429991D-02
      0.3945056700D+04  0.1331093993D-01
      0.8924383500D+03  0.6667482966D-01
      0.2494174300D+03  0.2300505688D+00
      0.7972157200D+02  0.4742306876D+00
      0.2683114500D+02  0.3595239882D+00
 S   3 1.00       0.000000000000
      0.5278530100D+02 -0.9562959024D-01
      0.5615642900D+01  0.5880840315D+00
      0.2105907600D+01  0.4866982312D+00
 S   2 1.00       0.000000000000
      0.3558614900D+01  0.2945274744D+00
      0.4847980700D+00 -0.1122243115D+01
 S   1 1.00       0.000000000000
      0.1733309800D+00  0.1000000000D+01
 P   5 1.00       0.000000000000
      0.2710782100D+03 -0.1092567000D-01
      0.6354720800D+02 -0.7759090999D-01
      0.1973710900D+02 -0.2775158500D+00
      0.6788993700D+01 -0.5031933099D+00
      0.2348030300D+01 -0.3348425899D+00
 P   2 1.00       0.000000000000
      0.1106686400D+01 -0.3596313011D+00
      0.3829680400D+00 -0.7109402424D+00
 P   1 1.00       0.000000000000
      0.1251133000D+00  0.1000000000D+01
 D   1 1.00       0.000000000000
      0.7500000000D+00  0.1000000000D+01
 ****
     19 0
 S   7 1.00       0.000000000000
      0.1533000000D+05  0.5198089434D-03
      0.2299000000D+04  0.4020256215D-02
      0.5224000000D+03  0.2071282673D-01
      0.1473000000D+03  0.8101055358D-01
      0.4755000000D+02  0.2359629851D+00
      0.1676000000D+02  0.4426534455D+00
      0.6207000000D+01  0.3570644227D+00
 S   6 1.00       0.000000000000
      0.5224000000D+03 -0.4421150084D-04
      0.1473000000D+03 -0.1225910413D-02
      0.4755000000D+02 -0.1055177248D-01
      0.1676000000D+02 -0.6744526326D-01
      0.6207000000D+01 -0.1711986073D+00
      0.6882000000D+00  0.1073298561D+01
 S   1 1.00       0.000000000000
      0.1752000000D+01  0.1000000000D+01
 S   1 1.00       0.000000000000
      0.2384000000D+00  0.1000000000D+01
 S   1 1.00       0.000000000000
      0.7376000000D-01  0.1000000000D+01
 P   3 1.00       0.000000000000
      0.3446000000D+02  0.4116348957D-01
      0.7749000000D+01  0.2577628359D+00
      0.2280000000D+01  0.8024192744D+00
 P   1 1.00       0.000000000000
      0.7156000000D+00  0.1000000000D+01
 P   1 1.00       0.000000000000
      0.2140000000D+00  0.1000000000D+01
 P   1 1.00       0.000000000000
      0.5974000000D-01  0.1000000000D+01
 D   1 1.00       0.000000000000
      0.2314000000D+01  0.1000000000D+01
 D   1 1.00       0.000000000000
      0.6450000000D+00  0.1000000000D+01
 D   1 1.00       0.000000000000
      0.2140000000D+00  0.1000000000D+01
 F   1 1.00       0.000000000000
      0.1428000000D+01  0.1000000000D+01
 F   1 1.00       0.000000000000
      0.5000000000D+00  0.1000000000D+01
 ****

 There are   679 symmetry adapted cartesian basis functions of A   symmetry.
 There are   593 symmetry adapted basis functions of A   symmetry.
   593 basis functions,   843 primitive gaussians,   679 cartesian basis functions
    38 alpha electrons       38 beta electrons
       nuclear repulsion energy       523.1875724889 Hartrees.
 NAtoms=   19 NActive=   19 NUniq=   19 SFac= 1.00D+00 NAtFMM=   60 NAOKFM=F Big=F
 Integral buffers will be    131072 words long.
 Raffenetti 2 integral format.
 Two-electron integral symmetry is turned on.
 One-electron integrals computed using PRISM.
 PrsmSu:  requested number of processors reduced to:   3 ShMem   1 Linda.
   1 Symmetry operations used in ECPInt.
 ECPInt:  NShTT=   21115 NPrTT=   55282 LenC2=   20835 LenP2D=   45499.
 LDataN:  DoStor=T MaxTD1= 6 Len=  172
 Number of processors reduced to   7 by ecpmxn.
 NBasis=   593 RedAO= T EigKep=  9.19D-06  NBF=   593
 NBsUse=   593 1.00D-06 EigRej= -1.00D+00 NBFU=   593
 ExpMin= 2.53D-02 ExpMax= 2.64D+04 ExpMxC= 3.95D+03 IAcc=3 IRadAn=         5 AccDes= 0.00D+00
 Harris functional with IExCor=  402 and IRadAn=       5 diagonalized for initial guess.
 HarFok:  IExCor=  402 AccDes= 0.00D+00 IRadAn=         5 IDoV= 1 UseB2=F ITyADJ=14
 ICtDFT=  3500011 ScaDFX=  1.000000  1.000000  1.000000  1.000000
 FoFCou: FMM=F IPFlag=           0 FMFlag=      100000 FMFlg1=           0
         NFxFlg=           0 DoJE=T BraDBF=F KetDBF=T FulRan=T
         wScrn=  0.000000 ICntrl=     500 IOpCl=  0 I1Cent=   200000004 NGrid=           0
         NMat0=    1 NMatS0=      1 NMatT0=    0 NMatD0=    1 NMtDS0=    0 NMtDT0=    0
 Petite list used in FoFCou.
 Requested convergence on RMS density matrix=1.00D-08 within 128 cycles.
 Requested convergence on MAX density matrix=1.00D-06.
 Requested convergence on             energy=1.00D-06.
 No special actions if energy rises.
 SCF Done:  E(RB3LYP) =  -844.986333838     A.U. after   13 cycles
            NFock= 13  Conv=0.37D-08     -V/T= 2.0058
 DoSCS=F DFT=T ScalE2(SS,OS)=  1.000000  1.000000
 Range of M.O.s used for correlation:     1   593
 NBasis=   593 NAE=    38 NBE=    38 NFC=     0 NFV=     0
 NROrb=    593 NOA=    38 NOB=    38 NVA=   555 NVB=   555

 **** Warning!!: The largest alpha MO coefficient is  0.51407692D+02

 PrsmSu:  requested number of processors reduced to:   3 ShMem   1 Linda.
 PrsmSu:  requested number of processors reduced to:   1 ShMem   1 Linda.
   1 Symmetry operations used in ECPInt.
 ECPInt:  NShTT=   21115 NPrTT=   55282 LenC2=   20835 LenP2D=   45499.
 LDataN:  DoStor=T MaxTD1= 7 Len=  274
 Number of processors reduced to   1 by ecpmxn.
 Symmetrizing basis deriv contribution to polar:
 IMax=3 JMax=2 DiffMx= 0.00D+00
 G2DrvN: will do     1 centers at a time, making   20 passes.
 Estimated number of processors is:    6
 Calling FoFCou, ICntrl=  3107 FMM=F I1Cent=   0 AccDes= 0.00D+00.
 CoulSu:  requested number of processors reduced to:   6 ShMem   1 Linda.
 Calling FoFCou, ICntrl=  3107 FMM=F I1Cent=   0 AccDes= 0.00D+00.
 CoulSu:  requested number of processors reduced to:   6 ShMem   1 Linda.
 Calling FoFCou, ICntrl=  3107 FMM=F I1Cent=   0 AccDes= 0.00D+00.
 CoulSu:  requested number of processors reduced to:   6 ShMem   1 Linda.
 Calling FoFCou, ICntrl=  3107 FMM=F I1Cent=   0 AccDes= 0.00D+00.
 CoulSu:  requested number of processors reduced to:   6 ShMem   1 Linda.
 Calling FoFCou, ICntrl=  3107 FMM=F I1Cent=   0 AccDes= 0.00D+00.
 CoulSu:  requested number of processors reduced to:   6 ShMem   1 Linda.
 Calling FoFCou, ICntrl=  3107 FMM=F I1Cent=   0 AccDes= 0.00D+00.
 CoulSu:  requested number of processors reduced to:   6 ShMem   1 Linda.
 Calling FoFCou, ICntrl=  3107 FMM=F I1Cent=   0 AccDes= 0.00D+00.
 CoulSu:  requested number of processors reduced to:   6 ShMem   1 Linda.
 Calling FoFCou, ICntrl=  3107 FMM=F I1Cent=   0 AccDes= 0.00D+00.
 CoulSu:  requested number of processors reduced to:   6 ShMem   1 Linda.
 Calling FoFCou, ICntrl=  3107 FMM=F I1Cent=   0 AccDes= 0.00D+00.
 CoulSu:  requested number of processors reduced to:   6 ShMem   1 Linda.
 Calling FoFCou, ICntrl=  3107 FMM=F I1Cent=   0 AccDes= 0.00D+00.
 CoulSu:  requested number of processors reduced to:   6 ShMem   1 Linda.
 Calling FoFCou, ICntrl=  3107 FMM=F I1Cent=   0 AccDes= 0.00D+00.
 CoulSu:  requested number of processors reduced to:   6 ShMem   1 Linda.
 Calling FoFCou, ICntrl=  3107 FMM=F I1Cent=   0 AccDes= 0.00D+00.
 CoulSu:  requested number of processors reduced to:   6 ShMem   1 Linda.
 Calling FoFCou, ICntrl=  3107 FMM=F I1Cent=   0 AccDes= 0.00D+00.
 CoulSu:  requested number of processors reduced to:   6 ShMem   1 Linda.
 Calling FoFCou, ICntrl=  3107 FMM=F I1Cent=   0 AccDes= 0.00D+00.
 CoulSu:  requested number of processors reduced to:   6 ShMem   1 Linda.
 Calling FoFCou, ICntrl=  3107 FMM=F I1Cent=   0 AccDes= 0.00D+00.
 CoulSu:  requested number of processors reduced to:   6 ShMem   1 Linda.
 Calling FoFCou, ICntrl=  3107 FMM=F I1Cent=   0 AccDes= 0.00D+00.
 CoulSu:  requested number of processors reduced to:   6 ShMem   1 Linda.
 Calling FoFCou, ICntrl=  3107 FMM=F I1Cent=   0 AccDes= 0.00D+00.
 CoulSu:  requested number of processors reduced to:   6 ShMem   1 Linda.
 Calling FoFCou, ICntrl=  3107 FMM=F I1Cent=   0 AccDes= 0.00D+00.
 CoulSu:  requested number of processors reduced to:   6 ShMem   1 Linda.
 Calling FoFCou, ICntrl=  3107 FMM=F I1Cent=   0 AccDes= 0.00D+00.
 CoulSu:  requested number of processors reduced to:   6 ShMem   1 Linda.
 Calling FoFCou, ICntrl=  3107 FMM=F I1Cent=   0 AccDes= 0.00D+00.
 CoulSu:  requested number of processors reduced to:   6 ShMem   1 Linda.
 End of G2Drv F.D. properties file   721 does not exist.
 End of G2Drv F.D. properties file   722 does not exist.
 End of G2Drv F.D. properties file   788 does not exist.
          IDoAtm=1111111111111111111
          Differentiating once with respect to nuclear coordinates.
 PrRfSu:  requested number of processors reduced to:   5 ShMem   1 Linda.
 PrRfSu:  requested number of processors reduced to:   5 ShMem   1 Linda.
 PrRfSu:  requested number of processors reduced to:   5 ShMem   1 Linda.
 PrRfSu:  requested number of processors reduced to:   5 ShMem   1 Linda.
 PrRfSu:  requested number of processors reduced to:   5 ShMem   1 Linda.
 PrRfSu:  requested number of processors reduced to:   5 ShMem   1 Linda.
 PrRfSu:  requested number of processors reduced to:   5 ShMem   1 Linda.
 PrRfSu:  requested number of processors reduced to:   5 ShMem   1 Linda.
 PrRfSu:  requested number of processors reduced to:   5 ShMem   1 Linda.
 PrRfSu:  requested number of processors reduced to:   5 ShMem   1 Linda.
          There are    60 degrees of freedom in the 1st order CPHF.  IDoFFX=6 NUNeed=     0.
     57 vectors produced by pass  0 Test12= 3.52D-14 1.67D-09 XBig12= 2.03D-01 8.71D-02.
 AX will form     6 AO Fock derivatives at one time.
 PrRfSu:  requested number of processors reduced to:   5 ShMem   1 Linda.
 PrRfSu:  requested number of processors reduced to:   5 ShMem   1 Linda.
 PrRfSu:  requested number of processors reduced to:   5 ShMem   1 Linda.
 PrRfSu:  requested number of processors reduced to:   5 ShMem   1 Linda.
 PrRfSu:  requested number of processors reduced to:   5 ShMem   1 Linda.
 PrRfSu:  requested number of processors reduced to:   5 ShMem   1 Linda.
 PrRfSu:  requested number of processors reduced to:   5 ShMem   1 Linda.
 PrRfSu:  requested number of processors reduced to:   5 ShMem   1 Linda.
 PrRfSu:  requested number of processors reduced to:   5 ShMem   1 Linda.
     57 vectors produced by pass  1 Test12= 3.52D-14 1.67D-09 XBig12= 6.34D-02 4.00D-02.
 PrRfSu:  requested number of processors reduced to:   5 ShMem   1 Linda.
 PrRfSu:  requested number of processors reduced to:   5 ShMem   1 Linda.
 PrRfSu:  requested number of processors reduced to:   5 ShMem   1 Linda.
 PrRfSu:  requested number of processors reduced to:   5 ShMem   1 Linda.
 PrRfSu:  requested number of processors reduced to:   5 ShMem   1 Linda.
 PrRfSu:  requested number of processors reduced to:   5 ShMem   1 Linda.
 PrRfSu:  requested number of processors reduced to:   5 ShMem   1 Linda.
 PrRfSu:  requested number of processors reduced to:   5 ShMem   1 Linda.
 PrRfSu:  requested number of processors reduced to:   5 ShMem   1 Linda.
     57 vectors produced by pass  2 Test12= 3.52D-14 1.67D-09 XBig12= 8.35D-04 3.37D-03.
 PrRfSu:  requested number of processors reduced to:   5 ShMem   1 Linda.
 PrRfSu:  requested number of processors reduced to:   5 ShMem   1 Linda.
 PrRfSu:  requested number of processors reduced to:   5 ShMem   1 Linda.
 PrRfSu:  requested number of processors reduced to:   5 ShMem   1 Linda.
 PrRfSu:  requested number of processors reduced to:   5 ShMem   1 Linda.
 PrRfSu:  requested number of processors reduced to:   5 ShMem   1 Linda.
 PrRfSu:  requested number of processors reduced to:   5 ShMem   1 Linda.
 PrRfSu:  requested number of processors reduced to:   5 ShMem   1 Linda.
 PrRfSu:  requested number of processors reduced to:   5 ShMem   1 Linda.
     57 vectors produced by pass  3 Test12= 3.52D-14 1.67D-09 XBig12= 5.12D-06 2.75D-04.
 PrRfSu:  requested number of processors reduced to:   5 ShMem   1 Linda.
 PrRfSu:  requested number of processors reduced to:   5 ShMem   1 Linda.
 PrRfSu:  requested number of processors reduced to:   5 ShMem   1 Linda.
 PrRfSu:  requested number of processors reduced to:   5 ShMem   1 Linda.
 PrRfSu:  requested number of processors reduced to:   5 ShMem   1 Linda.
 PrRfSu:  requested number of processors reduced to:   5 ShMem   1 Linda.
 PrRfSu:  requested number of processors reduced to:   5 ShMem   1 Linda.
 PrRfSu:  requested number of processors reduced to:   5 ShMem   1 Linda.
 PrRfSu:  requested number of processors reduced to:   5 ShMem   1 Linda.
     57 vectors produced by pass  4 Test12= 3.52D-14 1.67D-09 XBig12= 1.51D-08 1.30D-05.
 PrRfSu:  requested number of processors reduced to:   5 ShMem   1 Linda.
 PrRfSu:  requested number of processors reduced to:   5 ShMem   1 Linda.
 PrRfSu:  requested number of processors reduced to:   5 ShMem   1 Linda.
 PrRfSu:  requested number of processors reduced to:   5 ShMem   1 Linda.
 PrRfSu:  requested number of processors reduced to:   5 ShMem   1 Linda.
 PrRfSu:  requested number of processors reduced to:   5 ShMem   1 Linda.
 PrRfSu:  requested number of processors reduced to:   5 ShMem   1 Linda.
 PrRfSu:  requested number of processors reduced to:   5 ShMem   1 Linda.
 PrRfSu:  requested number of processors reduced to:   5 ShMem   1 Linda.
     55 vectors produced by pass  5 Test12= 3.52D-14 1.67D-09 XBig12= 3.56D-11 4.61D-07.
 PrRfSu:  requested number of processors reduced to:   5 ShMem   1 Linda.
 PrRfSu:  requested number of processors reduced to:   5 ShMem   1 Linda.
 PrRfSu:  requested number of processors reduced to:   5 ShMem   1 Linda.
 PrRfSu:  requested number of processors reduced to:   5 ShMem   1 Linda.
 PrRfSu:  requested number of processors reduced to:   5 ShMem   1 Linda.
 PrRfSu:  requested number of processors reduced to:   5 ShMem   1 Linda.
 PrRfSu:  requested number of processors reduced to:   5 ShMem   1 Linda.
 PrRfSu:  requested number of processors reduced to:   5 ShMem   1 Linda.
 PrRfSu:  requested number of processors reduced to:   5 ShMem   1 Linda.
     35 vectors produced by pass  6 Test12= 3.52D-14 1.67D-09 XBig12= 1.55D-13 2.48D-08.
 PrRfSu:  requested number of processors reduced to:   5 ShMem   1 Linda.
 PrRfSu:  requested number of processors reduced to:   5 ShMem   1 Linda.
 PrRfSu:  requested number of processors reduced to:   5 ShMem   1 Linda.
 PrRfSu:  requested number of processors reduced to:   5 ShMem   1 Linda.
 PrRfSu:  requested number of processors reduced to:   5 ShMem   1 Linda.
      4 vectors produced by pass  7 Test12= 3.52D-14 1.67D-09 XBig12= 4.72D-15 6.27D-09.
      4 vectors produced by pass  8 Test12= 3.52D-14 1.67D-09 XBig12= 1.85D-15 2.78D-09.
      2 vectors produced by pass  9 Test12= 3.52D-14 1.67D-09 XBig12= 1.62D-15 2.83D-09.
 InvSVY:  IOpt=1 It=  1 EMax= 6.11D-16
 Solved reduced A of dimension   385 with    60 vectors.
 End of Minotr F.D. properties file   721 does not exist.
 End of Minotr F.D. properties file   722 does not exist.
 End of Minotr F.D. properties file   788 does not exist.

 **********************************************************************

            Population analysis using the SCF density.

 **********************************************************************

 Orbital symmetries:
       Occupied  (A) (A) (A) (A) (A) (A) (A) (A) (A) (A) (A) (A)
                 (A) (A) (A) (A) (A) (A) (A) (A) (A) (A) (A) (A)
                 (A) (A) (A) (A) (A) (A) (A) (A) (A) (A) (A) (A)
                 (A) (A)
       Virtual   (A) (A) (A) (A) (A) (A) (A) (A) (A) (A) (A) (A)
                 (A) (A) (A) (A) (A) (A) (A) (A) (A) (A) (A) (A)
                 (A) (A) (A) (A) (A) (A) (A) (A) (A) (A) (A) (A)
                 (A) (A) (A) (A) (A) (A) (A) (A) (A) (A) (A) (A)
                 (A) (A) (A) (A) (A) (A) (A) (A) (A) (A) (A) (A)
                 (A) (A) (A) (A) (A) (A) (A) (A) (A) (A) (A) (A)
                 (A) (A) (A) (A) (A) (A) (A) (A) (A) (A) (A) (A)
                 (A) (A) (A) (A) (A) (A) (A) (A) (A) (A) (A) (A)
                 (A) (A) (A) (A) (A) (A) (A) (A) (A) (A) (A) (A)
                 (A) (A) (A) (A) (A) (A) (A) (A) (A) (A) (A) (A)
                 (A) (A) (A) (A) (A) (A) (A) (A) (A) (A) (A) (A)
                 (A) (A) (A) (A) (A) (A) (A) (A) (A) (A) (A) (A)
                 (A) (A) (A) (A) (A) (A) (A) (A) (A) (A) (A) (A)
                 (A) (A) (A) (A) (A) (A) (A) (A) (A) (A) (A) (A)
                 (A) (A) (A) (A) (A) (A) (A) (A) (A) (A) (A) (A)
                 (A) (A) (A) (A) (A) (A) (A) (A) (A) (A) (A) (A)
                 (A) (A) (A) (A) (A) (A) (A) (A) (A) (A) (A) (A)
                 (A) (A) (A) (A) (A) (A) (A) (A) (A) (A) (A) (A)
                 (A) (A) (A) (A) (A) (A) (A) (A) (A) (A) (A) (A)
                 (A) (A) (A) (A) (A) (A) (A) (A) (A) (A) (A) (A)
                 (A) (A) (A) (A) (A) (A) (A) (A) (A) (A) (A) (A)
                 (A) (A) (A) (A) (A) (A) (A) (A) (A) (A) (A) (A)
                 (A) (A) (A) (A) (A) (A) (A) (A) (A) (A) (A) (A)
                 (A) (A) (A) (A) (A) (A) (A) (A) (A) (A) (A) (A)
                 (A) (A) (A) (A) (A) (A) (A) (A) (A) (A) (A) (A)
                 (A) (A) (A) (A) (A) (A) (A) (A) (A) (A) (A) (A)
                 (A) (A) (A) (A) (A) (A) (A) (A) (A) (A) (A) (A)
                 (A) (A) (A) (A) (A) (A) (A) (A) (A) (A) (A) (A)
                 (A) (A) (A) (A) (A) (A) (A) (A) (A) (A) (A) (A)
                 (A) (A) (A) (A) (A) (A) (A) (A) (A) (A) (A) (A)
                 (A) (A) (A) (A) (A) (A) (A) (A) (A) (A) (A) (A)
                 (A) (A) (A) (A) (A) (A) (A) (A) (A) (A) (A) (A)
                 (A) (A) (A) (A) (A) (A) (A) (A) (A) (A) (A) (A)
                 (A) (A) (A) (A) (A) (A) (A) (A) (A) (A) (A) (A)
                 (A) (A) (A) (A) (A) (A) (A) (A) (A) (A) (A) (A)
                 (A) (A) (A) (A) (A) (A) (A) (A) (A) (A) (A) (A)
                 (A) (A) (A) (A) (A) (A) (A) (A) (A) (A) (A) (A)
                 (A) (A) (A) (A) (A) (A) (A) (A) (A) (A) (A) (A)
                 (A) (A) (A) (A) (A) (A) (A) (A) (A) (A) (A) (A)
                 (A) (A) (A) (A) (A) (A) (A) (A) (A) (A) (A) (A)
                 (A) (A) (A) (A) (A) (A) (A) (A) (A) (A) (A) (A)
                 (A) (A) (A) (A) (A) (A) (A) (A) (A) (A) (A) (A)
                 (A) (A) (A) (A) (A) (A) (A) (A) (A) (A) (A) (A)
                 (A) (A) (A) (A) (A) (A) (A) (A) (A) (A) (A) (A)
                 (A) (A) (A) (A) (A) (A) (A) (A) (A) (A) (A) (A)
                 (A) (A) (A) (A) (A) (A) (A) (A) (A) (A) (A) (A)
                 (A) (A) (A)
 The electronic state is 1-A.
 Alpha  occ. eigenvalues -- -101.51469 -19.17870 -19.17369 -19.09340 -10.32575
 Alpha  occ. eigenvalues --  -10.24587 -10.24098 -10.18446  -9.42170  -7.18894
 Alpha  occ. eigenvalues --   -7.18076  -7.18052  -1.08285  -1.04019  -1.00058
 Alpha  occ. eigenvalues --   -0.81172  -0.74375  -0.71560  -0.70273  -0.57437
 Alpha  occ. eigenvalues --   -0.54907  -0.53801  -0.49846  -0.48204  -0.47070
 Alpha  occ. eigenvalues --   -0.46111  -0.44775  -0.43629  -0.41850  -0.40686
 Alpha  occ. eigenvalues --   -0.38675  -0.37385  -0.35960  -0.30985  -0.29628
 Alpha  occ. eigenvalues --   -0.28658  -0.26909  -0.26312
 Alpha virt. eigenvalues --   -0.02214  -0.00523   0.00104   0.00413   0.01652
 Alpha virt. eigenvalues --    0.01938   0.02157   0.02788   0.03562   0.04075
 Alpha virt. eigenvalues --    0.04928   0.05161   0.05284   0.06136   0.06462
 Alpha virt. eigenvalues --    0.06581   0.07682   0.07905   0.08341   0.08537
 Alpha virt. eigenvalues --    0.09298   0.09396   0.09776   0.10472   0.10521
 Alpha virt. eigenvalues --    0.10742   0.10959   0.11691   0.11921   0.12924
 Alpha virt. eigenvalues --    0.13403   0.13962   0.14863   0.14980   0.15120
 Alpha virt. eigenvalues --    0.15827   0.16522   0.17105   0.17674   0.18417
 Alpha virt. eigenvalues --    0.18883   0.19659   0.20566   0.21253   0.21584
 Alpha virt. eigenvalues --    0.21761   0.22677   0.23659   0.23966   0.24194
 Alpha virt. eigenvalues --    0.24914   0.25052   0.25551   0.26154   0.26602
 Alpha virt. eigenvalues --    0.26897   0.27381   0.27504   0.28666   0.29119
 Alpha virt. eigenvalues --    0.29453   0.29965   0.30414   0.30778   0.31068
 Alpha virt. eigenvalues --    0.31258   0.32325   0.33053   0.33189   0.33623
 Alpha virt. eigenvalues --    0.34054   0.34635   0.34955   0.35215   0.35343
 Alpha virt. eigenvalues --    0.35904   0.36535   0.36835   0.37294   0.38433
 Alpha virt. eigenvalues --    0.38704   0.38980   0.39598   0.40202   0.40805
 Alpha virt. eigenvalues --    0.41372   0.42028   0.42296   0.42608   0.43395
 Alpha virt. eigenvalues --    0.43856   0.44481   0.44767   0.45385   0.46087
 Alpha virt. eigenvalues --    0.46356   0.46832   0.47268   0.48614   0.49187
 Alpha virt. eigenvalues --    0.49721   0.50301   0.51331   0.51965   0.52192
 Alpha virt. eigenvalues --    0.52648   0.53295   0.54611   0.55734   0.56108
 Alpha virt. eigenvalues --    0.57300   0.58232   0.59347   0.59785   0.61001
 Alpha virt. eigenvalues --    0.62003   0.62789   0.63283   0.64199   0.65157
 Alpha virt. eigenvalues --    0.66168   0.66436   0.66979   0.67516   0.68972
 Alpha virt. eigenvalues --    0.69285   0.70084   0.70351   0.71160   0.72365
 Alpha virt. eigenvalues --    0.73201   0.73433   0.74264   0.75170   0.75913
 Alpha virt. eigenvalues --    0.76453   0.77292   0.77619   0.78660   0.79023
 Alpha virt. eigenvalues --    0.79612   0.79839   0.80395   0.80795   0.81461
 Alpha virt. eigenvalues --    0.82322   0.83004   0.83286   0.83934   0.84716
 Alpha virt. eigenvalues --    0.85531   0.85868   0.86633   0.87166   0.88104
 Alpha virt. eigenvalues --    0.88665   0.89298   0.89987   0.91014   0.92598
 Alpha virt. eigenvalues --    0.93291   0.93633   0.94499   0.94625   0.95373
 Alpha virt. eigenvalues --    0.96577   0.97239   0.98137   0.98867   0.99080
 Alpha virt. eigenvalues --    0.99566   0.99873   0.99908   1.01174   1.02019
 Alpha virt. eigenvalues --    1.03361   1.03711   1.04740   1.05126   1.05535
 Alpha virt. eigenvalues --    1.06233   1.06736   1.07094   1.07362   1.08302
 Alpha virt. eigenvalues --    1.09388   1.10677   1.11195   1.12905   1.13069
 Alpha virt. eigenvalues --    1.13884   1.13934   1.15016   1.15740   1.16603
 Alpha virt. eigenvalues --    1.18183   1.18485   1.19666   1.20902   1.21445
 Alpha virt. eigenvalues --    1.22770   1.23290   1.23662   1.25106   1.25485
 Alpha virt. eigenvalues --    1.26361   1.27938   1.28834   1.29304   1.30831
 Alpha virt. eigenvalues --    1.31299   1.31773   1.32805   1.33167   1.33593
 Alpha virt. eigenvalues --    1.34304   1.35412   1.37034   1.37665   1.39479
 Alpha virt. eigenvalues --    1.40137   1.41240   1.41634   1.42938   1.43364
 Alpha virt. eigenvalues --    1.44282   1.44842   1.45682   1.45830   1.46370
 Alpha virt. eigenvalues --    1.47044   1.47858   1.49085   1.49598   1.50319
 Alpha virt. eigenvalues --    1.51273   1.52083   1.52984   1.53983   1.54898
 Alpha virt. eigenvalues --    1.55700   1.56471   1.57020   1.57315   1.58580
 Alpha virt. eigenvalues --    1.59587   1.59987   1.60768   1.61404   1.62553
 Alpha virt. eigenvalues --    1.63878   1.65004   1.65352   1.66165   1.67481
 Alpha virt. eigenvalues --    1.67675   1.69582   1.69970   1.70369   1.71461
 Alpha virt. eigenvalues --    1.72244   1.72895   1.74063   1.74352   1.75989
 Alpha virt. eigenvalues --    1.77814   1.78497   1.79728   1.80583   1.82024
 Alpha virt. eigenvalues --    1.83844   1.84112   1.86931   1.87584   1.88879
 Alpha virt. eigenvalues --    1.89908   1.90953   1.92296   1.93430   1.94520
 Alpha virt. eigenvalues --    1.95180   1.96788   1.97928   1.98463   1.99415
 Alpha virt. eigenvalues --    2.00664   2.01283   2.02238   2.03797   2.03983
 Alpha virt. eigenvalues --    2.05763   2.06709   2.08460   2.09013   2.10306
 Alpha virt. eigenvalues --    2.11602   2.13331   2.16260   2.18796   2.19782
 Alpha virt. eigenvalues --    2.21246   2.25580   2.26841   2.29509   2.33225
 Alpha virt. eigenvalues --    2.35066   2.35617   2.36989   2.38288   2.43330
 Alpha virt. eigenvalues --    2.44867   2.45826   2.46500   2.49132   2.51259
 Alpha virt. eigenvalues --    2.52222   2.53046   2.54815   2.58093   2.60124
 Alpha virt. eigenvalues --    2.62855   2.64428   2.67794   2.68219   2.70358
 Alpha virt. eigenvalues --    2.70513   2.73637   2.74695   2.77827   2.78814
 Alpha virt. eigenvalues --    2.80673   2.81337   2.83635   2.84999   2.88176
 Alpha virt. eigenvalues --    2.89866   2.91363   2.92374   2.93474   2.98758
 Alpha virt. eigenvalues --    2.99480   3.02465   3.03776   3.06317   3.10311
 Alpha virt. eigenvalues --    3.12169   3.13569   3.15283   3.16857   3.20739
 Alpha virt. eigenvalues --    3.23238   3.24740   3.25101   3.28896   3.29790
 Alpha virt. eigenvalues --    3.30366   3.31300   3.33471   3.33545   3.35515
 Alpha virt. eigenvalues --    3.35753   3.36803   3.37619   3.38938   3.39928
 Alpha virt. eigenvalues --    3.41864   3.42960   3.43664   3.45796   3.46399
 Alpha virt. eigenvalues --    3.49193   3.51538   3.52668   3.53437   3.54871
 Alpha virt. eigenvalues --    3.56482   3.57417   3.58100   3.58257   3.60229
 Alpha virt. eigenvalues --    3.62230   3.62962   3.64643   3.65645   3.67002
 Alpha virt. eigenvalues --    3.68215   3.70335   3.72494   3.73057   3.76364
 Alpha virt. eigenvalues --    3.76797   3.78394   3.79797   3.81546   3.82093
 Alpha virt. eigenvalues --    3.85873   3.86150   3.87170   3.88099   3.89263
 Alpha virt. eigenvalues --    3.90369   3.92919   3.93452   3.93953   3.95322
 Alpha virt. eigenvalues --    3.96751   3.98527   3.99268   4.00172   4.02857
 Alpha virt. eigenvalues --    4.04615   4.07314   4.07667   4.07874   4.10063
 Alpha virt. eigenvalues --    4.11755   4.14518   4.15626   4.17561   4.20328
 Alpha virt. eigenvalues --    4.21093   4.21724   4.23156   4.24593   4.27889
 Alpha virt. eigenvalues --    4.29312   4.30346   4.32817   4.33627   4.36977
 Alpha virt. eigenvalues --    4.39026   4.40462   4.40953   4.43346   4.45828
 Alpha virt. eigenvalues --    4.45999   4.47505   4.47966   4.50234   4.50907
 Alpha virt. eigenvalues --    4.51182   4.52584   4.53951   4.55550   4.57316
 Alpha virt. eigenvalues --    4.57745   4.60974   4.61789   4.64103   4.66476
 Alpha virt. eigenvalues --    4.70281   4.71749   4.73065   4.74732   4.75787
 Alpha virt. eigenvalues --    4.77127   4.78140   4.82410   4.82892   4.84197
 Alpha virt. eigenvalues --    4.85879   4.88072   4.89348   4.90454   4.93838
 Alpha virt. eigenvalues --    4.94636   4.98157   5.00521   5.02324   5.04084
 Alpha virt. eigenvalues --    5.06936   5.07519   5.10426   5.12764   5.14201
 Alpha virt. eigenvalues --    5.18228   5.19225   5.19771   5.23407   5.25130
 Alpha virt. eigenvalues --    5.27235   5.29429   5.32841   5.33857   5.38241
 Alpha virt. eigenvalues --    5.38597   5.41702   5.42794   5.50768   5.53229
 Alpha virt. eigenvalues --    5.58322   5.62202   5.64874   5.65163   5.68203
 Alpha virt. eigenvalues --    5.69389   5.70292   5.75058   5.77231   5.80256
 Alpha virt. eigenvalues --    5.80565   5.86315   5.96367   6.03668   6.12939
 Alpha virt. eigenvalues --    6.23942   6.30964   6.34880   6.36439   6.39996
 Alpha virt. eigenvalues --    6.40399   6.46439   6.54097   6.55298   6.61721
 Alpha virt. eigenvalues --    6.65352   6.66618   6.69041   6.69643   6.74918
 Alpha virt. eigenvalues --    6.76166   6.79530   6.81524   6.82304   6.86524
 Alpha virt. eigenvalues --    6.89445   6.93935   6.97900   7.00514   7.06268
 Alpha virt. eigenvalues --    7.07450   7.16160   7.17005   7.20282   7.21875
 Alpha virt. eigenvalues --    7.26937   7.27921   7.40923   7.43811   7.48901
 Alpha virt. eigenvalues --    7.57130   7.62120   7.71398   7.78418   7.82929
 Alpha virt. eigenvalues --    7.93796   8.11819   8.32683  14.89906  15.20898
 Alpha virt. eigenvalues --   15.68144  16.00235  17.14038  17.64655  17.71707
          Condensed to atoms (all electrons):
               1          2          3          4          5          6
     1  C    4.850436  -0.123905   0.003091   0.002377  -0.007463  -0.014343
     2  C   -0.123905   5.491542   0.397457   0.302934   0.422629  -0.008159
     3  H    0.003091   0.397457   0.421612  -0.015237  -0.004912  -0.001604
     4  H    0.002377   0.302934  -0.015237   0.399113  -0.018801   0.013754
     5  H   -0.007463   0.422629  -0.004912  -0.018801   0.392762   0.005507
     6  C   -0.014343  -0.008159  -0.001604   0.013754   0.005507   5.726382
     7  H   -0.059826   0.001252  -0.000941   0.000720   0.002525   0.436131
     8  H   -0.073816   0.003118   0.000369  -0.004173   0.008937   0.393182
     9  H    0.109961  -0.001933   0.002885   0.001919  -0.013703   0.292149
    10  O    0.020713   0.045953  -0.022640   0.014146  -0.027181  -0.038108
    11  O    0.016409   0.025954  -0.011325  -0.008493   0.009267  -0.031332
    12  C   -0.007737  -0.001472   0.003834   0.003166  -0.000785  -0.002382
    13  H   -0.000222   0.000698  -0.000357   0.000919   0.000028  -0.000403
    14  H   -0.001854   0.000288   0.001742  -0.000300  -0.000442  -0.000511
    15  H    0.003708   0.003312   0.001604  -0.005448   0.002033  -0.000229
    16  H    0.000806   0.002882  -0.000668   0.001999  -0.000807   0.003533
    17  H    0.009525  -0.023947   0.005461   0.006022   0.001375  -0.002925
    18  Cl   0.501284  -0.023425   0.001177   0.003184  -0.002744  -0.062086
    19  O    0.101810   0.063783   0.015555  -0.026751   0.011004   0.018124
               7          8          9         10         11         12
     1  C   -0.059826  -0.073816   0.109961   0.020713   0.016409  -0.007737
     2  C    0.001252   0.003118  -0.001933   0.045953   0.025954  -0.001472
     3  H   -0.000941   0.000369   0.002885  -0.022640  -0.011325   0.003834
     4  H    0.000720  -0.004173   0.001919   0.014146  -0.008493   0.003166
     5  H    0.002525   0.008937  -0.013703  -0.027181   0.009267  -0.000785
     6  C    0.436131   0.393182   0.292149  -0.038108  -0.031332  -0.002382
     7  H    0.452667   0.034895  -0.076726   0.000715   0.000696  -0.000042
     8  H    0.034895   0.482443  -0.100354  -0.012572  -0.000817  -0.000325
     9  H   -0.076726  -0.100354   0.639789  -0.016033  -0.000193  -0.000591
    10  O    0.000715  -0.012572  -0.016033   8.556314  -0.223351   0.012956
    11  O    0.000696  -0.000817  -0.000193  -0.223351   8.525049   0.012843
    12  C   -0.000042  -0.000325  -0.000591   0.012956   0.012843   5.328832
    13  H    0.000032  -0.000079  -0.000157  -0.005035   0.004805   0.389970
    14  H   -0.000095  -0.000050  -0.000115   0.007729  -0.027501   0.423646
    15  H   -0.000121  -0.000062   0.000846  -0.015592  -0.001274   0.348475
    16  H   -0.000117   0.000751   0.000769   0.038244   0.070408   0.011124
    17  H    0.001233  -0.000647   0.001117   0.093345   0.059636   0.013801
    18  Cl  -0.024775  -0.043890   0.033577  -0.159666  -0.026342  -0.002893
    19  O   -0.005531   0.026584  -0.043933  -0.108942  -0.079086   0.014483
              13         14         15         16         17         18
     1  C   -0.000222  -0.001854   0.003708   0.000806   0.009525   0.501284
     2  C    0.000698   0.000288   0.003312   0.002882  -0.023947  -0.023425
     3  H   -0.000357   0.001742   0.001604  -0.000668   0.005461   0.001177
     4  H    0.000919  -0.000300  -0.005448   0.001999   0.006022   0.003184
     5  H    0.000028  -0.000442   0.002033  -0.000807   0.001375  -0.002744
     6  C   -0.000403  -0.000511  -0.000229   0.003533  -0.002925  -0.062086
     7  H    0.000032  -0.000095  -0.000121  -0.000117   0.001233  -0.024775
     8  H   -0.000079  -0.000050  -0.000062   0.000751  -0.000647  -0.043890
     9  H   -0.000157  -0.000115   0.000846   0.000769   0.001117   0.033577
    10  O   -0.005035   0.007729  -0.015592   0.038244   0.093345  -0.159666
    11  O    0.004805  -0.027501  -0.001274   0.070408   0.059636  -0.026342
    12  C    0.389970   0.423646   0.348475   0.011124   0.013801  -0.002893
    13  H    0.345579  -0.000987   0.004617  -0.003272  -0.004389  -0.000168
    14  H   -0.000987   0.373247  -0.009457   0.010998   0.002003   0.000615
    15  H    0.004617  -0.009457   0.342728   0.002288  -0.001930  -0.000168
    16  H   -0.003272   0.010998   0.002288   0.581186  -0.010431  -0.020864
    17  H   -0.004389   0.002003  -0.001930  -0.010431   0.594448   0.013331
    18  Cl  -0.000168   0.000615  -0.000168  -0.020864   0.013331  17.040916
    19  O    0.001209   0.000856   0.007640   0.077805   0.001624  -0.081091
              19
     1  C    0.101810
     2  C    0.063783
     3  H    0.015555
     4  H   -0.026751
     5  H    0.011004
     6  C    0.018124
     7  H   -0.005531
     8  H    0.026584
     9  H   -0.043933
    10  O   -0.108942
    11  O   -0.079086
    12  C    0.014483
    13  H    0.001209
    14  H    0.000856
    15  H    0.007640
    16  H    0.077805
    17  H    0.001624
    18  Cl  -0.081091
    19  O    8.925343
 Mulliken charges:
               1
     1  C    0.669043
     2  C   -0.578961
     3  H    0.202897
     4  H    0.328949
     5  H    0.220771
     6  C   -0.726679
     7  H    0.237309
     8  H    0.286504
     9  H    0.170727
    10  O   -0.160993
    11  O   -0.315353
    12  C   -0.546902
    13  H    0.267213
    14  H    0.220188
    15  H    0.317030
    16  H    0.233367
    17  H    0.241348
    18  Cl  -0.145973
    19  O   -0.920485
 Sum of Mulliken charges =   0.00000
 Mulliken charges with hydrogens summed into heavy atoms:
               1
     1  C    0.669043
     2  C    0.173656
     6  C   -0.032140
    10  O   -0.160993
    11  O    0.159362
    12  C    0.257529
    18  Cl  -0.145973
    19  O   -0.920485
 APT charges:
               1
     1  C    0.201574
     2  C   -1.567505
     3  H    0.625842
     4  H    0.437013
     5  H    0.615934
     6  C   -1.787673
     7  H    0.623159
     8  H    0.526256
     9  H    0.649165
    10  O   -0.152458
    11  O   -0.286050
    12  C   -1.617287
    13  H    0.663606
    14  H    0.813218
    15  H    0.328517
    16  H    0.381820
    17  H    0.328135
    18  Cl   0.011513
    19  O   -0.794778
 Sum of APT charges =   0.00000
 APT charges with hydrogens summed into heavy atoms:
               1
     1  C    0.201574
     2  C    0.111283
     6  C    0.010907
    10  O   -0.152458
    11  O    0.423905
    12  C    0.188054
    18  Cl   0.011513
    19  O   -0.794778
 Electronic spatial extent (au):  <R**2>=           1338.2446
 Charge=              0.0000 electrons
 Dipole moment (field-independent basis, Debye):
    X=             -2.8814    Y=              3.7767    Z=             -0.3531  Tot=              4.7635
 Quadrupole moment (field-independent basis, Debye-Ang):
   XX=            -47.8482   YY=            -56.5531   ZZ=            -61.5162
   XY=              2.8662   XZ=              1.1595   YZ=             -2.2718
 Traceless Quadrupole moment (field-independent basis, Debye-Ang):
   XX=              7.4576   YY=             -1.2473   ZZ=             -6.2104
   XY=              2.8662   XZ=              1.1595   YZ=             -2.2718
 Octapole moment (field-independent basis, Debye-Ang**2):
  XXX=            -25.6201  YYY=              7.7112  ZZZ=             -7.5389  XYY=             -3.6860
  XXY=              3.7786  XXZ=              6.1101  XZZ=             -5.7759  YZZ=             -0.4369
  YYZ=             -0.3514  XYZ=              3.1806
 Hexadecapole moment (field-independent basis, Debye-Ang**3):
 XXXX=           -911.6558 YYYY=           -526.4048 ZZZZ=           -246.3875 XXXY=             21.1482
 XXXZ=              3.1906 YYYX=              2.6859 YYYZ=             -4.5520 ZZZX=              2.0626
 ZZZY=             -2.6581 XXYY=           -257.5331 XXZZ=           -191.4728 YYZZ=           -122.3836
 XXYZ=             -9.3488 YYXZ=             -4.9959 ZZXY=              2.1359
 N-N= 5.231875724889D+02 E-N=-3.040652552144D+03  KE= 8.401166572310D+02
  Exact polarizability:   0.000   0.000   0.000   0.000   0.000   0.000
 Approx polarizability: 125.970  -3.611 130.616  -4.575   6.876 121.797
 PrsmSu:  requested number of processors reduced to:   4 ShMem   1 Linda.
 PrsmSu:  requested number of processors reduced to:   4 ShMem   1 Linda.
   1 Symmetry operations used in ECPInt.
 ECPInt:  NShTT=   21115 NPrTT=   55282 LenC2=   20835 LenP2D=   45499.
 LDataN:  DoStor=T MaxTD1= 8 Len=  415
 Calling FoFJK, ICntrl=    100147 FMM=F ISym2X=0 I1Cent= 0 IOpClX= 0 NMat=1 NMatS=1 NMatT=0.
 CoulSu:  requested number of processors reduced to:   4 ShMem   1 Linda.
 ***** Axes restored to original set *****
 -------------------------------------------------------------------
 Center     Atomic                   Forces (Hartrees/Bohr)
 Number     Number              X              Y              Z
 -------------------------------------------------------------------
      1        6          -0.034404129   -0.008925502    0.001597345
      2        6           0.008136325   -0.007194937   -0.004446954
      3        1           0.002374817    0.002956712    0.004686422
      4        1           0.000092428    0.001349760   -0.003617501
      5        1          -0.006811436    0.001413446    0.001571529
      6        6           0.019063720    0.010121260    0.004595421
      7        1          -0.009673178    0.002696024   -0.004180373
      8        1          -0.004971083   -0.003287652    0.005774086
      9        1          -0.002276167   -0.004993958   -0.002859677
     10        8          -0.021422812    0.011131427   -0.018564615
     11        8           0.011266856    0.012307734    0.015992557
     12        6           0.003185531   -0.012687425   -0.004963564
     13        1          -0.001317538    0.001884025    0.007352492
     14        1          -0.000888193    0.007176129   -0.003045737
     15        1          -0.002031154   -0.002057911   -0.001379250
     16        1          -0.005793373    0.016364816   -0.037566714
     17        1           0.014836398   -0.009115099    0.021117784
     18       17           0.014100145   -0.017395164   -0.005916548
     19        8           0.016532843   -0.001743685    0.023853297
 -------------------------------------------------------------------
 Cartesian Forces:  Max     0.037566714 RMS     0.011735643
 FormGI is forming the generalized inverse of G from B-inverse, IUseBI=4.

[...]
 0.02185219,0.07654454,-0.00028665,0.00229054,-0.00588373,0.00988618,-0
 .05532118,-0.03133379,-0.00312302,0.00250986,0.00503032,-0.01723336,0.
 06842783,-0.00231778,0.00189463,-0.00257751,0.07401950,-0.03713173,-0.
 27197964,0.00716798,-0.00206217,-0.01786843,-0.08213769,0.04735776,0.2
 9147885,-0.00007682,0.00046024,-0.00079584,-0.23198061,-0.11736952,0.0
 4774670,-0.01790058,-0.01107378,0.00578837,-0.00679161,-0.00401288,0.0
 0082669,0.24350976,-0.00373653,0.00106887,-0.00284003,-0.10906807,-0.1
 1504020,0.02960374,0.00451818,0.00540227,-0.00210529,0.00366229,0.0052
 0663,0.00001007,0.12374408,0.14184012,0.00161056,0.00088449,-0.0002300
 2,0.04787053,0.03003183,-0.06406945,-0.01830917,-0.01180265,0.00566370
 ,0.02567835,0.01550250,-0.00504259,-0.05010488,-0.03072205,0.06049494,
 -0.13911413,-0.05691123,-0.01609362,-0.00119861,-0.00137931,-0.0013855
 8,0.00003864,-0.00019647,0.00006412,-0.00031060,0.00018389,0.00002781,
 -0.00033399,0.00007265,-0.00020636,0.51127428,-0.06642565,-0.11322534,
 -0.01406901,-0.00011201,0.00323184,0.00080823,0.00009523,-0.00035904,-
 0.00033132,0.00036592,-0.00032885,-0.00025317,0.00031807,0.00000363,0.
 00009120,-0.04710640,0.53435635,-0.01916154,-0.01304956,-0.07299928,-0
 .00160962,-0.00082690,-0.00129116,-0.00017046,-0.00012820,-0.00020258,
 0.00050136,0.00058666,-0.00008866,-0.00112140,0.00053002,0.00040721,-0
 .03145576,-0.02162744,0.58593436,-0.01857236,0.01472225,-0.01577856,0.
 00038755,-0.00148308,0.00028544,0.00007115,0.00012193,-0.00003359,0.00
 008580,0.00012173,0.00002275,0.00010465,0.00018674,0.00005968,-0.15493
 592,0.08586708,-0.10084535,0.16819364,-0.01231758,0.00874876,-0.010898
 91,0.00016330,-0.00157146,0.00031369,0.00020825,0.00041045,0.00007882,
 -0.00019583,0.00008555,0.00014056,0.00040258,0.00032057,-0.00024730,0.
 08893300,-0.11432729,0.08306045,-0.09328610,0.12330748,-0.00475572,0.0
 0319283,-0.00522240,0.00041963,-0.00061743,-0.00005916,0.00004633,0.00
 013903,0.00008102,-0.00020669,0.00001899,0.00011916,0.00020835,-0.0001
 4575,-0.00006714,-0.10130875,0.08089156,-0.13796318,0.11196259,-0.0875
 9398,0.14720199,-0.01087266,-0.00294216,0.02604428,-0.00077580,-0.0001
 3972,0.00030450,0.00012755,0.00014275,-0.00004238,0.00017504,-0.000035
 99,-0.00008416,-0.00020143,0.00054420,-0.00016224,-0.10299202,-0.03062
 627,0.10404409,0.01141780,0.00453605,-0.01776689,0.11136068,-0.0052652
 6,-0.00408480,0.01959537,0.00039329,0.00057755,-0.00040201,-0.00017438
 ,-0.00011671,0.00010874,-0.00005876,-0.00001588,0.00007708,0.00003579,
 -0.00018855,0.00018317,-0.02938387,-0.06336322,0.05186496,-0.00816931,
 -0.00418538,0.01268505,0.03442244,0.06485157,-0.00333357,-0.00240163,0
 .00386554,-0.00010414,0.00033420,-0.00016733,-0.00013963,-0.00011031,0
 .00006641,-0.00009343,-0.00004461,0.00001875,-0.00013717,-0.00020249,0
 .00013840,0.10935045,0.05673947,-0.24838266,0.00883427,0.00328048,-0.0
 1461470,-0.11659656,-0.06030137,0.26627726,0.00729500,-0.02142888,-0.0
 1173569,-0.00065117,0.00045827,-0.00160178,-0.00020217,-0.00001269,0.0
 0011147,-0.00060387,0.00020406,-0.00006015,-0.00053102,0.00011269,-0.0
 0023970,-0.07252571,0.06391910,0.04000623,-0.00580088,0.01605782,0.011
 29242,-0.00461600,0.01215706,0.00463905,0.07604288,0.00824882,-0.01788
 816,-0.00988349,0.00057300,-0.00044077,0.00034727,0.00011603,0.0003673
 4,0.00027955,-0.00015359,0.00004874,0.00033090,0.00054753,0.00013733,0
 .00013884,0.06194234,-0.22354183,-0.10346487,0.00405294,-0.01250326,-0
 .00779315,-0.00220370,0.00870750,0.00394394,-0.07041990,0.24437484,0.0
 0211436,-0.00599771,-0.00484929,-0.00048710,-0.00100065,-0.00017783,0.
 00023641,0.00042562,0.00015339,-0.00033387,0.00003967,0.00025829,0.000
 07706,0.00035228,-0.00082558,0.03896669,-0.10397069,-0.10889591,-0.004
 53811,0.01569465,0.01031537,0.00627213,-0.02229574,-0.01058028,-0.0411
 3508,0.11602991,0.11377945,-0.04305737,-0.05146489,0.03704088,-0.08516
 383,0.01651098,-0.00933503,-0.00344152,0.03226011,0.00538958,-0.000593
 11,0.01447504,0.00154212,0.01394194,-0.02459803,-0.00561561,-0.0192041
 1,0.01815898,-0.02342104,-0.00473120,-0.00553015,-0.00223419,0.0015988
 7,0.00119185,0.00027888,0.00100686,-0.00019982,-0.00027440,0.17851882,
 -0.02894372,-0.03666031,-0.02520870,0.01791541,-0.18634237,-0.02745792
 ,0.00846424,-0.02447946,-0.00003338,0.00947786,-0.02400362,-0.00964009
 ,0.00584400,-0.03875254,-0.00367077,-0.00458702,0.00607835,-0.00575765
 ,-0.00199552,-0.00078706,-0.00105885,0.00136925,0.00017808,0.00001190,
 0.00103736,0.00047621,0.00100690,-0.00541836,0.37962616,0.02102370,-0.
 05285324,-0.01217385,-0.01130422,-0.01973268,-0.08160183,-0.00386717,0
 .02695836,0.00636749,0.00541465,-0.03313492,0.00373867,-0.00231322,0.0
 0453756,0.00367401,-0.01279240,0.01050625,-0.00985479,-0.00188609,-0.0
 0276372,0.00030952,-0.00090588,-0.00037606,0.00080739,0.00116261,0.000
 29912,-0.00000064,-0.00848893,0.01344410,0.16553937,0.01385729,-0.0046
 8037,-0.01940390,-0.00832100,0.00890784,0.00187485,0.00060362,-0.00110
 129,0.00085083,0.00015302,-0.00118247,-0.00147222,0.00065743,-0.003600
 73,-0.00063383,-0.00220836,0.00009525,0.00249160,0.00004164,-0.0000891
 4,-0.00009266,-0.00058605,-0.00071650,0.00014884,0.00028727,0.00006594
 ,0.00010469,-0.04488527,-0.05143400,0.01989373,0.46346936,0.00304822,-
 0.01058296,0.01217984,-0.00335366,0.00815505,0.00003846,0.00052262,-0.
 00025499,0.00029825,0.00060276,-0.00080515,-0.00067937,0.00034442,-0.0
 0188377,-0.00023093,-0.00068796,0.00154743,-0.00180648,-0.00054985,-0.
 00039847,-0.00036094,0.00056960,0.00007877,-0.00002307,0.00012310,0.00
 002287,0.00014977,-0.05595055,-0.02382948,0.01080833,-0.01793504,0.191
 69746,0.00390012,0.01250543,-0.04470493,0.00533391,-0.00432861,0.00037
 961,-0.00036275,-0.00062259,-0.00016745,-0.00045273,0.00088206,0.00033
 864,-0.00033271,0.00227410,0.00005560,-0.00081693,-0.00311496,0.005925
 51,0.00103086,0.00061240,0.00047656,-0.00153308,-0.00107089,0.00002831
 ,0.00000429,0.00014213,-0.00012557,0.04573131,0.02340283,0.01159404,0.
 01366012,-0.00995318,0.28045071,-0.00405211,0.00050023,0.00258259,0.00
 081254,-0.00445774,-0.00021703,-0.00018793,0.00027231,-0.00033508,-0.0
 0007703,0.00026893,0.00060021,-0.00014693,0.00059774,0.00012642,0.0005
 3329,-0.00006759,-0.00025440,0.00007638,0.00007633,0.00001010,0.000133
 76,0.00016279,-0.00001335,-0.00002719,0.00010187,0.00000184,0.00917698
 ,0.00610956,-0.00159886,-0.17719212,0.03994521,0.02298335,0.46785614,0
 .00168523,-0.00082719,0.00039880,-0.00184260,0.00203803,0.00083246,0.0
 0008910,-0.00013124,0.00024283,-0.00019686,-0.00044755,-0.00050588,0.0
 0019873,-0.00084262,-0.00027818,-0.00021712,0.00019928,0.00005479,-0.0
 0005573,-0.00004781,-0.00003873,-0.00000312,-0.00006319,0.00001625,-0.
 00000035,-0.00005199,-0.00000166,-0.00807897,-0.00942236,0.00193714,0.
 05036416,-0.09019351,-0.00205013,0.04806669,0.56757430,0.00162679,0.00
 101620,-0.00516417,0.00071636,0.00150029,0.00060489,0.00005719,-0.0000
 0259,0.00019465,-0.00022520,-0.00016698,-0.00047276,0.00011614,0.00011
 052,-0.00021290,-0.00022205,-0.00009018,0.00050805,0.00005959,-0.00001
 672,0.00003407,-0.00017060,-0.00010899,0.00006552,-0.00000465,-0.00001
 060,-0.00002717,0.00098804,0.00156178,0.00110915,0.03653783,-0.0055840
 3,-0.09918809,0.03865153,-0.02139664,0.59151307,0.00095668,0.00047219,
 -0.00233117,-0.00016550,0.00047581,-0.00009743,0.00004207,-0.00016883,
 0.00011013,-0.00000762,-0.00001870,-0.00004343,0.00005889,-0.00007352,
 0.00003581,-0.00009980,-0.00005958,0.00024769,0.00002561,0.00000197,0.
 00001461,-0.00008135,-0.00005051,0.00002263,0.00000903,0.00000134,-0.0
 0000978,-0.00025645,-0.00080246,0.00076286,-0.03299415,0.00941691,-0.0
 2710720,-0.11012429,0.01421749,-0.10780681,0.13339877,-0.00032277,0.00
 009292,0.00043507,-0.00002543,-0.00005628,-0.00023622,-0.00003610,-0.0
 0005554,0.00010886,0.00002734,0.00005257,0.00001155,0.00004150,0.00000
 913,0.00005211,0.00006440,-0.00001738,-0.00005753,0.00000213,0.0000034
 6,0.00000139,0.00001636,0.00002518,-0.00000322,-0.00000418,0.00000055,
 -0.00000931,0.00027178,0.00011592,0.00006181,0.01220745,-0.00134888,0.
 01019906,0.01442750,-0.05585688,0.02729134,-0.02369218,0.05374019,0.00
 013499,-0.00004678,0.00018427,-0.00009308,0.00010388,-0.00012996,-0.00
 002206,-0.00004569,0.00007171,0.00001530,0.00001853,-0.00001053,0.0000
 2431,-0.00003323,0.00003512,-0.00001314,-0.00000379,-0.00004428,-0.000
 00199,-0.00000382,-0.00000271,0.00000898,0.00001057,-0.00000790,0.0000
 0071,-0.00000095,-0.00000449,-0.00038396,-0.00028669,-0.00005239,0.008
 19527,-0.00295514,0.01497465,-0.11845283,0.03163994,-0.25172277,0.1232
 0235,-0.03225150,0.26227481,0.00077945,-0.00065513,0.00094167,-0.00071
 781,0.00052690,0.00001519,0.00002212,-0.00005572,0.00007375,0.00001964
 ,-0.00007720,-0.00006108,0.00005752,-0.00030895,-0.00000510,-0.0000863
 9,0.00011556,-0.00007757,-0.00004429,-0.00002207,-0.00002201,0.0000219
 9,-0.00000406,0.00000074,0.00001708,-0.00000837,0.00001393,-0.00327217
 ,-0.00306894,0.00029390,-0.03154003,-0.01903101,0.02533422,-0.09289775
 ,-0.07766875,0.05700164,0.00968146,0.01179729,-0.00834612,0.11384911,-
 0.00001443,0.00001619,-0.00006389,0.00020782,-0.00055593,-0.00013387,-
 0.00000333,0.00007336,-0.00014404,0.00004802,0.00011029,0.00021160,-0.
 00009825,0.00014230,0.00008576,0.00000375,-0.00002498,-0.00000452,0.00
 000363,0.00001134,0.00000849,0.00000171,-0.00000334,-0.00000246,0.0000
 0736,0.00000472,0.00001488,0.00124853,0.00142664,-0.00039251,0.0108095
 1,0.01425272,-0.01176330,-0.08569236,-0.18956476,0.10941695,-0.0010475
 1,-0.00174061,0.00080234,0.08568731,0.19547513,-0.00038910,0.00021744,
 0.00000561,0.00015596,-0.00032465,-0.00019912,-0.00000040,-0.00002136,
 -0.00001803,0.00001694,0.00007484,0.00012720,-0.00002785,0.00008295,0.
 00009739,0.00005300,-0.00003437,-0.00001313,0.00001013,0.00000880,0.00
 000829,0.00000667,0.00001118,-0.00000217,-0.00000300,0.00000040,-0.000
 00148,0.00101067,0.00095969,-0.00024916,0.00959461,0.00327428,-0.00305
 451,0.06239837,0.10489123,-0.13428321,0.01157676,0.02014599,-0.0137713
 3,-0.07416053,-0.11441704,0.13942525,-0.00019580,0.00023989,0.00060222
 ,-0.00019849,0.00044946,0.00036857,0.00002668,-0.00005273,-0.00001093,
 -0.00013052,-0.00028504,-0.00011502,0.00004340,-0.00010225,-0.00012003
 ,-0.00000586,0.00000018,0.00000294,-0.00000293,-0.00001093,-0.00000136
 ,-0.00000646,0.00000089,-0.00000481,-0.00001629,-0.00003138,-0.0000193
 9,-0.00085522,-0.00082415,-0.00014594,-0.01299046,0.03448949,0.0215544
 5,-0.05391272,-0.02879513,-0.01744375,0.00042156,-0.01433437,-0.006376
 84,0.00060380,-0.01064900,-0.00818923,0.06162651,-0.00015489,-0.000044
 68,-0.00032896,0.00005255,-0.00065911,-0.00006680,-0.00004894,0.000020
 02,-0.00007294,-0.00008414,0.00007428,0.00017603,-0.00007327,0.0000912
 0,0.00007652,0.00002101,-0.00001922,0.00000047,0.00001079,0.00000716,0
 .00000230,-0.00000121,0.00000938,-0.00000658,0.00000425,0.00002731,0.0
 0000571,0.00133405,0.00098724,-0.00034041,0.01142354,-0.00568050,-0.00
 587177,-0.02292808,-0.23933392,-0.10953287,-0.00083155,0.00581061,0.00
 292947,-0.00359569,-0.01776267,-0.01224708,0.01752379,0.25776123,-0.00
 010151,-0.00056676,0.00110742,0.00014298,-0.00068368,-0.00016995,0.000
 03294,0.00013397,-0.00029740,0.00013096,0.00012758,0.00035169,-0.00015
 664,0.00013750,0.00010270,0.00000764,0.00006181,-0.00012087,-0.0000214
 7,0.00000324,-0.00001071,0.00004336,0.00001894,-0.00001098,0.00001385,
 0.00001822,0.00003317,0.00023280,0.00098501,-0.00048354,0.00733445,-0.
 00675449,-0.00177740,-0.01355082,-0.10964414,-0.11906613,-0.00316929,-
 0.02387186,-0.01172660,0.00107706,0.01579867,0.01114029,0.00914681,0.1
 2490583,0.12170960,-0.03013332,-0.01652210,0.05801816,-0.00116070,-0.0
 0133876,-0.00164967,-0.00017175,0.00136921,-0.00038688,0.00061870,-0.0
 0004482,0.00067881,-0.00009425,-0.00044756,0.00015395,0.00333068,0.002
 63281,-0.00615247,-0.00085378,-0.00036367,-0.00042937,0.00188468,0.001
 23252,-0.00029960,-0.00021074,-0.00026834,0.00000384,-0.02338912,-0.00
 161948,-0.01110518,-0.07420355,-0.00556548,-0.02024034,-0.02749130,0.0
 0522343,-0.00827850,0.00183866,-0.00079866,0.00126744,0.00097533,-0.00
 039515,-0.00096487,0.00294421,-0.00148773,-0.00175292,0.06650701,-0.01
 104527,-0.00402693,0.01505945,-0.00001430,-0.00148338,0.00014675,-0.00
 006685,0.00036683,-0.00009955,-0.00000007,-0.00031228,0.00011139,0.000
 06318,0.00014214,-0.00012150,0.00003499,0.00110600,-0.00065678,-0.0002
 2487,-0.00004582,-0.00015992,0.00010068,0.00049683,-0.00006136,0.00006
 693,-0.00001069,-0.00009704,-0.00426149,0.00109466,-0.00540560,0.00038
 781,-0.03277457,-0.00756805,0.00631329,-0.00199607,0.01145424,0.002963
 28,-0.00109391,-0.00106167,-0.00091166,0.00041896,-0.00052869,0.000816
 98,-0.00034891,0.00045115,-0.01827282,0.05372678,0.00132353,-0.0004144
 3,0.04586831,-0.00140786,0.00021937,-0.00080784,-0.00008159,0.00076982
 ,-0.00026168,0.00050702,-0.00023881,0.00032700,-0.00004676,-0.00068690
 ,0.00002772,0.00269398,0.00199208,-0.00622120,-0.00061491,-0.00038034,
 -0.00023403,0.00171851,0.00128278,0.00003351,-0.00019004,-0.00018930,-
 0.00000085,-0.01545246,-0.00148177,-0.00792519,-0.05916429,-0.00435911
 ,-0.13595029,-0.00097201,0.00207365,0.02064958,0.00656667,-0.00241172,
 -0.00085322,0.00142977,0.00030484,-0.00029949,0.00206599,-0.00202085,-
 0.00082692,0.01240737,-0.02556429,0.15901258,-0.01976877,0.01914703,-0
 .03916372,0.01773047,-0.00945573,-0.00061656,-0.00064464,0.00122059,-0
 .00108999,-0.00097493,0.00287340,0.00186303,-0.00058410,0.00744775,0.0
 0084574,0.00132902,-0.00278044,0.00317965,0.00108914,0.00051291,0.0006
 0319,-0.00096300,-0.00029993,0.00007236,-0.00030952,0.00001904,-0.0003
 3576,-0.00399731,0.02037894,0.00448723,-0.02994703,0.01587097,-0.02193
 286,-0.02279274,0.00057307,0.00773430,0.00115171,-0.00101391,0.0003072
 7,0.00305091,-0.00001695,-0.00159573,0.00271015,-0.00202933,-0.0008537
 9,0.03742480,0.00896303,0.01427027,0.03740769,-0.00376006,0.02725136,-
 0.02986360,-0.00458220,-0.02186909,0.00155216,-0.00068756,0.00037490,-
 0.00006264,-0.00102919,0.00191828,0.00092886,0.00099003,0.00219050,0.0
 0000359,0.00236052,-0.00402670,0.00407185,0.00138720,0.00093722,0.0008
 5247,-0.00102311,-0.00032360,0.00004801,-0.00036989,-0.00013481,-0.000
 31319,0.04505765,-0.01485056,0.00752065,0.00143532,-0.06209571,0.01378
 076,-0.00497163,0.01960430,-0.01109648,0.00072789,-0.00017033,0.000776
 90,0.00701998,-0.00224634,-0.00216148,0.00236330,-0.00144663,-0.001629
 75,0.01952817,0.00148535,0.02423884,-0.04717701,0.06738279,-0.01419156
 ,-0.01496587,0.01936400,-0.00657842,0.00223703,-0.00020146,0.00046482,
 0.00072263,0.00051541,-0.00014860,-0.00163822,-0.00061915,0.00026752,-
 0.00223797,-0.00024909,-0.00161155,0.00311003,-0.00338946,-0.00103492,
 -0.00070603,-0.00047469,0.00063628,0.00027433,0.00002492,0.00020204,-0
 .00008733,0.00013421,-0.01138721,-0.00274450,-0.03216528,0.00176378,0.
 01388526,-0.03738461,0.00834336,-0.00615185,-0.00197935,-0.00153087,0.
 00004840,0.00029319,-0.00266670,0.00033782,0.00112921,-0.00066243,0.00
 138410,0.00032102,-0.00646873,0.01829879,-0.03110020,0.02002159,-0.016
 70070,0.09224193,-0.02070768,-0.01285035,-0.00667329,-0.00244753,-0.00
 146527,-0.00189315,-0.00025047,0.00118708,0.00023557,-0.00016567,0.000
 11301,0.00029789,0.00016760,0.00032219,-0.00014638,0.00285115,-0.00764
 768,-0.00452542,0.00087740,-0.00047995,0.00066207,0.00075579,0.0005479
 1,-0.00082367,-0.00024559,-0.00212427,-0.00098013,-0.00755342,0.024656
 46,-0.00173297,-0.00376260,0.00026259,-0.00106087,0.00103470,0.0000351
 2,-0.00012352,-0.00017145,0.00006014,-0.00004462,-0.00010686,-0.000013
 21,0.00008604,-0.00011303,0.00005579,0.00007348,0.00371006,0.00051957,
 0.00223043,0.00029421,0.00008345,0.00045269,0.03761765,-0.02625791,-0.
 02497058,0.01468906,0.00369256,0.00215357,0.00225092,0.00049099,-0.001
 47998,-0.00021700,-0.00011016,0.00002144,-0.00020155,-0.00027020,0.000
 15020,-0.00010201,0.00888563,-0.02596121,-0.01498567,0.00050013,0.0000
 9462,-0.00034679,0.00057744,-0.00077784,-0.00052134,-0.00400912,-0.002
 37730,-0.00151380,0.01479610,-0.02748840,0.00219490,0.00493814,0.00155
 667,0.00284619,-0.00053374,0.00014154,0.00049057,0.00027500,-0.0001098
 5,0.00000629,0.00011934,0.00000342,-0.00010628,-0.00021166,0.00012465,
 0.00004089,-0.00765937,-0.00173250,-0.00561107,-0.00155312,-0.00288984
 ,-0.00035561,-0.01888100,0.07710517,-0.01576173,0.00438702,-0.01723547
 ,-0.00082164,0.00099844,0.00071668,0.00006980,-0.00000397,0.00004382,-
 0.00035690,0.00076577,-0.00000515,0.00001405,0.00000802,-0.00010230,0.
 00451465,-0.01532710,-0.00535961,0.00122451,-0.00027078,0.00016717,-0.
 00076399,-0.00085104,0.00071919,-0.00198039,-0.00158721,0.00057348,-0.
 00222624,0.00335361,0.00763864,0.00325999,-0.00004561,0.00374772,-0.00
 043685,-0.00000499,0.00045778,0.00028411,-0.00005983,0.00002665,-0.000
 01672,0.00000186,-0.00005730,-0.00017184,0.00012820,-0.00005362,-0.007
 27679,-0.00144863,-0.00552983,0.00087876,-0.00025370,-0.00149053,-0.01
 258700,0.02816332,0.04589721,-0.24434042,-0.08221133,0.13490542,0.0015
 2966,0.00142486,0.00254447,0.00054883,-0.00163523,-0.00031480,-0.00019
 298,-0.00182611,-0.00075525,0.00010015,0.00072714,-0.00083775,-0.02634
 157,-0.01674255,0.03832145,0.00257058,0.00140321,0.00159834,-0.0063814
 0,-0.00602194,-0.00180130,0.00108204,-0.00025947,0.00032267,0.03615664
 ,0.00344058,0.00310217,-0.06043902,-0.00212236,-0.06569316,0.00927829,
 -0.00359439,-0.00921434,-0.00368383,0.00131170,0.00057801,-0.00041310,
 -0.00008745,0.00042155,0.00005145,0.00080908,0.00137010,0.03847437,0.0
 1456759,0.03271636,-0.02220606,-0.01735284,0.01412891,-0.01178427,0.02
 521097,0.03215422,0.28599064,-0.07292448,-0.11221432,0.05459393,-0.000
 91598,0.00463806,0.00097405,0.00026803,-0.00065547,0.00004269,-0.00043
 400,0.00048847,-0.00077647,-0.00009224,0.00000280,0.00012539,-0.022032
 80,-0.00132780,0.02219641,-0.00121210,-0.00006006,0.00032343,-0.005305
 20,-0.00180236,-0.00069582,0.00209702,0.00278140,0.00148041,0.01019719
 ,-0.00336711,0.03673090,-0.01989541,0.01253704,-0.02030150,0.00180870,
 -0.00077836,-0.00483581,-0.00180703,0.00059913,0.00040135,0.00014119,-
 0.00003644,0.00017415,-0.00058735,0.00038256,0.00046786,0.02479781,-0.
 01501250,0.01247719,-0.01268029,-0.01109109,0.00528969,0.01561842,0.00
 643623,-0.01795341,0.08295853,0.11847982,0.18420434,0.08679451,-0.2811
 7056,0.00085614,-0.01035040,-0.00711210,-0.00071428,0.00289746,0.00081
 383,-0.00083916,0.00203637,0.00190617,-0.00003273,0.00132694,0.0001022
 6,0.01022781,0.00462138,0.00205164,0.00126514,-0.00031150,-0.00006444,
 -0.00105302,-0.00070608,0.00172079,-0.00048220,0.00148663,0.00024172,-
 0.01339522,0.03261450,-0.05627161,-0.02494370,-0.00788184,0.00438152,0
 .00013347,-0.00201488,-0.00302021,-0.00072766,0.00054557,0.00046579,-0
 .00082605,-0.00006157,0.00001569,-0.00047942,0.00087962,-0.00022177,-0
 .00752425,-0.00274869,-0.03590796,0.01132503,0.00830745,-0.00497008,0.
 02655286,-0.02672101,-0.03015451,-0.18354710,-0.09071445,0.40719384\\-
 0.00000118,0.00001168,0.00000752,-0.00000514,-0.00000440,-0.00001051,-
 0.00000870,-0.00001213,-0.00001034,-0.00000854,0.00000031,-0.00001073,
 -0.00001075,-0.00000124,-0.00001280,-0.00000212,0.00001542,-0.00000136
 ,0.00000059,0.00002198,0.00000061,-0.00000392,0.00001185,-0.00000407,-
 0.00000644,0.00001659,-0.00000736,-0.00000167,-0.00000324,0.00000431,0
 .00000046,-0.00000991,-0.00000248,0.00000419,-0.00001256,0.00000634,0.
 00000363,-0.00002089,0.00000400,0.00000796,-0.00001082,0.00000953,0.00
 000002,-0.00000897,-0.00000091,0.00000556,0.00000577,0.00001948,0.0000
 0660,-0.00001204,0.00000066,0.00000828,0.00000202,0.00001039,0.0000111
 7,0.00001058,-0.00000228\\\@


 ONE OF THE BENEFITS OF A COLLEGE EDUCATION
 IS TO SHOW THE BOY ITS LITTLE AVAIL 
                                    EMERSON IN 'CULTURE'
 Job cpu time:       1 days 15 hours 56 minutes  0.4 seconds.
 File lengths (MBytes):  RWF=    392 Int=      0 D2E=      0 Chk=     26 Scr=      1
 Normal termination of Gaussian 09 at Sat Mar 28 08:05:00 2015.
