 Entering Link 1 = C:\G09W\l1.exe PID=      6660.
  
 Copyright (c) 1988,1990,1992,1993,1995,1998,2003,2009, Gaussian, Inc.
                  All Rights Reserved.
  
 This is part of the Gaussian(R) 09 program.  It is based on
 the Gaussian(R) 03 system (copyright 2003, Gaussian, Inc.),
 the Gaussian(R) 98 system (copyright 1998, Gaussian, Inc.),
 the Gaussian(R) 94 system (copyright 1995, Gaussian, Inc.),
 the Gaussian 92(TM) system (copyright 1992, Gaussian, Inc.),
 the Gaussian 90(TM) system (copyright 1990, Gaussian, Inc.),
 the Gaussian 88(TM) system (copyright 1988, Gaussian, Inc.),
 the Gaussian 86(TM) system (copyright 1986, Carnegie Mellon
 University), and the Gaussian 82(TM) system (copyright 1983,
 Carnegie Mellon University). Gaussian is a federally registered
 trademark of Gaussian, Inc.
  
 This software contains proprietary and confidential information,
 including trade secrets, belonging to Gaussian, Inc.
  
 This software is provided under written license and may be
 used, copied, transmitted, or stored only in accord with that
 written license.
  
 The following legend is applicable only to US Government
 contracts under FAR:
  
                    RESTRICTED RIGHTS LEGEND
  
 Use, reproduction and disclosure by the US Government is
 subject to restrictions as set forth in subparagraphs (a)
 and (c) of the Commercial Computer Software - Restricted
 Rights clause in FAR 52.227-19.
  
 Gaussian, Inc.
 340 Quinnipiac St., Bldg. 40, Wallingford CT 06492
  
  
 ---------------------------------------------------------------
 Warning -- This program may not be used in any manner that
 competes with the business of Gaussian, Inc. or will provide
 assistance to any competitor of Gaussian, Inc.  The licensee
 of this program is prohibited from giving any competitor of
 Gaussian, Inc. access to this program.  By using this program,
 the user acknowledges that Gaussian, Inc. is engaged in the
 business of creating and licensing software in the field of
 computational chemistry and represents and warrants to the
 licensee that it is not a competitor of Gaussian, Inc. and that
 it will not use this program in any manner prohibited above.
 ---------------------------------------------------------------
  

 Cite this work as:
 Gaussian 09, Revision A.02,
 M. J. Frisch, G. W. Trucks, H. B. Schlegel, G. E. Scuseria, 
 M. A. Robb, J. R. Cheeseman, G. Scalmani, V. Barone, B. Mennucci, 
 G. A. Petersson, H. Nakatsuji, M. Caricato, X. Li, H. P. Hratchian, 
 A. F. Izmaylov, J. Bloino, G. Zheng, J. L. Sonnenberg, M. Hada, 
 M. Ehara, K. Toyota, R. Fukuda, J. Hasegawa, M. Ishida, T. Nakajima, 
 Y. Honda, O. Kitao, H. Nakai, T. Vreven, J. A. Montgomery, Jr., 
 J. E. Peralta, F. Ogliaro, M. Bearpark, J. J. Heyd, E. Brothers, 
 K. N. Kudin, V. N. Staroverov, R. Kobayashi, J. Normand, 
 K. Raghavachari, A. Rendell, J. C. Burant, S. S. Iyengar, J. Tomasi, 
 M. Cossi, N. Rega, J. M. Millam, M. Klene, J. E. Knox, J. B. Cross, 
 V. Bakken, C. Adamo, J. Jaramillo, R. Gomperts, R. E. Stratmann, 
 O. Yazyev, A. J. Austin, R. Cammi, C. Pomelli, J. W. Ochterski, 
 R. L. Martin, K. Morokuma, V. G. Zakrzewski, G. A. Voth, 
 P. Salvador, J. J. Dannenberg, S. Dapprich, A. D. Daniels, 
 O. Farkas, J. B. Foresman, J. V. Ortiz, J. Cioslowski, 
 and D. J. Fox, Gaussian, Inc., Wallingford CT, 2009.
 
 ******************************************
 Gaussian 09:  IA32W-G09RevA.02 11-Jun-2009
                22-Feb-2015 
 ******************************************
 ----------------------------------------------------------------------
 # opt=(calcfc,ts,noeigentest) freq=noraman b3lyp/gen geom=connectivity
  gfinput pseudo=read
 ----------------------------------------------------------------------
 1/5=1,10=4,11=1,14=-1,18=20,26=3,38=1,57=2/1,3;
 2/9=110,12=2,17=6,18=5,40=1/2;
 3/5=7,11=2,16=1,17=8,24=10,25=1,30=1,71=2,74=-5/1,2,3;
 4//1;
 5/5=2,38=5/2;
 8/6=4,10=90,11=11/1;
 11/6=1,8=1,9=11,15=111,16=1/1,2,10;
 10/6=1,7=6,13=1/2;
 6/7=2,8=2,9=2,10=2,28=1/1;
 7/10=1,18=20,25=1/1,2,3,16;
 1/5=1,10=4,11=1,14=-1,18=20/3(2);
 2/9=110/2;
 99//99;
 2/9=110/2;
 3/5=7,6=1,11=2,16=1,17=8,25=1,30=1,71=1,74=-5,82=7/1,2,3;
 4/5=5,16=3/1;
 5/5=2,38=5/2;
 7//1,2,3,16;
 1/5=1,11=1,14=-1,18=20/3(-5);
 2/9=110/2;
 6/7=2,8=2,9=2,10=2,19=2,28=1/1;
 99/9=1/99;
 -------------------------
 gen calculation-ts624Br C H O=6-31+g(d)/Br=lanl2dz
 -------------------------
 Symbolic Z-matrix:
 Charge =  0 Multiplicity = 1
 C                     0.33038   0.69926   0.5392 
 O                    -0.46974   0.30491   1.42788 
 O                    -0.49919   0.73618  -0.80576 
 O                    -1.76908  -1.22886   0.03526 
 C                    -3.19964  -1.02694   0.19232 
 H                    -3.41452  -0.02289   0.56854 
 H                    -3.63223  -1.19421  -0.80062 
 H                    -3.54919  -1.79415   0.8948 
 H                    -1.27435  -0.30214  -0.66393 
 H                    -1.09993  -0.66443   1.07102 
 C                     1.15357   1.93757   0.68818 
 H                     1.98117   1.76351   1.399 
 H                     1.6099    2.25755  -0.26041 
 H                     0.55782   2.76744   1.09489 
 C                    -1.3556    1.89806  -0.97338 
 H                    -0.70379   2.74558  -1.21125 
 H                    -1.99979   1.66881  -1.82754 
 H                    -1.93096   2.08522  -0.06265 
 Br                    1.54154  -0.81716  -0.22985 
 

 GradGradGradGradGradGradGradGradGradGradGradGradGradGradGradGradGradGrad
 Berny optimization.
 Initialization pass.
                           ----------------------------
                           !    Initial Parameters    !
                           ! (Angstroms and Degrees)  !
 --------------------------                            --------------------------
 ! Name  Definition              Value          Derivative Info.                !
 --------------------------------------------------------------------------------
 ! R1    R(1,2)                  1.2592         calculate D2E/DX2 analytically  !
 ! R2    R(1,3)                  1.5807         calculate D2E/DX2 analytically  !
 ! R3    R(1,11)                 1.4944         calculate D2E/DX2 analytically  !
 ! R4    R(1,19)                 2.0876         calculate D2E/DX2 analytically  !
 ! R5    R(2,10)                 1.21           calculate D2E/DX2 analytically  !
 ! R6    R(3,9)                  1.3035         calculate D2E/DX2 analytically  !
 ! R7    R(3,15)                 1.4531         calculate D2E/DX2 analytically  !
 ! R8    R(4,5)                  1.4532         calculate D2E/DX2 analytically  !
 ! R9    R(4,9)                  1.2619         calculate D2E/DX2 analytically  !
 ! R10   R(4,10)                 1.3561         calculate D2E/DX2 analytically  !
 ! R11   R(5,6)                  1.0935         calculate D2E/DX2 analytically  !
 ! R12   R(5,7)                  1.0959         calculate D2E/DX2 analytically  !
 ! R13   R(5,8)                  1.0974         calculate D2E/DX2 analytically  !
 ! R14   R(11,12)                1.1048         calculate D2E/DX2 analytically  !
 ! R15   R(11,13)                1.1002         calculate D2E/DX2 analytically  !
 ! R16   R(11,14)                1.0996         calculate D2E/DX2 analytically  !
 ! R17   R(15,16)                1.0953         calculate D2E/DX2 analytically  !
 ! R18   R(15,17)                1.0941         calculate D2E/DX2 analytically  !
 ! R19   R(15,18)                1.0934         calculate D2E/DX2 analytically  !
 ! A1    A(2,1,3)              105.9236         calculate D2E/DX2 analytically  !
 ! A2    A(2,1,11)             122.6289         calculate D2E/DX2 analytically  !
 ! A3    A(2,1,19)             113.6518         calculate D2E/DX2 analytically  !
 ! A4    A(3,1,11)             110.7673         calculate D2E/DX2 analytically  !
 ! A5    A(3,1,19)              90.4579         calculate D2E/DX2 analytically  !
 ! A6    A(11,1,19)            108.6058         calculate D2E/DX2 analytically  !
 ! A7    A(1,2,10)             111.9436         calculate D2E/DX2 analytically  !
 ! A8    A(1,3,9)              101.5907         calculate D2E/DX2 analytically  !
 ! A9    A(1,3,15)             115.2232         calculate D2E/DX2 analytically  !
 ! A10   A(9,3,15)             107.3964         calculate D2E/DX2 analytically  !
 ! A11   A(5,4,9)              110.1066         calculate D2E/DX2 analytically  !
 ! A12   A(5,4,10)             110.203          calculate D2E/DX2 analytically  !
 ! A13   A(9,4,10)              85.6459         calculate D2E/DX2 analytically  !
 ! A14   A(4,5,6)              110.9886         calculate D2E/DX2 analytically  !
 ! A15   A(4,5,7)              105.6308         calculate D2E/DX2 analytically  !
 ! A16   A(4,5,8)              106.5944         calculate D2E/DX2 analytically  !
 ! A17   A(6,5,7)              111.9805         calculate D2E/DX2 analytically  !
 ! A18   A(6,5,8)              111.0443         calculate D2E/DX2 analytically  !
 ! A19   A(7,5,8)              110.337          calculate D2E/DX2 analytically  !
 ! A20   A(3,9,4)              151.4504         calculate D2E/DX2 analytically  !
 ! A21   A(2,10,4)             144.652          calculate D2E/DX2 analytically  !
 ! A22   A(1,11,12)            110.258          calculate D2E/DX2 analytically  !
 ! A23   A(1,11,13)            112.552          calculate D2E/DX2 analytically  !
 ! A24   A(1,11,14)            111.3342         calculate D2E/DX2 analytically  !
 ! A25   A(12,11,13)           106.8499         calculate D2E/DX2 analytically  !
 ! A26   A(12,11,14)           106.6668         calculate D2E/DX2 analytically  !
 ! A27   A(13,11,14)           108.9128         calculate D2E/DX2 analytically  !
 ! A28   A(3,15,16)            107.0385         calculate D2E/DX2 analytically  !
 ! A29   A(3,15,17)            105.6361         calculate D2E/DX2 analytically  !
 ! A30   A(3,15,18)            110.5436         calculate D2E/DX2 analytically  !
 ! A31   A(16,15,17)           110.057          calculate D2E/DX2 analytically  !
 ! A32   A(16,15,18)           111.1976         calculate D2E/DX2 analytically  !
 ! A33   A(17,15,18)           112.1046         calculate D2E/DX2 analytically  !
 ! D1    D(3,1,2,10)            47.0187         calculate D2E/DX2 analytically  !
 ! D2    D(11,1,2,10)          175.3698         calculate D2E/DX2 analytically  !
 ! D3    D(19,1,2,10)          -50.6836         calculate D2E/DX2 analytically  !
 ! D4    D(2,1,3,9)            -36.2918         calculate D2E/DX2 analytically  !
 ! D5    D(2,1,3,15)            79.4291         calculate D2E/DX2 analytically  !
 ! D6    D(11,1,3,9)          -171.353          calculate D2E/DX2 analytically  !
 ! D7    D(11,1,3,15)          -55.6322         calculate D2E/DX2 analytically  !
 ! D8    D(19,1,3,9)            78.5099         calculate D2E/DX2 analytically  !
 ! D9    D(19,1,3,15)         -165.7693         calculate D2E/DX2 analytically  !
 ! D10   D(2,1,11,12)           74.2756         calculate D2E/DX2 analytically  !
 ! D11   D(2,1,11,13)         -166.5263         calculate D2E/DX2 analytically  !
 ! D12   D(2,1,11,14)          -43.9119         calculate D2E/DX2 analytically  !
 ! D13   D(3,1,11,12)         -159.483          calculate D2E/DX2 analytically  !
 ! D14   D(3,1,11,13)          -40.2849         calculate D2E/DX2 analytically  !
 ! D15   D(3,1,11,14)           82.3295         calculate D2E/DX2 analytically  !
 ! D16   D(19,1,11,12)         -61.6272         calculate D2E/DX2 analytically  !
 ! D17   D(19,1,11,13)          57.5709         calculate D2E/DX2 analytically  !
 ! D18   D(19,1,11,14)        -179.8147         calculate D2E/DX2 analytically  !
 ! D19   D(1,2,10,4)           -41.8152         calculate D2E/DX2 analytically  !
 ! D20   D(1,3,9,4)             11.1481         calculate D2E/DX2 analytically  !
 ! D21   D(15,3,9,4)          -110.1928         calculate D2E/DX2 analytically  !
 ! D22   D(1,3,15,16)           74.2816         calculate D2E/DX2 analytically  !
 ! D23   D(1,3,15,17)         -168.4437         calculate D2E/DX2 analytically  !
 ! D24   D(1,3,15,18)          -46.9647         calculate D2E/DX2 analytically  !
 ! D25   D(9,3,15,16)         -173.3643         calculate D2E/DX2 analytically  !
 ! D26   D(9,3,15,17)          -56.0896         calculate D2E/DX2 analytically  !
 ! D27   D(9,3,15,18)           65.3894         calculate D2E/DX2 analytically  !
 ! D28   D(9,4,5,6)            -52.8271         calculate D2E/DX2 analytically  !
 ! D29   D(9,4,5,7)             68.7482         calculate D2E/DX2 analytically  !
 ! D30   D(9,4,5,8)           -173.8679         calculate D2E/DX2 analytically  !
 ! D31   D(10,4,5,6)            39.9565         calculate D2E/DX2 analytically  !
 ! D32   D(10,4,5,7)           161.5319         calculate D2E/DX2 analytically  !
 ! D33   D(10,4,5,8)           -81.0843         calculate D2E/DX2 analytically  !
 ! D34   D(5,4,9,3)            114.2759         calculate D2E/DX2 analytically  !
 ! D35   D(10,4,9,3)             4.3411         calculate D2E/DX2 analytically  !
 ! D36   D(5,4,10,2)           -99.308          calculate D2E/DX2 analytically  !
 ! D37   D(9,4,10,2)            10.5291         calculate D2E/DX2 analytically  !
 --------------------------------------------------------------------------------
 Trust Radius=3.00D-01 FncErr=1.00D-07 GrdErr=1.00D-06
 Number of steps in this run=  99 maximum allowed number of steps= 114.
 Search for a saddle point of order  1.
 GradGradGradGradGradGradGradGradGradGradGradGradGradGradGradGradGradGrad

                          Input orientation:                          
 ---------------------------------------------------------------------
 Center     Atomic      Atomic             Coordinates (Angstroms)
 Number     Number       Type             X           Y           Z
 ---------------------------------------------------------------------
      1          6           0        0.330379    0.699264    0.539201
      2          8           0       -0.469744    0.304911    1.427881
      3          8           0       -0.499185    0.736182   -0.805759
      4          8           0       -1.769083   -1.228857    0.035261
      5          6           0       -3.199641   -1.026938    0.192321
      6          1           0       -3.414516   -0.022893    0.568539
      7          1           0       -3.632232   -1.194213   -0.800617
      8          1           0       -3.549185   -1.794145    0.894796
      9          1           0       -1.274353   -0.302135   -0.663933
     10          1           0       -1.099930   -0.664426    1.071017
     11          6           0        1.153574    1.937566    0.688178
     12          1           0        1.981174    1.763510    1.399000
     13          1           0        1.609898    2.257549   -0.260406
     14          1           0        0.557820    2.767438    1.094885
     15          6           0       -1.355602    1.898060   -0.973382
     16          1           0       -0.703793    2.745578   -1.211252
     17          1           0       -1.999794    1.668812   -1.827537
     18          1           0       -1.930964    2.085221   -0.062646
     19         35           0        1.541536   -0.817156   -0.229851
 ---------------------------------------------------------------------
                    Distance matrix (angstroms):
                    1          2          3          4          5
     1  C    0.000000
     2  O    1.259152   0.000000
     3  O    1.580651   2.275084   0.000000
     4  O    2.894710   2.445428   2.486229   0.000000
     5  C    3.944761   3.279141   3.375977   1.453250   0.000000
     6  H    3.814002   3.085062   3.311200   2.108598   1.093534
     7  H    4.591585   4.149085   3.680005   2.042356   1.095921
     8  H    4.625425   3.764727   4.312417   2.055995   1.097387
     9  H    2.241762   2.321979   1.303496   1.261921   2.228283
    10  H    2.046524   1.210000   2.417620   1.356149   2.304845
    11  C    1.494402   2.418240   2.531162   4.358263   5.290051
    12  H    2.144061   2.852252   3.473981   4.987832   6.006956
    13  H    2.169053   3.314818   2.657103   4.864150   5.841616
    14  H    2.153569   2.689017   2.975854   4.744223   5.415757
    15  C    2.562723   3.014786   1.453103   3.311486   3.648967
    16  H    2.884614   3.602313   2.060088   4.299392   4.736154
    17  H    3.459939   3.846950   2.040994   3.452496   3.575825
    18  H    2.719700   2.743417   2.102882   3.319473   3.370472
    19  Br   2.087552   2.837668   2.628511   3.346637   4.764556
                    6          7          8          9         10
     6  H    0.000000
     7  H    1.814932   0.000000
     8  H    1.806077   1.800345   0.000000
     9  H    2.485410   2.524694   3.135377   0.000000
    10  H    2.453846   3.193156   2.702993   1.780935   0.000000
    11  C    4.972440   5.910033   6.007021   3.569215   3.463410
    12  H    5.744073   6.715413   6.595150   4.372761   3.936451
    13  H    5.579633   6.299716   6.660845   3.877334   4.201642
    14  H    4.882872   6.069938   6.141300   3.984040   3.811351
    15  C    3.210406   3.843832   4.683404   2.223335   3.288050
    16  H    4.263814   4.926087   5.756803   3.148595   4.122354
    17  H    3.256453   3.452004   4.669452   2.401015   3.828234
    18  H    2.653953   3.767440   4.311011   2.547970   3.088101
    19  Br   5.082394   5.218795   5.304223   2.895325   2.948377
                   11         12         13         14         15
    11  C    0.000000
    12  H    1.104756   0.000000
    13  H    1.100196   1.770748   0.000000
    14  H    1.099555   1.768133   1.789879   0.000000
    15  C    3.009702   4.096385   3.071117   2.948683   0.000000
    16  H    2.776784   3.871294   2.548617   2.628766   1.095319
    17  H    4.042868   5.125194   3.978993   4.035953   1.094129
    18  H    3.178036   4.188643   3.550565   2.828311   1.093394
    19  Br   2.929468   3.083225   3.075617   3.946129   4.039634
                   16         17         18         19
    16  H    0.000000
    17  H    1.794116   0.000000
    18  H    1.805911   1.814655   0.000000
    19  Br   4.324086   4.612337   4.528797   0.000000
 Stoichiometry    C4H11BrO3
 Framework group  C1[X(C4H11BrO3)]
 Deg. of freedom    51
 Full point group                 C1      NOp   1
 Largest Abelian subgroup         C1      NOp   1
 Largest concise Abelian subgroup C1      NOp   1
                         Standard orientation:                         
 ---------------------------------------------------------------------
 Center     Atomic      Atomic             Coordinates (Angstroms)
 Number     Number       Type             X           Y           Z
 ---------------------------------------------------------------------
      1          6           0        0.326218    0.698934    0.536560
      2          8           0       -0.472205    0.303629    1.426346
      3          8           0       -0.503859    0.729839   -0.808235
      4          8           0       -1.766326   -1.237960    0.037508
      5          6           0       -3.197567   -1.040923    0.194540
      6          1           0       -3.416004   -0.036839    0.568596
      7          1           0       -3.629827   -1.211977   -0.797898
      8          1           0       -3.544104   -1.807844    0.898815
      9          1           0       -1.275186   -0.310987   -0.663882
     10          1           0       -1.098945   -0.668793    1.071815
     11          6           0        1.144923    1.940563    0.682553
     12          1           0        1.973356    1.771108    1.393516
     13          1           0        1.599804    2.260109   -0.266871
     14          1           0        0.546255    2.769151    1.087596
     15          6           0       -1.364566    1.888205   -0.978179
     16          1           0       -0.715927    2.737571   -1.218117
     17          1           0       -2.008159    1.654713   -1.831635
     18          1           0       -1.940348    2.075280   -0.067691
     19         35           0        1.542690   -0.814750   -0.229487
 ---------------------------------------------------------------------
 Rotational constants (GHZ):      1.6516063      0.9351675      0.7348685
 General basis read from cards:  (5D, 7F)
 AO basis set in the form of general basis input (Overlap normalization):
      1 0
 S   6 1.00       0.000000000000
      0.3047524880D+04  0.1834737132D-02
      0.4573695180D+03  0.1403732281D-01
      0.1039486850D+03  0.6884262226D-01
      0.2921015530D+02  0.2321844432D+00
      0.9286662960D+01  0.4679413484D+00
      0.3163926960D+01  0.3623119853D+00
 SP   3 1.00       0.000000000000
      0.7868272350D+01 -0.1193324198D+00  0.6899906659D-01
      0.1881288540D+01 -0.1608541517D+00  0.3164239610D+00
      0.5442492580D+00  0.1143456438D+01  0.7443082909D+00
 SP   1 1.00       0.000000000000
      0.1687144782D+00  0.1000000000D+01  0.1000000000D+01
 SP   1 1.00       0.000000000000
      0.4380000000D-01  0.1000000000D+01  0.1000000000D+01
 D   1 1.00       0.000000000000
      0.8000000000D+00  0.1000000000D+01
 ****
      2 0
 S   6 1.00       0.000000000000
      0.5484671660D+04  0.1831074430D-02
      0.8252349460D+03  0.1395017220D-01
      0.1880469580D+03  0.6844507810D-01
      0.5296450000D+02  0.2327143360D+00
      0.1689757040D+02  0.4701928980D+00
      0.5799635340D+01  0.3585208530D+00
 SP   3 1.00       0.000000000000
      0.1553961625D+02 -0.1107775495D+00  0.7087426823D-01
      0.3599933586D+01 -0.1480262627D+00  0.3397528391D+00
      0.1013761750D+01  0.1130767015D+01  0.7271585773D+00
 SP   1 1.00       0.000000000000
      0.2700058226D+00  0.1000000000D+01  0.1000000000D+01
 SP   1 1.00       0.000000000000
      0.8450000000D-01  0.1000000000D+01  0.1000000000D+01
 D   1 1.00       0.000000000000
      0.8000000000D+00  0.1000000000D+01
 ****
      3 0
 S   6 1.00       0.000000000000
      0.5484671660D+04  0.1831074430D-02
      0.8252349460D+03  0.1395017220D-01
      0.1880469580D+03  0.6844507810D-01
      0.5296450000D+02  0.2327143360D+00
      0.1689757040D+02  0.4701928980D+00
      0.5799635340D+01  0.3585208530D+00
 SP   3 1.00       0.000000000000
      0.1553961625D+02 -0.1107775495D+00  0.7087426823D-01
      0.3599933586D+01 -0.1480262627D+00  0.3397528391D+00
      0.1013761750D+01  0.1130767015D+01  0.7271585773D+00
 SP   1 1.00       0.000000000000
      0.2700058226D+00  0.1000000000D+01  0.1000000000D+01
 SP   1 1.00       0.000000000000
      0.8450000000D-01  0.1000000000D+01  0.1000000000D+01
 D   1 1.00       0.000000000000
      0.8000000000D+00  0.1000000000D+01
 ****
      4 0
 S   6 1.00       0.000000000000
      0.5484671660D+04  0.1831074430D-02
      0.8252349460D+03  0.1395017220D-01
      0.1880469580D+03  0.6844507810D-01
      0.5296450000D+02  0.2327143360D+00
      0.1689757040D+02  0.4701928980D+00
      0.5799635340D+01  0.3585208530D+00
 SP   3 1.00       0.000000000000
      0.1553961625D+02 -0.1107775495D+00  0.7087426823D-01
      0.3599933586D+01 -0.1480262627D+00  0.3397528391D+00
      0.1013761750D+01  0.1130767015D+01  0.7271585773D+00
 SP   1 1.00       0.000000000000
      0.2700058226D+00  0.1000000000D+01  0.1000000000D+01
 SP   1 1.00       0.000000000000
      0.8450000000D-01  0.1000000000D+01  0.1000000000D+01
 D   1 1.00       0.000000000000
      0.8000000000D+00  0.1000000000D+01
 ****
      5 0
 S   6 1.00       0.000000000000
      0.3047524880D+04  0.1834737132D-02
      0.4573695180D+03  0.1403732281D-01
      0.1039486850D+03  0.6884262226D-01
      0.2921015530D+02  0.2321844432D+00
      0.9286662960D+01  0.4679413484D+00
      0.3163926960D+01  0.3623119853D+00
 SP   3 1.00       0.000000000000
      0.7868272350D+01 -0.1193324198D+00  0.6899906659D-01
      0.1881288540D+01 -0.1608541517D+00  0.3164239610D+00
      0.5442492580D+00  0.1143456438D+01  0.7443082909D+00
 SP   1 1.00       0.000000000000
      0.1687144782D+00  0.1000000000D+01  0.1000000000D+01
 SP   1 1.00       0.000000000000
      0.4380000000D-01  0.1000000000D+01  0.1000000000D+01
 D   1 1.00       0.000000000000
      0.8000000000D+00  0.1000000000D+01
 ****
      6 0
 S   3 1.00       0.000000000000
      0.1873113696D+02  0.3349460434D-01
      0.2825394365D+01  0.2347269535D+00
      0.6401216923D+00  0.8137573261D+00
 S   1 1.00       0.000000000000
      0.1612777588D+00  0.1000000000D+01
 ****
      7 0
 S   3 1.00       0.000000000000
      0.1873113696D+02  0.3349460434D-01
      0.2825394365D+01  0.2347269535D+00
      0.6401216923D+00  0.8137573261D+00
 S   1 1.00       0.000000000000
      0.1612777588D+00  0.1000000000D+01
 ****
      8 0
 S   3 1.00       0.000000000000
      0.1873113696D+02  0.3349460434D-01
      0.2825394365D+01  0.2347269535D+00
      0.6401216923D+00  0.8137573261D+00
 S   1 1.00       0.000000000000
      0.1612777588D+00  0.1000000000D+01
 ****
      9 0
 S   3 1.00       0.000000000000
      0.1873113696D+02  0.3349460434D-01
      0.2825394365D+01  0.2347269535D+00
      0.6401216923D+00  0.8137573261D+00
 S   1 1.00       0.000000000000
      0.1612777588D+00  0.1000000000D+01
 ****
     10 0
 S   3 1.00       0.000000000000
      0.1873113696D+02  0.3349460434D-01
      0.2825394365D+01  0.2347269535D+00
      0.6401216923D+00  0.8137573261D+00
 S   1 1.00       0.000000000000
      0.1612777588D+00  0.1000000000D+01
 ****
     11 0
 S   6 1.00       0.000000000000
      0.3047524880D+04  0.1834737132D-02
      0.4573695180D+03  0.1403732281D-01
      0.1039486850D+03  0.6884262226D-01
      0.2921015530D+02  0.2321844432D+00
      0.9286662960D+01  0.4679413484D+00
      0.3163926960D+01  0.3623119853D+00
 SP   3 1.00       0.000000000000
      0.7868272350D+01 -0.1193324198D+00  0.6899906659D-01
      0.1881288540D+01 -0.1608541517D+00  0.3164239610D+00
      0.5442492580D+00  0.1143456438D+01  0.7443082909D+00
 SP   1 1.00       0.000000000000
      0.1687144782D+00  0.1000000000D+01  0.1000000000D+01
 SP   1 1.00       0.000000000000
      0.4380000000D-01  0.1000000000D+01  0.1000000000D+01
 D   1 1.00       0.000000000000
      0.8000000000D+00  0.1000000000D+01
 ****
     12 0
 S   3 1.00       0.000000000000
      0.1873113696D+02  0.3349460434D-01
      0.2825394365D+01  0.2347269535D+00
      0.6401216923D+00  0.8137573261D+00
 S   1 1.00       0.000000000000
      0.1612777588D+00  0.1000000000D+01
 ****
     13 0
 S   3 1.00       0.000000000000
      0.1873113696D+02  0.3349460434D-01
      0.2825394365D+01  0.2347269535D+00
      0.6401216923D+00  0.8137573261D+00
 S   1 1.00       0.000000000000
      0.1612777588D+00  0.1000000000D+01
 ****
     14 0
 S   3 1.00       0.000000000000
      0.1873113696D+02  0.3349460434D-01
      0.2825394365D+01  0.2347269535D+00
      0.6401216923D+00  0.8137573261D+00
 S   1 1.00       0.000000000000
      0.1612777588D+00  0.1000000000D+01
 ****
     15 0
 S   6 1.00       0.000000000000
      0.3047524880D+04  0.1834737132D-02
      0.4573695180D+03  0.1403732281D-01
      0.1039486850D+03  0.6884262226D-01
      0.2921015530D+02  0.2321844432D+00
      0.9286662960D+01  0.4679413484D+00
      0.3163926960D+01  0.3623119853D+00
 SP   3 1.00       0.000000000000
      0.7868272350D+01 -0.1193324198D+00  0.6899906659D-01
      0.1881288540D+01 -0.1608541517D+00  0.3164239610D+00
      0.5442492580D+00  0.1143456438D+01  0.7443082909D+00
 SP   1 1.00       0.000000000000
      0.1687144782D+00  0.1000000000D+01  0.1000000000D+01
 SP   1 1.00       0.000000000000
      0.4380000000D-01  0.1000000000D+01  0.1000000000D+01
 D   1 1.00       0.000000000000
      0.8000000000D+00  0.1000000000D+01
 ****
     16 0
 S   3 1.00       0.000000000000
      0.1873113696D+02  0.3349460434D-01
      0.2825394365D+01  0.2347269535D+00
      0.6401216923D+00  0.8137573261D+00
 S   1 1.00       0.000000000000
      0.1612777588D+00  0.1000000000D+01
 ****
     17 0
 S   3 1.00       0.000000000000
      0.1873113696D+02  0.3349460434D-01
      0.2825394365D+01  0.2347269535D+00
      0.6401216923D+00  0.8137573261D+00
 S   1 1.00       0.000000000000
      0.1612777588D+00  0.1000000000D+01
 ****
     18 0
 S   3 1.00       0.000000000000
      0.1873113696D+02  0.3349460434D-01
      0.2825394365D+01  0.2347269535D+00
      0.6401216923D+00  0.8137573261D+00
 S   1 1.00       0.000000000000
      0.1612777588D+00  0.1000000000D+01
 ****
     19 0
 S   2 1.00       0.000000000000
      0.1159000000D+01 -0.3037876889D+01
      0.7107000000D+00  0.3370373488D+01
 S   1 1.00       0.000000000000
      0.1905000000D+00  0.1000000000D+01
 P   2 1.00       0.000000000000
      0.2691000000D+01 -0.1189799989D+00
      0.4446000000D+00  0.1042447090D+01
 P   1 1.00       0.000000000000
      0.1377000000D+00  0.1000000000D+01
 ****

 ======================================================================================================
                                       Pseudopotential Parameters
 ======================================================================================================
  Center     Atomic      Valence      Angular      Power
  Number     Number     Electrons     Momentum     of R      Exponent        Coefficient   SO-Coeffient
 ======================================================================================================
    1          6
                                   No pseudopotential on this center.
    2          8
                                   No pseudopotential on this center.
    3          8
                                   No pseudopotential on this center.
    4          8
                                   No pseudopotential on this center.
    5          6
                                   No pseudopotential on this center.
    6          1
                                   No pseudopotential on this center.
    7          1
                                   No pseudopotential on this center.
    8          1
                                   No pseudopotential on this center.
    9          1
                                   No pseudopotential on this center.
   10          1
                                   No pseudopotential on this center.
   11          6
                                   No pseudopotential on this center.
   12          1
                                   No pseudopotential on this center.
   13          1
                                   No pseudopotential on this center.
   14          1
                                   No pseudopotential on this center.
   15          6
                                   No pseudopotential on this center.
   16          1
                                   No pseudopotential on this center.
   17          1
                                   No pseudopotential on this center.
   18          1
                                   No pseudopotential on this center.
   19         35            7
                                      F and up 
                                                     1      213.6143969      -28.00000000    0.00000000
                                                     2       41.0585380     -134.92688520    0.00000000
                                                     2        8.7086530      -41.92719130    0.00000000
                                                     2        2.6074661       -5.93364200    0.00000000
                                      S - F
                                                     0       54.1980682        3.00000000    0.00000000
                                                     1       32.9053558       27.34306420    0.00000000
                                                     2       13.6744890      118.80288470    0.00000000
                                                     2        3.0341152       43.43548760    0.00000000
                                      P - F
                                                     0       54.2563340        5.00000000    0.00000000
                                                     1       26.0095593       25.05042520    0.00000000
                                                     2       28.2012995       92.61574630    0.00000000
                                                     2        9.4341061       95.82490160    0.00000000
                                                     2        2.5321764       26.26849830    0.00000000
                                      D - F
                                                     0       87.6328721        3.00000000    0.00000000
                                                     1       61.7373377       22.55335570    0.00000000
                                                     2       32.4385104      178.12419880    0.00000000
                                                     2        8.7537199       76.99241620    0.00000000
                                                     2        1.6633189        9.48182700    0.00000000
 ======================================================================================================
 There are   156 symmetry adapted basis functions of A   symmetry.
 Integral buffers will be    262144 words long.
 Raffenetti 2 integral format.
 Two-electron integral symmetry is turned on.
   156 basis functions,   280 primitive gaussians,   163 cartesian basis functions
    33 alpha electrons       33 beta electrons
       nuclear repulsion energy       413.5120608758 Hartrees.
 NAtoms=   19 NActive=   19 NUniq=   19 SFac= 7.50D-01 NAtFMM=   80 NAOKFM=F Big=F
 One-electron integrals computed using PRISM.
   1 Symmetry operations used in ECPInt.
 ECPInt:  NShTT=    1891 NPrTT=    9206 LenC2=    1875 LenP2D=    6806.
 LDataN:  DoStor=T MaxTD1= 5 Len=  102
 NBasis=   156 RedAO= T  NBF=   156
 NBsUse=   156 1.00D-06 NBFU=   156
 Harris functional with IExCor=  402 diagonalized for initial guess.
 ExpMin= 4.38D-02 ExpMax= 5.48D+03 ExpMxC= 8.25D+02 IAcc=2 IRadAn=         0 AccDes= 0.00D+00
 HarFok:  IExCor=  402 AccDes= 0.00D+00 IRadAn=         0 IDoV= 1
 ScaDFX=  1.000000  1.000000  1.000000  1.000000
 FoFCou: FMM=F IPFlag=           0 FMFlag=      100000 FMFlg1=           0
         NFxFlg=           0 DoJE=T BraDBF=F KetDBF=T FulRan=T
         Omega=  0.000000  0.000000  1.000000  0.000000  0.000000 ICntrl=     500 IOpCl=  0
         NMat0=    1 NMatS0=    1 NMatT0=    0 NMatD0=    1 NMtDS0=    0 NMtDT0=    0
         I1Cent=           4 NGrid=           0.
 Petite list used in FoFCou.
 Initial guess orbital symmetries:
       Occupied  (A) (A) (A) (A) (A) (A) (A) (A) (A) (A) (A) (A)
                 (A) (A) (A) (A) (A) (A) (A) (A) (A) (A) (A) (A)
                 (A) (A) (A) (A) (A) (A) (A) (A) (A)
       Virtual   (A) (A) (A) (A) (A) (A) (A) (A) (A) (A) (A) (A)
                 (A) (A) (A) (A) (A) (A) (A) (A) (A) (A) (A) (A)
                 (A) (A) (A) (A) (A) (A) (A) (A) (A) (A) (A) (A)
                 (A) (A) (A) (A) (A) (A) (A) (A) (A) (A) (A) (A)
                 (A) (A) (A) (A) (A) (A) (A) (A) (A) (A) (A) (A)
                 (A) (A) (A) (A) (A) (A) (A) (A) (A) (A) (A) (A)
                 (A) (A) (A) (A) (A) (A) (A) (A) (A) (A) (A) (A)
                 (A) (A) (A) (A) (A) (A) (A) (A) (A) (A) (A) (A)
                 (A) (A) (A) (A) (A) (A) (A) (A) (A) (A) (A) (A)
                 (A) (A) (A) (A) (A) (A) (A) (A) (A) (A) (A) (A)
                 (A) (A) (A)
 The electronic state of the initial guess is 1-A.
 Requested convergence on RMS density matrix=1.00D-08 within 128 cycles.
 Requested convergence on MAX density matrix=1.00D-06.
 Requested convergence on             energy=1.00D-06.
 No special actions if energy rises.
 SCF Done:  E(RB3LYP) =  -397.822149462     A.U. after   14 cycles
             Convg  =    0.6584D-08             -V/T =  2.0298
 Range of M.O.s used for correlation:     1   156
 NBasis=   156 NAE=    33 NBE=    33 NFC=     0 NFV=     0
 NROrb=    156 NOA=    33 NOB=    33 NVA=   123 NVB=   123

 **** Warning!!: The largest alpha MO coefficient is  0.33487879D+02

   1 Symmetry operations used in ECPInt.
 ECPInt:  NShTT=    1891 NPrTT=    9206 LenC2=    1875 LenP2D=    6806.
 LDataN:  DoStor=T MaxTD1= 6 Len=  172
 Symmetrizing basis deriv contribution to polar:
 IMax=3 JMax=2 DiffMx= 0.00D+00
 G2DrvN: will do    20 centers at a time, making    1 passes doing MaxLOS=2.
 Calling FoFCou, ICntrl=  3107 FMM=F I1Cent=   0 AccDes= 0.00D+00.
 FoFDir/FoFCou used for L=0 through L=2.
 End of G2Drv Frequency-dependent properties file   721 does not exist.
 End of G2Drv Frequency-dependent properties file   722 does not exist.
          IDoAtm=1111111111111111111
          Differentiating once with respect to nuclear coordinates.
          There are    60 degrees of freedom in the 1st order CPHF.  IDoFFX=5.
     54 vectors produced by pass  0 Test12= 6.77D-11 1.67D-07 XBig12= 1.98D-01 1.03D-01.
 AX will form    54 AO Fock derivatives at one time.
     54 vectors produced by pass  1 Test12= 6.77D-11 1.67D-07 XBig12= 3.18D-02 2.63D-02.
     54 vectors produced by pass  2 Test12= 6.77D-11 1.67D-07 XBig12= 2.29D-04 1.96D-03.
     54 vectors produced by pass  3 Test12= 6.77D-11 1.67D-07 XBig12= 5.35D-07 1.01D-04.
     21 vectors produced by pass  4 Test12= 6.77D-11 1.67D-07 XBig12= 6.12D-10 2.75D-06.
 Inverted reduced A of dimension   237 with in-core refinement.
 End of Minotr Frequency-dependent properties file   721 does not exist.
 End of Minotr Frequency-dependent properties file   722 does not exist.

 **********************************************************************

            Population analysis using the SCF density.

 **********************************************************************

 Orbital symmetries:
       Occupied  (A) (A) (A) (A) (A) (A) (A) (A) (A) (A) (A) (A)
                 (A) (A) (A) (A) (A) (A) (A) (A) (A) (A) (A) (A)
                 (A) (A) (A) (A) (A) (A) (A) (A) (A)
       Virtual   (A) (A) (A) (A) (A) (A) (A) (A) (A) (A) (A) (A)
                 (A) (A) (A) (A) (A) (A) (A) (A) (A) (A) (A) (A)
                 (A) (A) (A) (A) (A) (A) (A) (A) (A) (A) (A) (A)
                 (A) (A) (A) (A) (A) (A) (A) (A) (A) (A) (A) (A)
                 (A) (A) (A) (A) (A) (A) (A) (A) (A) (A) (A) (A)
                 (A) (A) (A) (A) (A) (A) (A) (A) (A) (A) (A) (A)
                 (A) (A) (A) (A) (A) (A) (A) (A) (A) (A) (A) (A)
                 (A) (A) (A) (A) (A) (A) (A) (A) (A) (A) (A) (A)
                 (A) (A) (A) (A) (A) (A) (A) (A) (A) (A) (A) (A)
                 (A) (A) (A) (A) (A) (A) (A) (A) (A) (A) (A) (A)
                 (A) (A) (A)
 The electronic state is 1-A.
 Alpha  occ. eigenvalues --  -19.20535 -19.16932 -19.15779 -10.35832 -10.25755
 Alpha  occ. eigenvalues --  -10.23382 -10.20881  -1.11211  -1.03674  -0.99617
 Alpha  occ. eigenvalues --   -0.79207  -0.74069  -0.71013  -0.68553  -0.60214
 Alpha  occ. eigenvalues --   -0.55930  -0.53945  -0.50348  -0.48064  -0.46712
 Alpha  occ. eigenvalues --   -0.45734  -0.44884  -0.43734  -0.42954  -0.41518
 Alpha  occ. eigenvalues --   -0.40061  -0.37180  -0.33650  -0.30328  -0.29295
 Alpha  occ. eigenvalues --   -0.28195  -0.26475  -0.25941
 Alpha virt. eigenvalues --   -0.02025  -0.00799   0.01140   0.01380   0.02647
 Alpha virt. eigenvalues --    0.03780   0.04257   0.05234   0.06394   0.06551
 Alpha virt. eigenvalues --    0.07144   0.07400   0.09379   0.09662   0.10913
 Alpha virt. eigenvalues --    0.11656   0.12660   0.15065   0.15643   0.16645
 Alpha virt. eigenvalues --    0.17242   0.18191   0.18919   0.19221   0.20122
 Alpha virt. eigenvalues --    0.20769   0.21249   0.22081   0.23426   0.24514
 Alpha virt. eigenvalues --    0.25611   0.26387   0.28270   0.28782   0.29568
 Alpha virt. eigenvalues --    0.30897   0.31906   0.32284   0.33589   0.33853
 Alpha virt. eigenvalues --    0.35522   0.37932   0.38891   0.43987   0.48351
 Alpha virt. eigenvalues --    0.54010   0.57911   0.62803   0.63859   0.64550
 Alpha virt. eigenvalues --    0.65434   0.67077   0.68283   0.71235   0.72242
 Alpha virt. eigenvalues --    0.74075   0.76439   0.78068   0.81078   0.87132
 Alpha virt. eigenvalues --    0.90121   0.92481   0.94119   0.96041   0.97306
 Alpha virt. eigenvalues --    1.00026   1.01799   1.04677   1.07421   1.09268
 Alpha virt. eigenvalues --    1.10811   1.16541   1.18764   1.20367   1.24325
 Alpha virt. eigenvalues --    1.25149   1.26521   1.29724   1.32838   1.35242
 Alpha virt. eigenvalues --    1.35520   1.39168   1.43530   1.47082   1.49880
 Alpha virt. eigenvalues --    1.51698   1.55755   1.59879   1.62207   1.63863
 Alpha virt. eigenvalues --    1.70436   1.73017   1.75990   1.79054   1.80925
 Alpha virt. eigenvalues --    1.83836   1.92023   1.94696   1.97373   2.01582
 Alpha virt. eigenvalues --    2.03940   2.07816   2.11183   2.13821   2.17184
 Alpha virt. eigenvalues --    2.18704   2.20593   2.21505   2.27893   2.30545
 Alpha virt. eigenvalues --    2.30671   2.33260   2.35073   2.41931   2.47882
 Alpha virt. eigenvalues --    2.56028   2.62633   2.74428   2.80365   2.84801
 Alpha virt. eigenvalues --    2.87569   3.02809  19.95259
          Condensed to atoms (all electrons):
              1          2          3          4          5          6
     1  C    6.331723   0.384503   0.002984  -0.004560   0.004995  -0.003755
     2  O    0.384503   8.487825  -0.180118  -0.076148   0.018848   0.005859
     3  O    0.002984  -0.180118   8.954351  -0.021484   0.011420  -0.001208
     4  O   -0.004560  -0.076148  -0.021484   8.697519   0.061226  -0.083898
     5  C    0.004995   0.018848   0.011420   0.061226   5.131582   0.409194
     6  H   -0.003755   0.005859  -0.001208  -0.083898   0.409194   0.564904
     7  H    0.000135  -0.001741   0.000565  -0.047714   0.395745  -0.036474
     8  H   -0.001144   0.000662  -0.001459  -0.043735   0.391121  -0.032336
     9  H   -0.009549   0.003818   0.054259   0.132921  -0.016995   0.000959
    10  H   -0.029669   0.085586   0.000937   0.125317  -0.013741  -0.000301
    11  C   -0.986765  -0.203409  -0.067747   0.002747  -0.013382  -0.000150
    12  H   -0.068413  -0.003093   0.007593   0.000012  -0.000102   0.000000
    13  H   -0.118982   0.007568   0.003796   0.000184  -0.000116  -0.000001
    14  H    0.040904  -0.005302  -0.009451   0.000096  -0.000033   0.000002
    15  C   -0.147464   0.010125   0.013461   0.017963  -0.021792  -0.002450
    16  H   -0.003679  -0.002750  -0.036681  -0.001434   0.001801   0.000050
    17  H   -0.005274  -0.000813  -0.046187  -0.001018  -0.000881  -0.000110
    18  H   -0.037505   0.014879  -0.069996  -0.000614  -0.003015   0.001303
    19  Br   0.519346  -0.103279  -0.171381  -0.010875  -0.004656  -0.000032
              7          8          9         10         11         12
     1  C    0.000135  -0.001144  -0.009549  -0.029669  -0.986765  -0.068413
     2  O   -0.001741   0.000662   0.003818   0.085586  -0.203409  -0.003093
     3  O    0.000565  -0.001459   0.054259   0.000937  -0.067747   0.007593
     4  O   -0.047714  -0.043735   0.132921   0.125317   0.002747   0.000012
     5  C    0.395745   0.391121  -0.016995  -0.013741  -0.013382  -0.000102
     6  H   -0.036474  -0.032336   0.000959  -0.000301  -0.000150   0.000000
     7  H    0.524960  -0.027007  -0.004856   0.002139  -0.000062   0.000000
     8  H   -0.027007   0.511492   0.002589  -0.002886   0.000064   0.000000
     9  H   -0.004856   0.002589   0.296648  -0.013981   0.009508  -0.000045
    10  H    0.002139  -0.002886  -0.013981   0.286707   0.026983  -0.000081
    11  C   -0.000062   0.000064   0.009508   0.026983   6.839227   0.411849
    12  H    0.000000   0.000000  -0.000045  -0.000081   0.411849   0.452124
    13  H    0.000000   0.000000   0.000021  -0.000073   0.453253  -0.022435
    14  H    0.000000   0.000000  -0.000048  -0.000122   0.298695  -0.024425
    15  C   -0.001089   0.002046  -0.004862  -0.000533   0.060345   0.001084
    16  H    0.000000  -0.000001   0.000890   0.000029   0.001588   0.000000
    17  H    0.000066   0.000009  -0.001585   0.000039   0.003857   0.000000
    18  H    0.000009   0.000008   0.000213   0.000370   0.005438   0.000009
    19  Br  -0.000001   0.000000  -0.001680  -0.003052  -0.065662  -0.006851
             13         14         15         16         17         18
     1  C   -0.118982   0.040904  -0.147464  -0.003679  -0.005274  -0.037505
     2  O    0.007568  -0.005302   0.010125  -0.002750  -0.000813   0.014879
     3  O    0.003796  -0.009451   0.013461  -0.036681  -0.046187  -0.069996
     4  O    0.000184   0.000096   0.017963  -0.001434  -0.001018  -0.000614
     5  C   -0.000116  -0.000033  -0.021792   0.001801  -0.000881  -0.003015
     6  H   -0.000001   0.000002  -0.002450   0.000050  -0.000110   0.001303
     7  H    0.000000   0.000000  -0.001089   0.000000   0.000066   0.000009
     8  H    0.000000   0.000000   0.002046  -0.000001   0.000009   0.000008
     9  H    0.000021  -0.000048  -0.004862   0.000890  -0.001585   0.000213
    10  H   -0.000073  -0.000122  -0.000533   0.000029   0.000039   0.000370
    11  C    0.453253   0.298695   0.060345   0.001588   0.003857   0.005438
    12  H   -0.022435  -0.024425   0.001084   0.000000   0.000000   0.000009
    13  H    0.463258  -0.029489  -0.001428   0.000558  -0.000015   0.000163
    14  H   -0.029489   0.494490   0.003809  -0.001209   0.000046   0.000013
    15  C   -0.001428   0.003809   5.259721   0.388887   0.397889   0.418023
    16  H    0.000558  -0.001209   0.388887   0.496951  -0.023371  -0.034004
    17  H   -0.000015   0.000046   0.397889  -0.023371   0.491313  -0.027753
    18  H    0.000163   0.000013   0.418023  -0.034004  -0.027753   0.510454
    19  Br  -0.002381   0.004266   0.018151   0.000001  -0.000337  -0.000160
             19
     1  C    0.519346
     2  O   -0.103279
     3  O   -0.171381
     4  O   -0.010875
     5  C   -0.004656
     6  H   -0.000032
     7  H   -0.000001
     8  H    0.000000
     9  H   -0.001680
    10  H   -0.003052
    11  C   -0.065662
    12  H   -0.006851
    13  H   -0.002381
    14  H    0.004266
    15  C    0.018151
    16  H    0.000001
    17  H   -0.000337
    18  H   -0.000160
    19  Br   6.825863
 Mulliken atomic charges:
              1
     1  C    0.132170
     2  O   -0.443020
     3  O   -0.443654
     4  O   -0.746505
     5  C   -0.351218
     6  H    0.178442
     7  H    0.195325
     8  H    0.200578
     9  H    0.551777
    10  H    0.536334
    11  C   -0.776376
    12  H    0.252774
    13  H    0.246117
    14  H    0.227758
    15  C   -0.411886
    16  H    0.212374
    17  H    0.214124
    18  H    0.222165
    19  Br   0.002721
 Sum of Mulliken atomic charges =   0.00000
 Mulliken charges with hydrogens summed into heavy atoms:
              1
     1  C    0.132170
     2  O    0.093315
     3  O   -0.443654
     4  O   -0.194728
     5  C    0.223127
    11  C   -0.049727
    15  C    0.236777
    19  Br   0.002721
 Sum of Mulliken charges with hydrogens summed into heavy atoms =   0.00000
 APT atomic charges:
              1
     1  C   -0.098001
     2  O   -0.421499
     3  O   -0.138977
     4  O   -0.376703
     5  C   -1.509513
     6  H    0.293194
     7  H    0.496690
     8  H    0.613678
     9  H    0.495547
    10  H    0.529105
    11  C   -1.525217
    12  H    0.570158
    13  H    0.492925
    14  H    0.540796
    15  C   -1.439281
    16  H    0.492979
    17  H    0.553015
    18  H    0.397551
    19  Br   0.033551
 Sum of APT charges=   0.00000
 APT Atomic charges with hydrogens summed into heavy atoms:
              1
     1  C   -0.098001
     2  O    0.107606
     3  O   -0.138977
     4  O    0.118844
     5  C   -0.105951
     6  H    0.000000
     7  H    0.000000
     8  H    0.000000
     9  H    0.000000
    10  H    0.000000
    11  C    0.078662
    12  H    0.000000
    13  H    0.000000
    14  H    0.000000
    15  C    0.004265
    16  H    0.000000
    17  H    0.000000
    18  H    0.000000
    19  Br   0.033551
 Sum of APT charges=   0.00000
 Electronic spatial extent (au):  <R**2>=           1330.7038
 Charge=              0.0000 electrons
 Dipole moment (field-independent basis, Debye):
    X=             -2.9861    Y=              4.1698    Z=             -0.5949  Tot=              5.1631
 Quadrupole moment (field-independent basis, Debye-Ang):
   XX=            -54.1039   YY=            -56.7076   ZZ=            -62.3416
   XY=              1.5671   XZ=              2.5886   YZ=             -1.7746
 Traceless Quadrupole moment (field-independent basis, Debye-Ang):
   XX=              3.6138   YY=              1.0101   ZZ=             -4.6239
   XY=              1.5671   XZ=              2.5886   YZ=             -1.7746
 Octapole moment (field-independent basis, Debye-Ang**2):
  XXX=             24.3264  YYY=            -13.8045  ZZZ=            -15.1069  XYY=             18.1639
  XXY=             -9.4948  XXZ=             -2.8578  XZZ=             13.6454  YZZ=            -10.6437
  YYZ=             -3.2917  XYZ=              7.3355
 Hexadecapole moment (field-independent basis, Debye-Ang**3):
 XXXX=          -1014.5305 YYYY=           -612.8275 ZZZZ=           -277.5155 XXXY=            -21.2427
 XXXZ=            -12.9417 YYYX=            -50.8328 YYYZ=              1.0005 ZZZX=             -3.9068
 ZZZY=             -0.5460 XXYY=           -264.3214 XXZZ=           -208.6456 YYZZ=           -140.5796
 XXYZ=             -0.9157 YYXZ=             -6.6988 ZZXY=            -10.1270
 N-N= 4.135120608758D+02 E-N=-1.752522630437D+03  KE= 3.863075112226D+02
  Exact polarizability:   0.000   0.000   0.000   0.000   0.000   0.000
 Approx polarizability: 124.400 -13.183 123.297  -9.556   9.402 108.757
   1 Symmetry operations used in ECPInt.
 ECPInt:  NShTT=    1891 NPrTT=    9206 LenC2=    1892 LenP2D=    8807.
 LDataN:  DoStor=T MaxTD1= 7 Len=  274
 Calling FoFJK, ICntrl=    100147 FMM=F ISym2X=0 I1Cent= 0 IOpClX= 0 NMat=1 NMatS=1 NMatT=0.
 ***** Axes restored to original set *****
 -------------------------------------------------------------------
 Center     Atomic                   Forces (Hartrees/Bohr)
 Number     Number              X              Y              Z
 -------------------------------------------------------------------
      1        6          -0.003896418   -0.011170331   -0.049535534
      2        8          -0.015810294   -0.016282061    0.048159536
      3        8          -0.010190130    0.015238573   -0.010156019
      4        8           0.007850710    0.033220428   -0.003043645
      5        6           0.019509513   -0.012849272   -0.005888802
      6        1          -0.004003769    0.001585379    0.000651652
      7        1          -0.006976382    0.002223323    0.003522695
      8        1          -0.003460260    0.003719572   -0.001610114
      9        1          -0.005059645   -0.026661186    0.025990877
     10        1           0.001280226    0.014293492   -0.019834708
     11        6           0.011634564    0.014315412    0.008407276
     12        1          -0.006725680   -0.001976323   -0.003475647
     13        1          -0.004061098   -0.005048418    0.002892089
     14        1          -0.001998785   -0.002725252   -0.000817226
     15        6           0.011553141   -0.003367458   -0.001128663
     16        1          -0.004739470    0.001627573   -0.000094869
     17        1          -0.000947266    0.002474274    0.002197191
     18        1          -0.002521047    0.001389774   -0.000669634
     19       35           0.018562090   -0.010007501    0.004433544
 -------------------------------------------------------------------
 Cartesian Forces:  Max     0.049535534 RMS     0.013852423

 GradGradGradGradGradGradGradGradGradGradGradGradGradGradGradGradGradGrad
 Berny optimization.
 Internal  Forces:  Max     0.030769285 RMS     0.007378181
 Search for a saddle point.
 Step number   1 out of a maximum of   99
 All quantities printed in internal units (Hartrees-Bohrs-Radians)
 Swaping is turned off.
 Second derivative matrix not updated -- analytic derivatives used.
     Eigenvalues ---   -0.06833  -0.00512   0.00149   0.00224   0.00295
     Eigenvalues ---    0.00326   0.00467   0.01025   0.02395   0.02693
     Eigenvalues ---    0.03249   0.04409   0.04573   0.05121   0.05577
     Eigenvalues ---    0.06422   0.06498   0.06555   0.06642   0.06737
     Eigenvalues ---    0.08228   0.09847   0.10063   0.11790   0.12376
     Eigenvalues ---    0.13126   0.13371   0.13663   0.14425   0.14660
     Eigenvalues ---    0.15775   0.17905   0.18458   0.18543   0.18703
     Eigenvalues ---    0.18864   0.19606   0.19973   0.31916   0.32368
     Eigenvalues ---    0.32538   0.32793   0.33334   0.33478   0.33729
     Eigenvalues ---    0.33864   0.34025   0.34350   0.35686   0.36038
     Eigenvalues ---    0.627441000.000001000.000001000.000001000.00000
     Eigenvalues --- 1000.000001000.000001000.000001000.000001000.00000
     Eigenvalues --- 1000.000001000.000001000.000001000.000001000.00000
     Eigenvalues --- 1000.000001000.000001000.000001000.000001000.00000
     Eigenvalues --- 1000.000001000.000001000.000001000.000001000.00000
     Eigenvalues --- 1000.000001000.000001000.000001000.000001000.00000
     Eigenvalues --- 1000.000001000.000001000.000001000.000001000.00000
     Eigenvalues --- 1000.000001000.000001000.000001000.00000
 Eigenvectors required to have negative eigenvalues:
                          R10       R9        R6        R5        R2
   1                    0.53849  -0.47674   0.46596  -0.43144  -0.20381
                          R1        A2        D2        D17       D16
   1                    0.08013  -0.06511   0.06086   0.04382   0.04046
 RFO step:  Lambda0=4.847111316D-03 Lambda=-3.25812922D-02.
 Linear search not attempted -- option 19 set.
 Maximum step size (   0.300) exceeded in Quadratic search.
    -- Step size scaled by   0.271
 Iteration  1 RMS(Cart)=  0.02495379 RMS(Int)=  0.00077565
 Iteration  2 RMS(Cart)=  0.00080188 RMS(Int)=  0.00018436
 Iteration  3 RMS(Cart)=  0.00000137 RMS(Int)=  0.00018435
 Iteration  4 RMS(Cart)=  0.00000000 RMS(Int)=  0.00018435
 Variable       Old X    -DE/DX   Delta X   Delta X   Delta X     New X
                                 (Linear)    (Quad)   (Total)
    R1        2.37945   0.03077   0.00000   0.00368   0.00393   2.38338
    R2        2.98700   0.00050   0.00000  -0.01226  -0.01206   2.97493
    R3        2.82401   0.00384   0.00000   0.00774   0.00774   2.83175
    R4        3.94490   0.01641   0.00000   0.05067   0.05067   3.99557
    R5        2.28657  -0.01450   0.00000   0.11241   0.11262   2.39918
    R6        2.46325   0.00197   0.00000   0.07082   0.07052   2.53377
    R7        2.74597  -0.00031   0.00000  -0.00782  -0.00782   2.73814
    R8        2.74624  -0.00608   0.00000   0.00160   0.00160   2.74784
    R9        2.38468  -0.02822   0.00000  -0.11325  -0.11362   2.27106
   R10        2.56275  -0.00999   0.00000  -0.20318  -0.20320   2.35955
   R11        2.06648   0.00247   0.00000  -0.00074  -0.00074   2.06574
   R12        2.07099  -0.00078   0.00000  -0.00307  -0.00307   2.06792
   R13        2.07376  -0.00253   0.00000  -0.00388  -0.00388   2.06988
   R14        2.08769  -0.00696   0.00000  -0.00594  -0.00594   2.08175
   R15        2.07907  -0.00565   0.00000  -0.00397  -0.00397   2.07510
   R16        2.07786  -0.00128   0.00000  -0.00096  -0.00096   2.07689
   R17        2.06985  -0.00154   0.00000  -0.00026  -0.00026   2.06959
   R18        2.06760  -0.00168   0.00000  -0.00026  -0.00026   2.06735
   R19        2.06622   0.00100   0.00000   0.00201   0.00201   2.06823
    A1        1.84872   0.00436   0.00000   0.01273   0.01324   1.86196
    A2        2.14028  -0.00819   0.00000  -0.00506  -0.00519   2.13509
    A3        1.98360   0.00359   0.00000  -0.00301  -0.00344   1.98016
    A4        1.93325  -0.00167   0.00000   0.00361   0.00314   1.93639
    A5        1.57879   0.01343   0.00000   0.01448   0.01462   1.59341
    A6        1.89553  -0.00490   0.00000  -0.01506  -0.01512   1.88041
    A7        1.95378  -0.02045   0.00000  -0.04189  -0.04160   1.91218
    A8        1.77309  -0.01027   0.00000  -0.02454  -0.02440   1.74869
    A9        2.01102   0.00291   0.00000  -0.00407  -0.00389   2.00713
   A10        1.87442   0.00601   0.00000   0.01716   0.01681   1.89123
   A11        1.92172   0.00335   0.00000   0.00845   0.00844   1.93017
   A12        1.92340  -0.00159   0.00000  -0.00126  -0.00124   1.92216
   A13        1.49480   0.00351   0.00000   0.01984   0.01949   1.51430
   A14        1.93712   0.00211   0.00000  -0.00306  -0.00306   1.93406
   A15        1.84361   0.01104   0.00000   0.00569   0.00568   1.84929
   A16        1.86042   0.00495   0.00000   0.00166   0.00166   1.86208
   A17        1.95443  -0.00649   0.00000  -0.00233  -0.00232   1.95211
   A18        1.93809  -0.00479   0.00000  -0.00065  -0.00065   1.93744
   A19        1.92574  -0.00554   0.00000  -0.00086  -0.00087   1.92487
   A20        2.64331   0.00794   0.00000   0.00613   0.00552   2.64883
   A21        2.52465   0.01038   0.00000   0.04306   0.04324   2.56789
   A22        1.92437  -0.00334   0.00000  -0.00613  -0.00615   1.91822
   A23        1.96440  -0.00456   0.00000  -0.00407  -0.00408   1.96032
   A24        1.94315  -0.00275   0.00000  -0.00822  -0.00824   1.93491
   A25        1.86488   0.00421   0.00000   0.00746   0.00746   1.87234
   A26        1.86169   0.00328   0.00000   0.00622   0.00619   1.86787
   A27        1.90089   0.00392   0.00000   0.00600   0.00598   1.90687
   A28        1.86817   0.00679   0.00000   0.01195   0.01191   1.88009
   A29        1.84370   0.00259   0.00000   0.00507   0.00504   1.84874
   A30        1.92935   0.00178   0.00000   0.00467   0.00464   1.93399
   A31        1.92086  -0.00327   0.00000  -0.00562  -0.00566   1.91519
   A32        1.94076  -0.00336   0.00000  -0.00686  -0.00690   1.93387
   A33        1.95660  -0.00372   0.00000  -0.00766  -0.00767   1.94893
    D1        0.82063   0.00075   0.00000  -0.03527  -0.03474   0.78589
    D2        3.06078  -0.00430   0.00000  -0.02109  -0.02079   3.03999
    D3       -0.88460  -0.01798   0.00000  -0.05694  -0.05671  -0.94130
    D4       -0.63341  -0.00627   0.00000   0.00769   0.00796  -0.62545
    D5        1.38630  -0.00415   0.00000   0.01109   0.01125   1.39755
    D6       -2.99067   0.00232   0.00000   0.00109   0.00131  -2.98936
    D7       -0.97097   0.00444   0.00000   0.00449   0.00461  -0.96635
    D8        1.37026   0.00239   0.00000   0.01093   0.01118   1.38143
    D9       -2.89322   0.00450   0.00000   0.01433   0.01447  -2.87875
   D10        1.29635  -0.00250   0.00000  -0.02047  -0.02053   1.27582
   D11       -2.90643  -0.00245   0.00000  -0.01787  -0.01795  -2.92438
   D12       -0.76641  -0.00270   0.00000  -0.01911  -0.01919  -0.78559
   D13       -2.78350  -0.00539   0.00000  -0.00207  -0.00196  -2.78547
   D14       -0.70310  -0.00533   0.00000   0.00053   0.00062  -0.70248
   D15        1.43692  -0.00559   0.00000  -0.00071  -0.00061   1.43631
   D16       -1.07560   0.00716   0.00000   0.00937   0.00935  -1.06624
   D17        1.00480   0.00721   0.00000   0.01197   0.01194   1.01674
   D18       -3.13836   0.00695   0.00000   0.01073   0.01070  -3.12766
   D19       -0.72981   0.00004   0.00000   0.01324   0.01305  -0.71676
   D20        0.19457   0.00286   0.00000  -0.00108  -0.00088   0.19369
   D21       -1.92323   0.00202   0.00000   0.00821   0.00850  -1.91473
   D22        1.29646   0.00374   0.00000   0.00847   0.00849   1.30495
   D23       -2.93990   0.00447   0.00000   0.01015   0.01019  -2.92971
   D24       -0.81969   0.00256   0.00000   0.00662   0.00664  -0.81305
   D25       -3.02578  -0.00348   0.00000  -0.01286  -0.01288  -3.03866
   D26       -0.97895  -0.00275   0.00000  -0.01117  -0.01118  -0.99013
   D27        1.14126  -0.00466   0.00000  -0.01470  -0.01474   1.12652
   D28       -0.92201  -0.00290   0.00000  -0.01212  -0.01196  -0.93397
   D29        1.19988  -0.00268   0.00000  -0.01312  -0.01297   1.18691
   D30       -3.03457  -0.00139   0.00000  -0.01059  -0.01044  -3.04500
   D31        0.69737   0.00176   0.00000   0.01314   0.01299   0.71036
   D32        2.81926   0.00197   0.00000   0.01214   0.01198   2.83124
   D33       -1.41519   0.00327   0.00000   0.01466   0.01451  -1.40067
   D34        1.99449   0.00278   0.00000   0.00238   0.00252   1.99701
   D35        0.07577   0.00303   0.00000  -0.00389  -0.00393   0.07184
   D36       -1.73325  -0.00074   0.00000  -0.00826  -0.00843  -1.74168
   D37        0.18377   0.00402   0.00000   0.00791   0.00766   0.19143
         Item               Value     Threshold  Converged?
 Maximum Force            0.030769     0.000450     NO 
 RMS     Force            0.007378     0.000300     NO 
 Maximum Displacement     0.141297     0.001800     NO 
 RMS     Displacement     0.025318     0.001200     NO 
 Predicted change in Energy=-9.001468D-03
 GradGradGradGradGradGradGradGradGradGradGradGradGradGradGradGradGradGrad

                          Input orientation:                          
 ---------------------------------------------------------------------
 Center     Atomic      Atomic             Coordinates (Angstroms)
 Number     Number       Type             X           Y           Z
 ---------------------------------------------------------------------
      1          6           0        0.316266    0.700149    0.532475
      2          8           0       -0.477009    0.300490    1.427847
      3          8           0       -0.502352    0.739899   -0.811624
      4          8           0       -1.753752   -1.207503    0.038713
      5          6           0       -3.186368   -1.022980    0.205921
      6          1           0       -3.407525   -0.021223    0.583452
      7          1           0       -3.628765   -1.193324   -0.780362
      8          1           0       -3.522339   -1.791225    0.910673
      9          1           0       -1.291149   -0.330798   -0.640771
     10          1           0       -1.139506   -0.692831    0.996246
     11          6           0        1.146024    1.937814    0.691175
     12          1           0        1.962186    1.752894    1.407581
     13          1           0        1.607047    2.254773   -0.253714
     14          1           0        0.543889    2.763520    1.095580
     15          6           0       -1.345831    1.905860   -0.980655
     16          1           0       -0.697261    2.753942   -1.224651
     17          1           0       -1.998476    1.683611   -1.830057
     18          1           0       -1.920548    2.105197   -0.070817
     19         35           0        1.571830   -0.824938   -0.221317
 ---------------------------------------------------------------------
                    Distance matrix (angstroms):
                    1          2          3          4          5
     1  C    0.000000
     2  O    1.261231   0.000000
     3  O    1.574267   2.282313   0.000000
     4  O    2.857956   2.415328   2.466059   0.000000
     5  C    3.917175   3.253506   3.368544   1.454097   0.000000
     6  H    3.793362   3.066664   3.311431   2.106885   1.093141
     7  H    4.568593   4.128102   3.675974   2.046156   1.094297
     8  H    4.591826   3.730519   4.300374   2.056440   1.095332
     9  H    2.241236   2.310958   1.340814   1.201795   2.188118
    10  H    2.067547   1.269594   2.393131   1.248621   2.218841
    11  C    1.498499   2.420280   2.531906   4.327520   5.269857
    12  H    2.140826   2.838937   3.467705   4.944284   5.971355
    13  H    2.168194   3.315141   2.656251   4.834029   5.825097
    14  H    2.150906   2.686848   2.971042   4.707987   5.389239
    15  C    2.550661   3.022077   1.448964   3.301293   3.657000
    16  H    2.886658   3.619902   2.065176   4.290141   4.744190
    17  H    3.450621   3.852509   2.041124   3.451193   3.589141
    18  H    2.709512   2.754408   2.103359   3.318704   3.385908
    19  Br   2.114364   2.860782   2.664470   3.357598   4.781444
                    6          7          8          9         10
     6  H    0.000000
     7  H    1.811837   0.000000
     8  H    1.803653   1.796778   0.000000
     9  H    2.464469   2.495573   3.085131   0.000000
    10  H    2.401118   3.098909   2.625201   1.683416   0.000000
    11  C    4.958250   5.896444   5.978923   3.586153   3.498144
    12  H    5.714935   6.687752   6.548871   4.372838   3.971305
    13  H    5.570183   6.291300   6.636000   3.903143   4.218332
    14  H    4.861146   6.048703   6.108527   3.994631   3.845784
    15  C    3.226556   3.854458   4.688576   2.262996   3.271683
    16  H    4.279756   4.936802   5.761877   3.195190   4.124102
    17  H    3.273669   3.469360   4.680625   2.443882   3.791213
    18  H    2.675973   3.781758   4.325640   2.579741   3.094772
    19  Br   5.107601   5.243512   5.307133   2.935432   2.975106
                   11         12         13         14         15
    11  C    0.000000
    12  H    1.101615   0.000000
    13  H    1.098098   1.771414   0.000000
    14  H    1.099045   1.769259   1.791569   0.000000
    15  C    3.000896   4.082897   3.060992   2.935537   0.000000
    16  H    2.781034   3.873423   2.549848   2.631353   1.095181
    17  H    4.038453   5.116047   3.976289   4.023577   1.093994
    18  H    3.164255   4.169581   3.535499   2.804875   1.094459
    19  Br   2.940536   3.074233   3.080083   3.958271   4.067751
                   16         17         18         19
    16  H    0.000000
    17  H    1.790331   0.000000
    18  H    1.802398   1.810727   0.000000
    19  Br   4.354748   4.650585   4.561255   0.000000
 Stoichiometry    C4H11BrO3
 Framework group  C1[X(C4H11BrO3)]
 Deg. of freedom    51
 Full point group                 C1      NOp   1
 Largest Abelian subgroup         C1      NOp   1
 Largest concise Abelian subgroup C1      NOp   1
                         Standard orientation:                         
 ---------------------------------------------------------------------
 Center     Atomic      Atomic             Coordinates (Angstroms)
 Number     Number       Type             X           Y           Z
 ---------------------------------------------------------------------
      1          6           0        0.287488    0.701621    0.532379
      2          8           0       -0.498053    0.280459    1.424708
      3          8           0       -0.530277    0.730759   -0.812510
      4          8           0       -1.740639   -1.247347    0.026281
      5          6           0       -3.177066   -1.094405    0.192661
      6          1           0       -3.420053   -0.099572    0.575050
      7          1           0       -3.614601   -1.269098   -0.795028
      8          1           0       -3.497299   -1.873289    0.893049
      9          1           0       -1.296154   -0.357448   -0.648125
     10          1           0       -1.138637   -0.724583    0.987200
     11          6           0        1.090369    1.955934    0.698449
     12          1           0        1.909497    1.784843    1.414907
     13          1           0        1.545562    2.287557   -0.244231
     14          1           0        0.470232    2.766463    1.106338
     15          6           0       -1.398345    1.879248   -0.976604
     16          1           0       -0.767813    2.742269   -1.215445
     17          1           0       -2.045122    1.647456   -1.827940
     18          1           0       -1.978224    2.061542   -0.066466
     19         35           0        1.576277   -0.792328   -0.227670
 ---------------------------------------------------------------------
 Rotational constants (GHZ):      1.6528340      0.9268377      0.7299464
 Basis read from rwf:  (5D, 7F)
 Pseudo-potential data read from rwf file.
 There are   156 symmetry adapted basis functions of A   symmetry.
 Integral buffers will be    262144 words long.
 Raffenetti 2 integral format.
 Two-electron integral symmetry is turned on.
   156 basis functions,   280 primitive gaussians,   163 cartesian basis functions
    33 alpha electrons       33 beta electrons
       nuclear repulsion energy       413.9305642034 Hartrees.
 NAtoms=   19 NActive=   19 NUniq=   19 SFac= 7.50D-01 NAtFMM=   80 NAOKFM=F Big=F
 One-electron integrals computed using PRISM.
   1 Symmetry operations used in ECPInt.
 ECPInt:  NShTT=    1891 NPrTT=    9206 LenC2=    1875 LenP2D=    6810.
 LDataN:  DoStor=T MaxTD1= 5 Len=  102
 NBasis=   156 RedAO= T  NBF=   156
 NBsUse=   156 1.00D-06 NBFU=   156
 Initial guess read from the read-write file.
 B after Tr=     0.000000    0.000000    0.000000
         Rot=    1.000000    0.000000    0.000000    0.000000 Ang=   0.00 deg.
 Initial guess orbital symmetries:
       Occupied  (A) (A) (A) (A) (A) (A) (A) (A) (A) (A) (A) (A)
                 (A) (A) (A) (A) (A) (A) (A) (A) (A) (A) (A) (A)
                 (A) (A) (A) (A) (A) (A) (A) (A) (A)
       Virtual   (A) (A) (A) (A) (A) (A) (A) (A) (A) (A) (A) (A)
                 (A) (A) (A) (A) (A) (A) (A) (A) (A) (A) (A) (A)
                 (A) (A) (A) (A) (A) (A) (A) (A) (A) (A) (A) (A)
                 (A) (A) (A) (A) (A) (A) (A) (A) (A) (A) (A) (A)
                 (A) (A) (A) (A) (A) (A) (A) (A) (A) (A) (A) (A)
                 (A) (A) (A) (A) (A) (A) (A) (A) (A) (A) (A) (A)
                 (A) (A) (A) (A) (A) (A) (A) (A) (A) (A) (A) (A)
                 (A) (A) (A) (A) (A) (A) (A) (A) (A) (A) (A) (A)
                 (A) (A) (A) (A) (A) (A) (A) (A) (A) (A) (A) (A)
                 (A) (A) (A) (A) (A) (A) (A) (A) (A) (A) (A) (A)
                 (A) (A) (A)
 Harris functional with IExCor=  402 diagonalized for initial guess.
 ExpMin= 4.38D-02 ExpMax= 5.48D+03 ExpMxC= 8.25D+02 IAcc=2 IRadAn=         0 AccDes= 0.00D+00
 HarFok:  IExCor=  402 AccDes= 0.00D+00 IRadAn=         0 IDoV= 1
 ScaDFX=  1.000000  1.000000  1.000000  1.000000
 FoFCou: FMM=F IPFlag=           0 FMFlag=      100000 FMFlg1=           0
         NFxFlg=           0 DoJE=T BraDBF=F KetDBF=T FulRan=T
         Omega=  0.000000  0.000000  1.000000  0.000000  0.000000 ICntrl=     500 IOpCl=  0
         NMat0=    1 NMatS0=    1 NMatT0=    0 NMatD0=    1 NMtDS0=    0 NMtDT0=    0
         I1Cent=           4 NGrid=           0.
 Petite list used in FoFCou.
 Requested convergence on RMS density matrix=1.00D-08 within 128 cycles.
 Requested convergence on MAX density matrix=1.00D-06.
 Requested convergence on             energy=1.00D-06.
 No special actions if energy rises.
 SCF Done:  E(RB3LYP) =  -397.830979601     A.U. after   12 cycles
             Convg  =    0.4545D-08             -V/T =  2.0297
   1 Symmetry operations used in ECPInt.
 ECPInt:  NShTT=    1891 NPrTT=    9206 LenC2=    1875 LenP2D=    6810.
 LDataN:  DoStor=T MaxTD1= 6 Len=  172
 Calling FoFJK, ICntrl=      2127 FMM=F ISym2X=0 I1Cent= 0 IOpClX= 0 NMat=1 NMatS=1 NMatT=0.
 ***** Axes restored to original set *****
 -------------------------------------------------------------------
 Center     Atomic                   Forces (Hartrees/Bohr)
 Number     Number              X              Y              Z
 -------------------------------------------------------------------
      1        6          -0.006171072   -0.007671254   -0.038163903
      2        8          -0.007781175   -0.010715661    0.037012937
      3        8          -0.006677628    0.013069462   -0.008142258
      4        8           0.006468395    0.027127584   -0.002008217
      5        6           0.014501603   -0.010050223   -0.004716618
      6        1          -0.002957008    0.001162125    0.000519072
      7        1          -0.005277498    0.001675725    0.002760906
      8        1          -0.002624690    0.002824372   -0.001148944
      9        1          -0.004821255   -0.022918675    0.020243633
     10        1          -0.001912878    0.008250086   -0.015742276
     11        6           0.009135424    0.010968516    0.006633574
     12        1          -0.005204037   -0.001479227   -0.002539663
     13        1          -0.003054169   -0.003884853    0.002126581
     14        1          -0.001623871   -0.002098721   -0.000761038
     15        6           0.009541479   -0.002599131   -0.000679326
     16        1          -0.003717444    0.001363855   -0.000038462
     17        1          -0.000788267    0.001948554    0.001676767
     18        1          -0.002037314    0.001084291   -0.000565446
     19       35           0.015001407   -0.008056823    0.003532682
 -------------------------------------------------------------------
 Cartesian Forces:  Max     0.038163903 RMS     0.010750569

 GradGradGradGradGradGradGradGradGradGradGradGradGradGradGradGradGradGrad
 Berny optimization.
 Internal  Forces:  Max     0.022605392 RMS     0.005679141
 Search for a saddle point.
 Step number   2 out of a maximum of   99
 All quantities printed in internal units (Hartrees-Bohrs-Radians)
 Swaping is turned off.
 Update second derivatives using D2CorX and points    1    2
     Eigenvalues ---   -0.06895  -0.00174   0.00149   0.00224   0.00295
     Eigenvalues ---    0.00328   0.00468   0.01029   0.02451   0.02692
     Eigenvalues ---    0.03248   0.04409   0.04573   0.05134   0.05587
     Eigenvalues ---    0.06422   0.06499   0.06554   0.06642   0.06736
     Eigenvalues ---    0.08344   0.09867   0.10065   0.11790   0.12373
     Eigenvalues ---    0.13123   0.13385   0.13680   0.14422   0.14718
     Eigenvalues ---    0.16165   0.18016   0.18459   0.18544   0.18703
     Eigenvalues ---    0.18890   0.19602   0.19964   0.31915   0.32368
     Eigenvalues ---    0.32538   0.32792   0.33334   0.33478   0.33729
     Eigenvalues ---    0.33864   0.34025   0.34350   0.35686   0.36039
     Eigenvalues ---    0.627441000.000001000.000001000.000001000.00000
     Eigenvalues --- 1000.000001000.000001000.000001000.000001000.00000
     Eigenvalues --- 1000.000001000.000001000.000001000.000001000.00000
     Eigenvalues --- 1000.000001000.000001000.000001000.000001000.00000
     Eigenvalues --- 1000.000001000.000001000.000001000.000001000.00000
     Eigenvalues --- 1000.000001000.000001000.000001000.000001000.00000
     Eigenvalues --- 1000.000001000.000001000.000001000.000001000.00000
     Eigenvalues --- 1000.000001000.000001000.000001000.00000
 Eigenvectors required to have negative eigenvalues:
                          R10       R9        R6        R5        R2
   1                    0.54460  -0.47044   0.45704  -0.44131  -0.20336
                          R1        A2        D2        D17       A4
   1                    0.07993  -0.06485   0.06013   0.04271   0.03962
 RFO step:  Lambda0=2.547039315D-03 Lambda=-2.42335728D-02.
 Linear search not attempted -- option 19 set.
 Maximum step size (   0.300) exceeded in Quadratic search.
    -- Step size scaled by   0.278
 Iteration  1 RMS(Cart)=  0.02391360 RMS(Int)=  0.00063740
 Iteration  2 RMS(Cart)=  0.00052909 RMS(Int)=  0.00015085
 Iteration  3 RMS(Cart)=  0.00000068 RMS(Int)=  0.00015085
 Variable       Old X    -DE/DX   Delta X   Delta X   Delta X     New X
                                 (Linear)    (Quad)   (Total)
    R1        2.38338   0.02261   0.00000   0.00099   0.00117   2.38455
    R2        2.97493   0.00022   0.00000  -0.01998  -0.01983   2.95510
    R3        2.83175   0.00306   0.00000   0.00741   0.00741   2.83917
    R4        3.99557   0.01346   0.00000   0.05743   0.05743   4.05299
    R5        2.39918  -0.00737   0.00000   0.12769   0.12784   2.52703
    R6        2.53377   0.00370   0.00000   0.09674   0.09650   2.63027
    R7        2.73814  -0.00035   0.00000  -0.00744  -0.00744   2.73070
    R8        2.74784  -0.00444   0.00000   0.00524   0.00524   2.75309
    R9        2.27106  -0.02226   0.00000  -0.11772  -0.11801   2.15305
   R10        2.35955  -0.00842   0.00000  -0.18127  -0.18128   2.17827
   R11        2.06574   0.00184   0.00000  -0.00159  -0.00159   2.06415
   R12        2.06792  -0.00061   0.00000  -0.00328  -0.00328   2.06464
   R13        2.06988  -0.00192   0.00000  -0.00383  -0.00383   2.06605
   R14        2.08175  -0.00526   0.00000  -0.00487  -0.00487   2.07688
   R15        2.07510  -0.00424   0.00000  -0.00313  -0.00313   2.07198
   R16        2.07689  -0.00097   0.00000  -0.00060  -0.00060   2.07630
   R17        2.06959  -0.00114   0.00000   0.00012   0.00012   2.06971
   R18        2.06735  -0.00123   0.00000   0.00003   0.00003   2.06738
   R19        2.06823   0.00080   0.00000   0.00202   0.00202   2.07025
    A1        1.86196   0.00414   0.00000   0.01756   0.01791   1.87986
    A2        2.13509  -0.00656   0.00000  -0.00433  -0.00453   2.13055
    A3        1.98016   0.00228   0.00000  -0.00681  -0.00725   1.97291
    A4        1.93639  -0.00152   0.00000   0.00424   0.00385   1.94024
    A5        1.59341   0.01054   0.00000   0.01182   0.01199   1.60541
    A6        1.88041  -0.00394   0.00000  -0.01649  -0.01660   1.86381
    A7        1.91218  -0.01590   0.00000  -0.03495  -0.03477   1.87742
    A8        1.74869  -0.00784   0.00000  -0.01870  -0.01859   1.73010
    A9        2.00713   0.00193   0.00000  -0.00582  -0.00568   2.00146
   A10        1.89123   0.00468   0.00000   0.01576   0.01547   1.90670
   A11        1.93017   0.00273   0.00000   0.00587   0.00586   1.93603
   A12        1.92216  -0.00101   0.00000  -0.00124  -0.00123   1.92093
   A13        1.51430   0.00279   0.00000   0.02409   0.02381   1.53811
   A14        1.93406   0.00145   0.00000  -0.00483  -0.00483   1.92923
   A15        1.84929   0.00841   0.00000   0.00241   0.00241   1.85170
   A16        1.86208   0.00370   0.00000  -0.00133  -0.00133   1.86075
   A17        1.95211  -0.00489   0.00000   0.00052   0.00052   1.95262
   A18        1.93744  -0.00359   0.00000   0.00176   0.00176   1.93919
   A19        1.92487  -0.00417   0.00000   0.00136   0.00136   1.92623
   A20        2.64883   0.00585   0.00000  -0.00104  -0.00154   2.64729
   A21        2.56789   0.00807   0.00000   0.03008   0.03019   2.59809
   A22        1.91822  -0.00265   0.00000  -0.00516  -0.00517   1.91304
   A23        1.96032  -0.00351   0.00000  -0.00288  -0.00288   1.95743
   A24        1.93491  -0.00227   0.00000  -0.00772  -0.00774   1.92717
   A25        1.87234   0.00330   0.00000   0.00677   0.00677   1.87911
   A26        1.86787   0.00257   0.00000   0.00507   0.00504   1.87291
[...]
 ,0.01039194,0.60530799,0.00082225,0.00055857,-0.00451186,-0.00377192,-
 0.00606808,-0.00106804,0.00134357,0.00441395,0.00001032,0.01918240,0.0
 0449873,-0.09926195,0.01950784,-0.00419224,0.62662576,-0.00044827,0.00
 040094,0.00054462,0.00025310,-0.00085805,-0.00055103,-0.00064295,-0.00
 157834,0.00013398,-0.03009532,0.02963487,0.01300822,-0.06726099,0.0562
 6861,0.01984797,0.08342483,-0.00016534,-0.00008376,-0.00008559,0.00045
 154,0.00056168,0.00057004,0.00066211,0.00092903,-0.00041704,0.00348213
 ,0.00821972,0.00147830,0.06287101,-0.27314762,-0.07900760,-0.07192279,
 0.28708743,-0.00005823,-0.00027790,0.00126992,0.00091512,0.00058781,-0
 .00047749,-0.00033069,0.00048892,-0.00051919,0.00342104,-0.00053842,0.
 00197114,0.02269637,-0.07873306,-0.08502890,-0.02779284,0.08690167,0.0
 8048984,0.00097000,0.00033983,-0.00202983,-0.00220621,-0.00285708,-0.0
 0037421,-0.00004177,-0.00059000,0.00072238,-0.03064471,-0.00832432,-0.
 03652762,-0.08096360,-0.01794649,-0.08275290,0.00591805,0.00031217,0.0
 0824683,0.10298741,-0.00001598,0.00018659,-0.00045244,-0.00004503,0.00
 008160,0.00032553,0.00016646,-0.00008883,0.00039126,0.00033159,0.00189
 006,0.00223609,-0.01959513,-0.06470302,-0.04937583,-0.01143062,-0.0032
 3325,-0.02707842,0.02113735,0.05942844,0.00025569,0.00003250,-0.000062
 10,-0.00011823,0.00016902,0.00023498,-0.00030184,-0.00044964,0.0000253
 7,0.00245759,0.00102083,0.01013376,-0.09541421,-0.04868663,-0.28673992
 ,-0.00242540,-0.00041245,-0.00673593,0.10060176,0.05277825,0.29902608,
 0.00084643,-0.00015302,0.00111283,-0.00019428,-0.00011832,-0.00073741,
 -0.00195860,-0.00414432,0.00065280,-0.02829003,-0.02918680,0.02933905,
 -0.06148566,-0.04309981,0.03643661,0.00471096,0.00523508,-0.00645293,0
 .00543907,0.00983030,-0.00686045,0.08069886,0.00019321,-0.00004337,0.0
 0035411,-0.00005597,0.00001881,-0.00035695,0.00005674,0.00040202,-0.00
 035824,-0.00053651,0.00629513,-0.00401729,-0.05083833,-0.19962856,0.13
 037855,-0.00665577,-0.01860322,0.01949382,0.00294589,0.00675010,-0.005
 40576,0.05445590,0.20504123,-0.00032320,0.00003189,0.00008460,0.000277
 82,0.00026920,-0.00011497,0.00026804,0.00040921,-0.00014140,0.00306784
 ,0.00039583,0.00206148,0.04511409,0.12893855,-0.17032622,-0.00398224,-
 0.00919983,0.00941802,0.00734358,0.02186157,-0.01640934,-0.05065896,-0
 .14040503,0.17456001,-0.01386317,-0.00151981,-0.03020171,-0.01115148,-
 0.01107950,0.00940793,-0.02139614,0.01997020,-0.00084211,-0.04141455,0
 .00993643,-0.02385530,-0.01964826,-0.01196048,0.01175264,0.00219128,-0
 .00077949,0.00027202,0.00107843,-0.00058937,0.00015898,0.00007608,0.00
 085705,-0.00095151,0.06755552,-0.01914516,0.01663541,-0.04298812,-0.01
 251883,-0.01720748,0.01210419,0.03637267,0.01271768,0.00744219,0.00240
 013,-0.06102715,0.01811580,-0.01578781,0.01136157,-0.01209393,0.004006
 38,-0.00090977,-0.00122501,0.00060657,-0.00008084,0.00091021,0.0077208
 5,0.00009841,-0.00123044,-0.03337848,0.03498230,-0.01065892,-0.0197492
 3,0.02357216,0.01161455,0.00926892,-0.00571985,-0.01356331,-0.00999341
 ,-0.03402387,-0.00588468,0.01845632,-0.05477229,0.01046996,-0.00611189
 ,0.00405297,-0.00123124,0.00102300,0.00002993,-0.00158509,-0.00063711,
 0.00000502,-0.00403528,-0.00036640,0.00086415,0.02351995,-0.01019743,0
 .11058399,-0.01862098,-0.01148724,0.03606197,0.01301344,0.02860500,-0.
 00769986,-0.01280796,-0.00774043,-0.00673816,-0.07734253,-0.02500635,-
 0.02935632,-0.02406066,-0.00769454,-0.02269908,0.00229266,-0.00011674,
 -0.00119936,-0.00202145,0.00022727,0.00181459,0.00108653,-0.00042452,-
 0.00038391,0.02266361,0.01964760,-0.00291617,0.08939076,-0.02062377,-0
 .00657137,0.03656334,0.02816847,0.01001813,-0.00921390,-0.00971544,-0.
 00591986,-0.00998989,-0.02971442,-0.05575390,-0.05160286,-0.00408373,0
 .00084418,0.00946503,0.00247721,-0.00041899,0.00037400,0.00411428,-0.0
 0016534,-0.00000020,-0.00056247,-0.00018459,-0.00091712,0.01690007,0.0
 2057335,0.01576502,0.00716992,0.04183127,-0.00412633,0.00656504,0.0395
 0635,0.02184303,0.01883857,-0.03083636,-0.01096097,-0.00740001,-0.0060
 7875,-0.06491471,-0.05192328,-0.18713074,-0.00602208,0.00303552,0.0155
 4828,0.00259134,-0.00109650,-0.00025555,0.00592850,-0.00005682,0.00053
 696,0.00146097,0.00068551,0.00000875,0.00698282,0.01773439,-0.03650807
 ,0.04147262,0.01688244,0.21498520,-0.10379119,-0.05567940,-0.00729219,
 -0.01502393,-0.02719506,0.01214691,-0.01570624,-0.01597143,-0.01380410
 ,-0.00213568,-0.00227294,-0.00043326,0.00070987,-0.00012106,-0.0001405
 8,0.00001313,0.00003269,-0.00001360,-0.00014058,0.00003499,-0.00001808
 ,-0.00013466,-0.00002030,0.00004229,0.00111871,0.00369030,-0.00242330,
 0.00242715,0.00177850,0.00256050,0.55495645,-0.07229489,-0.15925076,-0
 .01058888,-0.01354009,-0.00829840,0.00706586,0.00609925,0.00595582,0.0
 0471861,0.00027996,0.00069083,-0.00183540,-0.00007669,0.00015995,-0.00
 003584,-0.00000165,-0.00001153,0.00004179,-0.00000688,-0.00002664,-0.0
 0001620,0.00007855,0.00000189,-0.00000421,-0.00082237,-0.00238738,0.00
 216706,0.00096721,0.00149773,0.00086176,-0.03827209,0.49413312,-0.0067
 3024,-0.00756020,-0.07235130,0.02938401,0.03199036,-0.00027886,-0.0230
 5816,-0.01965054,-0.01183161,0.00140254,-0.00060936,0.00662965,-0.0001
 6534,0.00000022,0.00039334,-0.00000012,0.00000256,-0.00014323,0.000224
 26,0.00004292,-0.00000842,-0.00011917,-0.00003941,-0.00000851,0.002360
 05,0.00572984,-0.00477840,-0.00396281,-0.00397787,-0.00571829,-0.01548
 706,-0.02387005,0.60485633,-0.01389074,0.00462622,-0.01371486,0.001779
 54,-0.00019636,0.00143908,-0.00203887,-0.00270978,-0.00085231,-0.00000
 672,-0.00021671,0.00075477,0.00006174,-0.00001192,0.00005602,-0.000001
 98,0.00000752,-0.00002141,0.00001633,0.00000940,0.00000089,-0.00003353
 ,-0.00000928,0.00000235,0.00051798,0.00104125,-0.00081084,-0.00035157,
 -0.00043378,-0.00034797,-0.17963899,0.03081453,-0.13543023,0.19225585,
 -0.01969286,0.00384805,-0.01964208,0.00247952,0.00046666,0.00014200,-0
 .00640669,-0.00460117,-0.00326985,-0.00009192,-0.00051797,0.00106665,0
 .00012064,-0.00003395,0.00003340,-0.00001302,0.00000661,-0.00001193,0.
 00001274,0.00000945,-0.00000493,-0.00004413,-0.00000097,0.00000548,0.0
 0051670,0.00162919,-0.00128431,-0.00045244,-0.00043401,-0.00053670,0.0
 3417297,-0.05331007,0.03666285,-0.03376906,0.05928057,-0.00272060,0.00
 045276,-0.00340116,0.00135763,0.00069150,-0.00000864,-0.00106016,-0.00
 117725,0.00079336,-0.00005738,-0.00028460,0.00038066,0.00000968,-0.000
 02823,0.00003717,0.00000405,0.00000121,-0.00001258,0.00001155,0.000006
 63,-0.00000029,-0.00001972,-0.00000048,0.00000270,0.00027507,0.0007762
 2,-0.00037435,-0.00024337,-0.00019864,-0.00015018,-0.13588301,0.033480
 17,-0.18602594,0.14825575,-0.03614783,0.19764069,-0.00913820,-0.000345
 08,0.01847442,-0.00217199,-0.00548872,-0.00037248,0.00068807,0.0013062
 4,-0.00101725,-0.00026678,0.00024926,-0.00118026,0.00008838,0.00001602
 ,-0.00011938,-0.00001333,0.00000106,0.00003991,-0.00005776,-0.00001417
 ,-0.00000020,0.00001930,0.00001328,0.00000450,-0.00052389,-0.00110070,
 0.00060699,0.00101205,0.00066002,0.00113547,-0.10545271,-0.02739398,0.
 10805776,0.01277329,0.00541582,-0.01965427,0.11197336,-0.01024958,-0.0
 0390059,0.02781007,-0.00593505,-0.00542002,-0.00072067,0.00154987,0.00
 079037,-0.00061325,-0.00045122,-0.00019355,-0.00136677,0.00017941,-0.0
 0000371,-0.00007756,0.00000074,0.00000602,0.00002590,-0.00005781,0.000
 00185,0.00000060,0.00000733,0.00000225,0.00000926,-0.00034597,-0.00068
 971,0.00052286,0.00082846,0.00119428,0.00136068,-0.02483244,-0.0610343
 2,0.04620370,-0.00219323,-0.00179434,0.00395224,0.03044159,0.06404189,
 -0.00247607,-0.00266256,0.00171060,-0.00087312,-0.00048858,0.00176354,
 0.00000723,0.00018596,0.00076608,0.00017948,0.00014816,0.00010430,-0.0
 0005624,0.00001459,0.00005576,-0.00000199,-0.00000977,-0.00000724,0.00
 002416,0.00000107,-0.00000561,0.00000493,-0.00000088,-0.00000354,0.000
 05151,0.00001124,0.00002789,-0.00023786,-0.00026273,-0.00006085,0.1112
 3586,0.05242561,-0.25787031,0.01138604,0.00414024,-0.01758886,-0.11957
 582,-0.05417823,0.27590151,0.00891481,-0.01445923,-0.00397299,0.000950
 15,0.00116315,-0.00152617,0.00069871,0.00116288,0.00096946,0.00024424,
 0.00024016,0.00000452,-0.00007441,0.00000834,-0.00000032,0.00000075,-0
 .00000916,0.00000419,0.00001273,-0.00000220,-0.00000024,0.00001723,0.0
 0000793,-0.00000379,-0.00020627,-0.00035810,0.00025773,-0.00015099,-0.
 00006073,-0.00017300,-0.13417222,0.11198605,0.04519391,-0.01224457,0.0
 1679658,0.00843795,-0.00816601,0.01052018,0.00159555,0.14457828,0.0171
 5517,-0.02338917,-0.00754953,-0.00102198,0.00362550,0.00010469,-0.0004
 8159,0.00106234,0.00042699,0.00013332,0.00024637,0.00011598,0.00011527
 ,-0.00001193,0.00000580,-0.00005220,0.00001505,0.00001759,0.00000428,-
 0.00000638,-0.00000248,-0.00000184,0.00000680,-0.00000338,-0.00003638,
 -0.00040693,0.00005995,-0.00022197,-0.00023421,-0.00024226,0.11220623,
 -0.19954336,-0.05655778,0.00255858,-0.00358167,-0.00127586,-0.00484812
 ,0.00741882,0.00147811,-0.12514371,0.21764697,0.00193709,-0.00334975,-
 0.00226865,-0.00001804,0.00096572,-0.00014634,-0.00054382,0.00075444,-
 0.00015721,0.00007843,0.00015607,-0.00016928,-0.00000848,-0.00000134,-
 0.00002338,-0.00001916,0.00000082,0.00002615,-0.00000323,-0.00001299,-
 0.00000358,0.00000848,0.00001566,-0.00000223,-0.00023707,-0.00036910,0
 .00018438,0.00005365,-0.00007549,0.00004404,0.04554353,-0.05694247,-0.
 07108719,-0.01214838,0.01826537,0.00830679,0.01426007,-0.02219098,-0.0
 0551539,-0.04812524,0.06429743,0.07094311,-0.01827230,0.01414659,-0.01
 178007,0.00046810,-0.00102305,0.00629626,-0.10480736,0.04487770,-0.017
 10203,-0.00943561,-0.00860689,0.00642029,0.00312891,-0.00152939,0.0007
 7364,-0.00053400,0.00016657,0.00027894,-0.00024989,-0.00008478,-0.0001
 1875,-0.00096779,0.00012522,0.00012044,0.01864572,0.01012236,-0.005369
 31,-0.00021419,0.00015656,-0.00130752,0.00035566,-0.00172519,-0.000593
 50,0.00054317,0.00093745,0.00047546,-0.00080572,-0.00005131,-0.0003120
 7,-0.00079473,0.00032021,-0.00022135,0.54483525,0.01898285,-0.00289738
 ,0.02904366,0.00094105,0.00253095,-0.01068959,0.04420269,-0.16686564,-
 0.00030812,0.00339078,0.00712352,-0.00277998,-0.00419144,0.00021428,0.
 00096013,0.00059328,-0.00046880,-0.00039020,0.00028677,0.00001289,0.00
 008827,0.00038834,-0.00035542,-0.00015693,0.00409958,-0.01917626,0.003
 54517,-0.00095177,-0.00173147,-0.00003420,-0.00283045,0.00237106,-0.00
 228380,-0.00065374,-0.00183555,-0.00023731,-0.00055755,0.00057859,0.00
 010384,0.00035815,-0.00039863,-0.00105850,0.08725549,0.48975017,-0.012
 11233,0.01979541,0.00079507,0.00231286,-0.00074403,-0.00381650,-0.0126
 0364,-0.00676109,-0.07696017,-0.00051808,-0.00196163,0.00184792,0.0007
 3112,0.00055608,0.00039196,0.00021640,0.00015364,0.00001294,-0.0000905
 2,-0.00031429,-0.00012018,-0.00014928,-0.00007742,-0.00011547,0.001433
 86,0.00584094,-0.00176775,-0.00127985,-0.00000172,-0.00097116,-0.00068
 142,-0.00070694,-0.00125087,0.00036009,0.00084985,0.00002566,0.0004610
 3,-0.00039228,-0.00006600,-0.00177880,-0.00003568,-0.00005672,-0.00076
 814,0.02026198,0.59867006,0.00104485,0.00050051,0.00040951,0.00005208,
 -0.00026147,-0.00048788,0.01469907,0.02477237,-0.00618598,0.00160496,0
 .00143684,-0.00109674,-0.00052644,0.00035743,-0.00003143,0.00015313,-0
 .00008434,-0.00016864,0.00005590,0.00005862,0.00002751,0.00020673,-0.0
 0009066,-0.00002203,-0.00317287,-0.00102481,0.00069621,-0.00001423,0.0
 0007167,0.00019388,-0.00023709,-0.00011042,-0.00143027,-0.00009391,0.0
 0035484,0.00021727,-0.00047965,-0.00004759,-0.00007418,-0.00060893,0.0
 0029319,-0.00014987,-0.16196861,-0.13330671,0.04350846,0.16868896,-0.0
 0323465,-0.00064264,-0.00337498,0.00043656,0.00041814,0.00125736,-0.00
 680331,-0.03724000,0.00916371,-0.00270742,-0.00247111,0.00202594,0.000
 77766,-0.00049094,0.00026726,-0.00013691,0.00005200,0.00006272,-0.0000
 4753,0.00001493,-0.00002194,-0.00029748,0.00003431,0.00003469,0.005671
 43,0.00459796,-0.00176135,-0.00029541,-0.00007476,-0.00068233,-0.00024
 639,0.00004022,0.00009996,0.00010578,0.00045208,-0.00014178,0.00050997
 ,-0.00003361,-0.00015605,-0.00032431,0.00042247,0.00011070,-0.12527251
 ,-0.19154520,0.04701936,0.13261886,0.22078624,0.00191738,0.00166629,0.
 00042194,-0.00087272,-0.00028468,-0.00028733,-0.00113986,0.00551501,0.
 00117623,0.00019943,0.00026235,-0.00045537,0.00002067,-0.00012060,-0.0
 0018500,-0.00010454,0.00001131,0.00002798,0.00002688,0.00007968,0.0000
 3583,0.00003581,0.00007054,0.00006382,-0.00064400,-0.00067456,0.000131
 01,0.00025367,-0.00003906,0.00021031,-0.00025947,0.00017935,0.00008207
 ,0.00011892,-0.00025114,0.00003134,-0.00036271,0.00012180,0.00013046,-
 0.00029292,-0.00022149,-0.00100365,0.04218090,0.04599676,-0.06887879,-
 0.04336822,-0.05326823,0.06571848,0.00121311,0.00052990,0.00556970,0.0
 0092082,0.00036738,-0.00160120,-0.01667916,0.00606877,-0.01791888,0.00
 051556,0.00067451,-0.00017155,-0.00021098,-0.00000356,-0.00001389,0.00
 005654,-0.00001260,0.00005191,0.00007416,-0.00002255,0.00000393,0.0000
 2477,0.00001333,0.00000896,-0.00045666,-0.00087203,0.00007402,-0.00035
 018,-0.00027917,-0.00020264,-0.00003604,0.00026204,-0.00020093,0.00002
 106,0.00006970,-0.00002441,0.00014094,-0.00012335,-0.00007123,-0.00015
 450,-0.00009287,0.00009173,-0.15192848,-0.03493996,-0.12379020,-0.0111
 8768,-0.00442045,-0.01600242,0.16544174,-0.00065424,-0.00269437,-0.006
 47311,-0.00111728,-0.00033280,0.00229810,0.02974957,-0.00338819,0.0307
 5075,-0.00041864,-0.00025359,-0.00069879,0.00009895,-0.00000549,0.0000
 8287,-0.00003287,-0.00000330,0.00008688,-0.00008902,-0.00010470,-0.000
 03173,-0.00004158,0.00002821,-0.00003567,0.00050537,0.00033685,0.00108
 773,0.00073224,0.00061898,0.00052241,-0.00012256,-0.00043039,-0.000164
 75,-0.00003161,0.00047848,0.00006777,0.00021896,-0.00011093,-0.0000888
 3,-0.00020849,0.00050087,0.00041165,-0.04073014,-0.05900525,-0.0463489
 7,-0.01381172,-0.00226036,-0.01937311,0.02971555,0.06730693,0.00140212
 ,0.00019087,0.00150461,-0.00018272,0.00023398,0.00016702,-0.00343309,0
 .00409569,-0.00155956,0.00088639,0.00076873,-0.00005884,-0.00050817,0.
 00012965,0.00010022,0.00006237,-0.00011538,-0.00029516,0.00008832,0.00
 019013,0.00007182,0.00013393,-0.00010959,0.00002091,-0.00120548,-0.000
 57559,0.00018608,-0.00043802,-0.00045641,-0.00034909,0.00011089,-0.000
 09849,-0.00003627,-0.00004887,-0.00002345,0.00002611,-0.00010236,0.000
 09813,0.00004443,0.00008808,0.00019759,0.00002987,-0.12700929,-0.04075
 220,-0.20927937,0.00591124,0.00089380,0.00789056,0.14134347,0.04089750
 ,0.21961848,0.00030251,0.00054641,0.00575246,0.00115142,-0.00039437,-0
 .00180644,-0.01329006,0.01674855,0.00997858,0.00059354,0.00105991,-0.0
 0083492,-0.00030546,-0.00005319,-0.00009630,0.00005989,-0.00014697,0.0
 0004269,0.00000560,0.00000586,0.00000800,0.00006754,-0.00000768,-0.000
 01466,-0.00148394,-0.00236051,0.00055181,0.00023968,0.00031531,0.00044
 526,-0.00045187,0.00040500,0.00009944,0.00009851,-0.00024930,-0.000162
 35,0.00023781,-0.00000977,-0.00004677,-0.00037470,-0.00049628,-0.00031
 954,-0.11639182,0.01954472,0.10553542,-0.00835304,0.00341911,0.0183873
 1,0.01325167,-0.00463381,-0.01700858,0.12478762,-0.00071123,0.00123566
 ,-0.00573721,-0.00201445,-0.00020593,0.00167709,0.02344534,-0.01838593
 ,-0.02085945,-0.00110023,-0.00092067,0.00071429,0.00055123,-0.00047379
 ,-0.00016529,-0.00037353,-0.00006201,0.00018157,-0.00005103,0.00004928
 ,0.00000653,-0.00013946,0.00014052,0.00006314,0.00228700,0.00219232,-0
 .00173556,0.00038489,-0.00021675,0.00008042,0.00002008,-0.00005411,0.0
 0073051,0.00012753,0.00009261,-0.00004749,0.00006283,-0.00005813,-0.00
 006946,-0.00000843,0.00002005,-0.00003023,0.01979077,-0.06058737,-0.03
 756284,-0.01148139,0.00779578,0.02053437,0.00253420,-0.00014728,-0.005
 67571,-0.03353109,0.06965695,-0.00237382,0.00036100,-0.00092365,-0.000
 08036,-0.00054321,0.00143700,-0.00259101,-0.00131719,0.01116021,-0.000
 91708,-0.00068262,0.00016642,0.00069580,-0.00029919,-0.00030885,-0.000
 17363,0.00016366,0.00030254,-0.00002871,-0.00001783,-0.00001806,-0.000
 11435,0.00016588,0.00006734,0.00089511,0.00062656,-0.00048271,0.000424
 99,0.00041037,0.00033768,0.00013885,-0.00016509,-0.00007854,-0.0000408
 8,0.00007134,0.00007235,-0.00009409,0.00005249,-0.00001540,-0.00015344
 ,0.00021151,0.00010559,0.10941230,-0.04175063,-0.23877839,0.00198985,-
 0.00150804,-0.00501892,0.01289129,-0.00311517,-0.01810016,-0.11999374,
 0.04736948,0.25021209,0.00315635,-0.01321309,-0.00749825,-0.02193668,0
 .00946926,0.02263774,-0.01500187,0.01899100,-0.00802289,-0.00447482,-0
 .00212245,-0.00230568,0.00109858,0.00044026,-0.00009714,-0.00007750,0.
 00001555,0.00006868,-0.00023172,-0.00000201,-0.00007156,-0.00012894,-0
 .00002954,0.00009041,-0.00053012,0.00093831,0.00068693,0.00380885,0.00
 366152,0.00344081,-0.00265980,0.00335168,0.00045586,0.00023344,-0.0001
 5755,0.00078087,0.00014283,0.00076972,-0.00075941,0.00153043,-0.000389
 32,-0.00017881,-0.00160630,-0.00261210,-0.00078697,0.00013677,0.000246
 99,-0.00009411,-0.00065668,0.00087132,-0.00009022,-0.00014490,0.000206
 99,0.00011293,0.03734207,-0.02436411,-0.01309103,0.01114375,0.01841701
 ,0.00742004,-0.01646857,0.01194474,-0.00944113,0.00582742,0.00217332,0
 .00333665,0.00258573,-0.00028376,0.00009758,0.00035207,-0.00032631,0.0
 0006471,-0.00000774,0.00021027,-0.00001621,0.00002577,0.00007290,-0.00
 000356,-0.00006622,-0.00023198,-0.00323954,-0.00005933,-0.00417115,-0.
 00487269,-0.00459465,0.01562838,-0.02050365,-0.00674916,0.00093466,-0.
 00015401,0.00011098,0.00085326,-0.00079517,-0.00059173,-0.00166906,-0.
 00339294,-0.00094699,0.00112433,0.00228551,0.00042963,-0.00024521,0.00
 014448,-0.00020457,0.00053116,-0.00053367,0.00011075,-0.00016190,-0.00
 007120,-0.00003333,-0.02043654,0.04276582,-0.00910658,0.00342173,-0.01
 409183,0.02173077,-0.00879032,-0.01094314,-0.00594450,0.00541739,0.003
 92832,0.00126431,0.00081825,0.00258235,-0.00022763,-0.00006986,0.00023
 833,-0.00012676,0.00003793,-0.00007321,0.00017390,0.00003260,0.0000336
 1,-0.00003785,-0.00002661,-0.00003008,0.00082725,0.00006263,-0.0012102
 8,-0.00292672,-0.00272430,-0.00311854,0.00465723,-0.00667665,-0.000493
 62,0.00104181,-0.00006495,0.00024516,-0.00056133,-0.00061800,0.0006286
 1,-0.00052448,-0.00102719,0.00079370,-0.00137621,0.00044166,0.00031777
 ,0.00006131,-0.00002079,-0.00009096,-0.00003764,0.00012448,0.00001833,
 -0.00051768,0.00052584,-0.00013655,-0.00836919,0.00913617,0.02140202||
 -0.00001658,0.00002084,-0.00001313,0.00002170,-0.00003108,-0.00000056,
 0.00000778,-0.00000520,-0.00000732,-0.00000221,0.00001696,-0.00003027,
 0.00001932,-0.00001411,0.00001975,0.00000400,-0.00001301,0.00000894,0.
 00000854,-0.00000269,-0.00000232,0.00001094,-0.00001597,-0.00000648,0.
 00001040,-0.00002878,-0.00001583,-0.00000907,0.00000951,0.00002108,0.0
 0000462,0.00000373,0.00000424,-0.00000255,0.00000452,-0.00000317,-0.00
 000770,0.00000974,-0.00000047,-0.00000652,0.00000040,0.00000518,0.0000
 0333,0.00000325,0.00000762,-0.00001426,0.00000851,0.00001063,-0.000011
 04,0.00000577,0.00000914,-0.00000868,-0.00000278,0.00001070,-0.0000120
 4,0.00003038,-0.00001773|||@


 WE'RE IN THE POSITION OF A VISITOR FROM ANOTHER
 DIMENSION WHO COMES TO EARTH AND SEES A CHESS MATCH.
 ASSUMING HE KNOWS IT'S A GAME, HE'S GOT TWO PROBLEMS:
 FIRST, FIGURE OUT THE RULES, AND SECOND, FIGURE OUT HOW TO WIN.
 NINETY PERCENT OF SCIENCE (INCLUDING VIRTUALLY ALL OF CHEMISRY)
 IS IN THAT SECOND CATEGORY.  THEY'RE TRYING TO APPLY
 THE LAWS THAT ARE ALREADY KNOWN.

                     -- SHELDON GLASHOW, 1979
 Job cpu time:  0 days  0 hours 15 minutes 51.0 seconds.
 File lengths (MBytes):  RWF=     62 Int=      0 D2E=      0 Chk=      3 Scr=      1
 Normal termination of Gaussian 09 at Sun Feb 22 22:24:19 2015.
