 Entering Gaussian System, Link 0=g09
 Initial command:
 /opt/gridware/applications/gaussian/g09/l1.exe "/lustre/SCRATCH5/gau/Gau-14523.inp" -scrdir="/lustre/SCRATCH5/gau/"
 Entering Link 1 = /opt/gridware/applications/gaussian/g09/l1.exe PID=     14524.
  
 Copyright (c) 1988,1990,1992,1993,1995,1998,2003,2009,2013,
            Gaussian, Inc.  All Rights Reserved.
  
 This is part of the Gaussian(R) 09 program.  It is based on
 the Gaussian(R) 03 system (copyright 2003, Gaussian, Inc.),
 the Gaussian(R) 98 system (copyright 1998, Gaussian, Inc.),
 the Gaussian(R) 94 system (copyright 1995, Gaussian, Inc.),
 the Gaussian 92(TM) system (copyright 1992, Gaussian, Inc.),
 the Gaussian 90(TM) system (copyright 1990, Gaussian, Inc.),
 the Gaussian 88(TM) system (copyright 1988, Gaussian, Inc.),
 the Gaussian 86(TM) system (copyright 1986, Carnegie Mellon
 University), and the Gaussian 82(TM) system (copyright 1983,
 Carnegie Mellon University). Gaussian is a federally registered
 trademark of Gaussian, Inc.
  
 This software contains proprietary and confidential information,
 including trade secrets, belonging to Gaussian, Inc.
  
 This software is provided under written license and may be
 used, copied, transmitted, or stored only in accord with that
 written license.
  
 The following legend is applicable only to US Government
 contracts under FAR:
  
                    RESTRICTED RIGHTS LEGEND
  
 Use, reproduction and disclosure by the US Government is
 subject to restrictions as set forth in subparagraphs (a)
 and (c) of the Commercial Computer Software - Restricted
 Rights clause in FAR 52.227-19.
  
 Gaussian, Inc.
 340 Quinnipiac St., Bldg. 40, Wallingford CT 06492
  
  
 ---------------------------------------------------------------
 Warning -- This program may not be used in any manner that
 competes with the business of Gaussian, Inc. or will provide
 assistance to any competitor of Gaussian, Inc.  The licensee
 of this program is prohibited from giving any competitor of
 Gaussian, Inc. access to this program.  By using this program,
 the user acknowledges that Gaussian, Inc. is engaged in the
 business of creating and licensing software in the field of
 computational chemistry and represents and warrants to the
 licensee that it is not a competitor of Gaussian, Inc. and that
 it will not use this program in any manner prohibited above.
 ---------------------------------------------------------------
  

 Cite this work as:
 Gaussian 09, Revision D.01,
 M. J. Frisch, G. W. Trucks, H. B. Schlegel, G. E. Scuseria, 
 M. A. Robb, J. R. Cheeseman, G. Scalmani, V. Barone, B. Mennucci, 
 G. A. Petersson, H. Nakatsuji, M. Caricato, X. Li, H. P. Hratchian, 
 A. F. Izmaylov, J. Bloino, G. Zheng, J. L. Sonnenberg, M. Hada, 
 M. Ehara, K. Toyota, R. Fukuda, J. Hasegawa, M. Ishida, T. Nakajima, 
 Y. Honda, O. Kitao, H. Nakai, T. Vreven, J. A. Montgomery, Jr., 
 J. E. Peralta, F. Ogliaro, M. Bearpark, J. J. Heyd, E. Brothers, 
 K. N. Kudin, V. N. Staroverov, T. Keith, R. Kobayashi, J. Normand, 
 K. Raghavachari, A. Rendell, J. C. Burant, S. S. Iyengar, J. Tomasi, 
 M. Cossi, N. Rega, J. M. Millam, M. Klene, J. E. Knox, J. B. Cross, 
 V. Bakken, C. Adamo, J. Jaramillo, R. Gomperts, R. E. Stratmann, 
 O. Yazyev, A. J. Austin, R. Cammi, C. Pomelli, J. W. Ochterski, 
 R. L. Martin, K. Morokuma, V. G. Zakrzewski, G. A. Voth, 
 P. Salvador, J. J. Dannenberg, S. Dapprich, A. D. Daniels, 
 O. Farkas, J. B. Foresman, J. V. Ortiz, J. Cioslowski, 
 and D. J. Fox, Gaussian, Inc., Wallingford CT, 2013.
 
 ******************************************
 Gaussian 09:  EM64L-G09RevD.01 24-Apr-2013
                23-Feb-2015 
 ******************************************
 %nprocshared=8
 Will use up to    8 processors via shared memory.
 %nprocl=1
 Will use up to    1 processors via Linda.
 ----------------------------------------------------------------------
 # opt=(calcfc,ts,noeigentest) freq=noraman b3lyp/gen pseudo=read gfinp
 ut geom=connectivity
 ----------------------------------------------------------------------
 1/5=1,10=4,11=1,14=-1,18=20,26=3,38=1,57=2/1,3;
 2/9=110,12=2,17=6,18=5,40=1/2;
 3/5=7,11=2,16=1,17=8,24=10,25=1,30=1,71=2,74=-5,140=1/1,2,3;
 4//1;
 5/5=2,38=5/2;
 8/6=4,10=90,11=11/1;
 11/6=1,8=1,9=11,15=111,16=1/1,2,10;
 10/6=1,13=1/2;
 6/7=2,8=2,9=2,10=2,28=1/1;
 7/10=1,18=20,25=1/1,2,3,16;
 1/5=1,10=4,11=1,14=-1,18=20,26=3/3(2);
 2/9=110/2;
 99//99;
 2/9=110/2;
 3/5=7,6=1,11=2,16=1,17=8,25=1,30=1,71=1,74=-5,82=7/1,2,3;
 4/5=5,16=3,69=1/1;
 5/5=2,38=5/2;
 7//1,2,3,16;
 1/5=1,11=1,14=-1,18=20,26=3/3(-5);
 2/9=110/2;
 6/7=2,8=2,9=2,10=2,19=2,28=1/1;
 99/9=1/99;
 --------------------
 gen calculation-ts624I C H O=6-31+g(d)/I=midix
 --------------------
 Symbolic Z-matrix:
 Charge =  0 Multiplicity = 1
 C                     0.73403   0.39352  -0.39335 
 O                     1.2733    1.86065  -0.24628 
 O                    -1.21161   0.29568   0.30651 
 O                    -0.60552   2.9416    0.65395 
 C                    -0.76545   3.9468   -0.34042 
 H                    -0.09854   3.70914  -1.11582 
 H                    -1.77881   4.01304  -0.65201 
 H                    -0.42135   4.89013   0.02266 
 H                    -1.30085   1.51393   0.61554 
 H                     0.51791   2.60198   0.16871 
 C                     0.6436    0.30053  -1.92626 
 H                     1.63161   0.26973  -2.34577 
 H                     0.11373  -0.58418  -2.19519 
 H                     0.22902   1.15365  -2.37895 
 C                    -1.93154   0.25021  -0.90079 
 H                    -1.84807  -0.73295  -1.26353 
 H                    -2.874     0.67109  -1.09261 
 H                    -1.27045   0.79182  -1.5108 
 I                     1.73833  -0.88692   0.64431 
 
 Add virtual bond connecting atoms H10        and O2         Dist= 2.15D+00.
 Add virtual bond connecting atoms H9         and O4         Dist= 3.00D+00.

 GradGradGradGradGradGradGradGradGradGradGradGradGradGradGradGradGradGrad
 Berny optimization.
 Initialization pass.
                           ----------------------------
                           !    Initial Parameters    !
                           ! (Angstroms and Degrees)  !
 --------------------------                            --------------------------
 ! Name  Definition              Value          Derivative Info.                !
 --------------------------------------------------------------------------------
 ! R1    R(1,2)                  1.57           calculate D2E/DX2 analytically  !
 ! R2    R(1,11)                 1.5384         calculate D2E/DX2 analytically  !
 ! R3    R(1,19)                 1.93           calculate D2E/DX2 analytically  !
 ! R4    R(2,10)                 1.1368         calculate D2E/DX2 analytically  !
 ! R5    R(3,9)                  1.26           calculate D2E/DX2 analytically  !
 ! R6    R(3,15)                 1.4064         calculate D2E/DX2 analytically  !
 ! R7    R(4,5)                  1.4229         calculate D2E/DX2 analytically  !
 ! R8    R(4,9)                  1.5885         calculate D2E/DX2 analytically  !
 ! R9    R(4,10)                 1.27           calculate D2E/DX2 analytically  !
 ! R10   R(5,6)                  1.05           calculate D2E/DX2 analytically  !
 ! R11   R(5,7)                  1.0623         calculate D2E/DX2 analytically  !
 ! R12   R(5,8)                  1.0678         calculate D2E/DX2 analytically  !
 ! R13   R(11,12)                1.0738         calculate D2E/DX2 analytically  !
 ! R14   R(11,13)                1.0657         calculate D2E/DX2 analytically  !
 ! R15   R(11,14)                1.051          calculate D2E/DX2 analytically  !
 ! R16   R(15,16)                1.0513         calculate D2E/DX2 analytically  !
 ! R17   R(15,17)                1.0498         calculate D2E/DX2 analytically  !
 ! R18   R(15,18)                1.05           calculate D2E/DX2 analytically  !
 ! A1    A(2,1,11)              99.7892         calculate D2E/DX2 analytically  !
 ! A2    A(2,1,19)             113.0087         calculate D2E/DX2 analytically  !
 ! A3    A(11,1,19)            121.75           calculate D2E/DX2 analytically  !
 ! A4    A(1,2,10)             114.5403         calculate D2E/DX2 analytically  !
 ! A5    A(9,3,15)             101.8616         calculate D2E/DX2 analytically  !
 ! A6    A(5,4,9)              124.6681         calculate D2E/DX2 analytically  !
 ! A7    A(5,4,10)              91.222          calculate D2E/DX2 analytically  !
 ! A8    A(9,4,10)              97.9107         calculate D2E/DX2 analytically  !
 ! A9    A(4,5,6)              106.5457         calculate D2E/DX2 analytically  !
 ! A10   A(4,5,7)              110.8702         calculate D2E/DX2 analytically  !
 ! A11   A(4,5,8)              110.5035         calculate D2E/DX2 analytically  !
 ! A12   A(6,5,7)              113.7916         calculate D2E/DX2 analytically  !
 ! A13   A(6,5,8)              104.2641         calculate D2E/DX2 analytically  !
 ! A14   A(7,5,8)              110.6148         calculate D2E/DX2 analytically  !
 ! A15   A(3,9,4)              147.5574         calculate D2E/DX2 analytically  !
 ! A16   A(2,10,4)             154.3741         calculate D2E/DX2 analytically  !
 ! A17   A(1,11,12)            109.6902         calculate D2E/DX2 analytically  !
 ! A18   A(1,11,13)            109.3203         calculate D2E/DX2 analytically  !
 ! A19   A(1,11,14)            113.7853         calculate D2E/DX2 analytically  !
 ! A20   A(12,11,13)           109.5765         calculate D2E/DX2 analytically  !
 ! A21   A(12,11,14)           102.5881         calculate D2E/DX2 analytically  !
 ! A22   A(13,11,14)           111.6553         calculate D2E/DX2 analytically  !
 ! A23   A(3,15,16)            106.6064         calculate D2E/DX2 analytically  !
 ! A24   A(3,15,17)            127.116          calculate D2E/DX2 analytically  !
 ! A25   A(3,15,18)             99.1924         calculate D2E/DX2 analytically  !
 ! A26   A(16,15,17)           112.5293         calculate D2E/DX2 analytically  !
 ! A27   A(16,15,18)           103.4121         calculate D2E/DX2 analytically  !
 ! A28   A(17,15,18)           104.6118         calculate D2E/DX2 analytically  !
 ! D1    D(11,1,2,10)          109.1107         calculate D2E/DX2 analytically  !
 ! D2    D(19,1,2,10)         -120.0901         calculate D2E/DX2 analytically  !
 ! D3    D(2,1,11,12)           70.4863         calculate D2E/DX2 analytically  !
 ! D4    D(2,1,11,13)         -169.3433         calculate D2E/DX2 analytically  !
 ! D5    D(2,1,11,14)          -43.7616         calculate D2E/DX2 analytically  !
 ! D6    D(19,1,11,12)         -54.4886         calculate D2E/DX2 analytically  !
 ! D7    D(19,1,11,13)          65.6819         calculate D2E/DX2 analytically  !
 ! D8    D(19,1,11,14)        -168.7365         calculate D2E/DX2 analytically  !
 ! D9    D(1,2,10,4)             3.6341         calculate D2E/DX2 analytically  !
 ! D10   D(15,3,9,4)          -101.0273         calculate D2E/DX2 analytically  !
 ! D11   D(9,3,15,16)          176.1747         calculate D2E/DX2 analytically  !
 ! D12   D(9,3,15,17)          -47.1818         calculate D2E/DX2 analytically  !
 ! D13   D(9,3,15,18)           69.1095         calculate D2E/DX2 analytically  !
 ! D14   D(9,4,5,6)            -82.3283         calculate D2E/DX2 analytically  !
 ! D15   D(9,4,5,7)             41.9805         calculate D2E/DX2 analytically  !
 ! D16   D(9,4,5,8)            164.9961         calculate D2E/DX2 analytically  !
 ! D17   D(10,4,5,6)            18.1655         calculate D2E/DX2 analytically  !
 ! D18   D(10,4,5,7)           142.4744         calculate D2E/DX2 analytically  !
 ! D19   D(10,4,5,8)           -94.51           calculate D2E/DX2 analytically  !
 ! D20   D(5,4,9,3)             95.1411         calculate D2E/DX2 analytically  !
 ! D21   D(10,4,9,3)            -1.8826         calculate D2E/DX2 analytically  !
 ! D22   D(5,4,10,2)          -127.1319         calculate D2E/DX2 analytically  !
 ! D23   D(9,4,10,2)            -1.8654         calculate D2E/DX2 analytically  !
 --------------------------------------------------------------------------------
 Trust Radius=3.00D-01 FncErr=1.00D-07 GrdErr=1.00D-06
 Number of steps in this run=     79 maximum allowed number of steps=    114.
 Search for a saddle point of order  1.
 GradGradGradGradGradGradGradGradGradGradGradGradGradGradGradGradGradGrad

                          Input orientation:                          
 ---------------------------------------------------------------------
 Center     Atomic      Atomic             Coordinates (Angstroms)
 Number     Number       Type             X           Y           Z
 ---------------------------------------------------------------------
      1          6           0        0.734028    0.393525   -0.393352
      2          8           0        1.273298    1.860650   -0.246278
      3          8           0       -1.211614    0.295676    0.306509
      4          8           0       -0.605521    2.941598    0.653955
      5          6           0       -0.765449    3.946800   -0.340415
      6          1           0       -0.098542    3.709142   -1.115820
      7          1           0       -1.778809    4.013038   -0.652007
      8          1           0       -0.421352    4.890131    0.022659
      9          1           0       -1.300845    1.513927    0.615543
     10          1           0        0.517909    2.601979    0.168710
     11          6           0        0.643603    0.300528   -1.926256
     12          1           0        1.631606    0.269731   -2.345769
     13          1           0        0.113727   -0.584181   -2.195185
     14          1           0        0.229024    1.153646   -2.378955
     15          6           0       -1.931538    0.250212   -0.900786
     16          1           0       -1.848070   -0.732949   -1.263526
     17          1           0       -2.873997    0.671091   -1.092611
     18          1           0       -1.270445    0.791824   -1.510796
     19         53           0        1.738326   -0.886923    0.644309
 ---------------------------------------------------------------------
                    Distance matrix (angstroms):
                    1          2          3          4          5
     1  C    0.000000
     2  O    1.570000   0.000000
     3  O    2.070000   2.988227   0.000000
     4  O    3.063318   2.347089   2.736598   0.000000
     5  C    3.857072   2.918454   3.734740   1.422948   0.000000
     6  H    3.494059   2.460685   3.861826   1.994557   1.050000
     7  H    4.413857   3.756694   3.880625   2.056727   1.062251
     8  H    4.661270   3.481654   4.670557   2.056510   1.067754
     9  H    2.532563   2.736634   1.260000   1.588457   2.668217
    10  H    2.289081   1.136835   2.886048   1.270000   1.927372
    11  C    1.538382   2.377566   2.902946   3.897826   4.218485
    12  H    2.152418   2.658434   3.888335   4.598038   4.825780
    13  H    2.141795   3.334673   2.964650   4.589775   4.974225
    14  H    2.185276   2.477634   3.165955   3.618256   3.598101
    15  C    2.717217   3.645938   1.406385   3.379215   3.916445
    16  H    2.948453   4.183836   1.981958   4.327003   4.891243
    17  H    3.685628   4.396747   2.204993   3.653994   3.967624
    18  H    2.329214   3.035132   1.884735   3.122467   3.402747
    19  I    1.930000   2.925501   3.196059   4.489018   5.532039
                    6          7          8          9         10
     6  H    0.000000
     7  H    1.769399   0.000000
     8  H    1.671849   1.751331   0.000000
     9  H    3.043374   2.842656   3.538895   0.000000
    10  H    1.804395   2.817726   2.477737   2.165961   0.000000
    11  C    3.581373   4.612431   5.098711   3.422566   3.114700
    12  H    4.041749   5.339673   5.583206   4.349329   3.605871
    13  H    4.432009   5.205527   5.930703   3.781965   3.987854
    14  H    2.869384   3.897418   4.489105   3.381911   2.944778
    15  C    3.920499   3.774133   4.966111   2.072197   3.560115
    16  H    4.776488   4.785723   5.942123   2.979733   4.332540
    17  H    4.115027   3.544316   5.005956   2.470419   4.101742
    18  H    3.168613   3.372265   4.457417   2.245813   3.048871
    19  I    5.253185   6.169303   6.198791   3.873173   3.726667
                   11         12         13         14         15
    11  C    0.000000
    12  H    1.073820   0.000000
    13  H    1.065740   1.748084   0.000000
    14  H    1.051010   1.658205   1.751316   0.000000
    15  C    2.772268   3.845043   2.560232   2.769333   0.000000
    16  H    2.777719   3.779519   2.176871   3.019560   1.051263
    17  H    3.633978   4.693821   3.423138   3.393565   1.049841
    18  H    2.019297   3.064582   2.068262   1.770035   1.050000
    19  I    3.035829   3.207772   3.285377   3.947409   4.141049
                   16         17         18         19
    16  H    0.000000
    17  H    1.747303   0.000000
    18  H    1.649159   1.661576   0.000000
    19  I    4.065191   5.168929   4.063911   0.000000
 Stoichiometry    C4H11IO3
 Framework group  C1[X(C4H11IO3)]
 Deg. of freedom    51
 Full point group                 C1      NOp   1
 Largest Abelian subgroup         C1      NOp   1
 Largest concise Abelian subgroup C1      NOp   1
                         Standard orientation:                         
 ---------------------------------------------------------------------
 Center     Atomic      Atomic             Coordinates (Angstroms)
 Number     Number       Type             X           Y           Z
 ---------------------------------------------------------------------
      1          6           0       -0.060945    0.108967    0.444806
      2          8           0       -0.875638   -1.211076    0.687005
      3          8           0       -0.972807    1.224687   -1.041323
      4          8           0       -2.638354   -0.937191   -0.838330
      5          6           0       -3.724200   -1.040454    0.075484
      6          1           0       -3.305388   -1.044187    1.038336
      7          1           0       -4.427559   -0.260333   -0.082860
      8          1           0       -4.195565   -1.994703   -0.010082
      9          1           0       -1.923552    0.422623   -1.242261
     10          1           0       -1.815657   -1.308432    0.055118
     11          6           0       -0.348365    0.840123    1.767463
     12          1           0        0.165281    0.348059    2.571907
     13          1           0       -0.012192    1.848714    1.693080
     14          1           0       -1.353169    0.787610    2.071162
     15          6           0       -1.597783    2.229102   -0.280747
     16          1           0       -0.846649    2.913818   -0.012207
     17          1           0       -2.515663    2.697305   -0.481868
     18          1           0       -1.763853    1.690019    0.604866
     19         53           0        1.741059   -0.217703   -0.164265
 ---------------------------------------------------------------------
 Rotational constants (GHZ):      1.8350258      0.5793862      0.5299683
 General basis read from cards:  (5D, 7F)
 ======================================================================================================
                                       Pseudopotential Parameters
 ======================================================================================================
  Center     Atomic      Valence      Angular      Power
  Number     Number     Electrons     Momentum     of R      Exponent        Coefficient   SO-Coeffient
 ======================================================================================================
    1          6
                                   No pseudopotential on this center.
    2          8
                                   No pseudopotential on this center.
    3          8
                                   No pseudopotential on this center.
    4          8
                                   No pseudopotential on this center.
    5          6
                                   No pseudopotential on this center.
    6          1
                                   No pseudopotential on this center.
    7          1
                                   No pseudopotential on this center.
    8          1
                                   No pseudopotential on this center.
    9          1
                                   No pseudopotential on this center.
   10          1
                                   No pseudopotential on this center.
   11          6
                                   No pseudopotential on this center.
   12          1
                                   No pseudopotential on this center.
   13          1
                                   No pseudopotential on this center.
   14          1
                                   No pseudopotential on this center.
   15          6
                                   No pseudopotential on this center.
   16          1
                                   No pseudopotential on this center.
   17          1
                                   No pseudopotential on this center.
   18          1
                                   No pseudopotential on this center.
   19         53
                                   No pseudopotential on this center.
 ======================================================================================================
 AO basis set in the form of general basis input (Overlap normalization):
      1 0
 S   6 1.00       0.000000000000
      0.3047524880D+04  0.1834737132D-02
      0.4573695180D+03  0.1403732281D-01
      0.1039486850D+03  0.6884262226D-01
      0.2921015530D+02  0.2321844432D+00
      0.9286662960D+01  0.4679413484D+00
      0.3163926960D+01  0.3623119853D+00
 SP   3 1.00       0.000000000000
      0.7868272350D+01 -0.1193324198D+00  0.6899906659D-01
      0.1881288540D+01 -0.1608541517D+00  0.3164239610D+00
      0.5442492580D+00  0.1143456438D+01  0.7443082909D+00
 SP   1 1.00       0.000000000000
      0.1687144782D+00  0.1000000000D+01  0.1000000000D+01
 SP   1 1.00       0.000000000000
      0.4380000000D-01  0.1000000000D+01  0.1000000000D+01
 D   1 1.00       0.000000000000
      0.8000000000D+00  0.1000000000D+01
 ****
      2 0
 S   6 1.00       0.000000000000
      0.5484671660D+04  0.1831074430D-02
      0.8252349460D+03  0.1395017220D-01
      0.1880469580D+03  0.6844507810D-01
      0.5296450000D+02  0.2327143360D+00
      0.1689757040D+02  0.4701928980D+00
      0.5799635340D+01  0.3585208530D+00
 SP   3 1.00       0.000000000000
      0.1553961625D+02 -0.1107775495D+00  0.7087426823D-01
      0.3599933586D+01 -0.1480262627D+00  0.3397528391D+00
      0.1013761750D+01  0.1130767015D+01  0.7271585773D+00
 SP   1 1.00       0.000000000000
      0.2700058226D+00  0.1000000000D+01  0.1000000000D+01
 SP   1 1.00       0.000000000000
      0.8450000000D-01  0.1000000000D+01  0.1000000000D+01
 D   1 1.00       0.000000000000
      0.8000000000D+00  0.1000000000D+01
 ****
      3 0
 S   6 1.00       0.000000000000
      0.5484671660D+04  0.1831074430D-02
      0.8252349460D+03  0.1395017220D-01
      0.1880469580D+03  0.6844507810D-01
      0.5296450000D+02  0.2327143360D+00
      0.1689757040D+02  0.4701928980D+00
      0.5799635340D+01  0.3585208530D+00
 SP   3 1.00       0.000000000000
      0.1553961625D+02 -0.1107775495D+00  0.7087426823D-01
      0.3599933586D+01 -0.1480262627D+00  0.3397528391D+00
      0.1013761750D+01  0.1130767015D+01  0.7271585773D+00
 SP   1 1.00       0.000000000000
      0.2700058226D+00  0.1000000000D+01  0.1000000000D+01
 SP   1 1.00       0.000000000000
      0.8450000000D-01  0.1000000000D+01  0.1000000000D+01
 D   1 1.00       0.000000000000
      0.8000000000D+00  0.1000000000D+01
 ****
      4 0
 S   6 1.00       0.000000000000
      0.5484671660D+04  0.1831074430D-02
      0.8252349460D+03  0.1395017220D-01
      0.1880469580D+03  0.6844507810D-01
      0.5296450000D+02  0.2327143360D+00
      0.1689757040D+02  0.4701928980D+00
      0.5799635340D+01  0.3585208530D+00
 SP   3 1.00       0.000000000000
      0.1553961625D+02 -0.1107775495D+00  0.7087426823D-01
      0.3599933586D+01 -0.1480262627D+00  0.3397528391D+00
      0.1013761750D+01  0.1130767015D+01  0.7271585773D+00
 SP   1 1.00       0.000000000000
      0.2700058226D+00  0.1000000000D+01  0.1000000000D+01
 SP   1 1.00       0.000000000000
      0.8450000000D-01  0.1000000000D+01  0.1000000000D+01
 D   1 1.00       0.000000000000
      0.8000000000D+00  0.1000000000D+01
 ****
      5 0
 S   6 1.00       0.000000000000
      0.3047524880D+04  0.1834737132D-02
      0.4573695180D+03  0.1403732281D-01
      0.1039486850D+03  0.6884262226D-01
      0.2921015530D+02  0.2321844432D+00
      0.9286662960D+01  0.4679413484D+00
      0.3163926960D+01  0.3623119853D+00
 SP   3 1.00       0.000000000000
      0.7868272350D+01 -0.1193324198D+00  0.6899906659D-01
      0.1881288540D+01 -0.1608541517D+00  0.3164239610D+00
      0.5442492580D+00  0.1143456438D+01  0.7443082909D+00
 SP   1 1.00       0.000000000000
      0.1687144782D+00  0.1000000000D+01  0.1000000000D+01
 SP   1 1.00       0.000000000000
      0.4380000000D-01  0.1000000000D+01  0.1000000000D+01
 D   1 1.00       0.000000000000
      0.8000000000D+00  0.1000000000D+01
 ****
      6 0
 S   3 1.00       0.000000000000
      0.1873113696D+02  0.3349460434D-01
      0.2825394365D+01  0.2347269535D+00
      0.6401216923D+00  0.8137573261D+00
 S   1 1.00       0.000000000000
      0.1612777588D+00  0.1000000000D+01
 ****
      7 0
 S   3 1.00       0.000000000000
      0.1873113696D+02  0.3349460434D-01
      0.2825394365D+01  0.2347269535D+00
      0.6401216923D+00  0.8137573261D+00
 S   1 1.00       0.000000000000
      0.1612777588D+00  0.1000000000D+01
 ****
      8 0
 S   3 1.00       0.000000000000
      0.1873113696D+02  0.3349460434D-01
      0.2825394365D+01  0.2347269535D+00
      0.6401216923D+00  0.8137573261D+00
 S   1 1.00       0.000000000000
      0.1612777588D+00  0.1000000000D+01
 ****
      9 0
 S   3 1.00       0.000000000000
      0.1873113696D+02  0.3349460434D-01
      0.2825394365D+01  0.2347269535D+00
      0.6401216923D+00  0.8137573261D+00
 S   1 1.00       0.000000000000
      0.1612777588D+00  0.1000000000D+01
 ****
     10 0
 S   3 1.00       0.000000000000
      0.1873113696D+02  0.3349460434D-01
      0.2825394365D+01  0.2347269535D+00
      0.6401216923D+00  0.8137573261D+00
 S   1 1.00       0.000000000000
      0.1612777588D+00  0.1000000000D+01
 ****
     11 0
 S   6 1.00       0.000000000000
      0.3047524880D+04  0.1834737132D-02
      0.4573695180D+03  0.1403732281D-01
      0.1039486850D+03  0.6884262226D-01
      0.2921015530D+02  0.2321844432D+00
      0.9286662960D+01  0.4679413484D+00
      0.3163926960D+01  0.3623119853D+00
 SP   3 1.00       0.000000000000
      0.7868272350D+01 -0.1193324198D+00  0.6899906659D-01
      0.1881288540D+01 -0.1608541517D+00  0.3164239610D+00
      0.5442492580D+00  0.1143456438D+01  0.7443082909D+00
 SP   1 1.00       0.000000000000
      0.1687144782D+00  0.1000000000D+01  0.1000000000D+01
 SP   1 1.00       0.000000000000
      0.4380000000D-01  0.1000000000D+01  0.1000000000D+01
 D   1 1.00       0.000000000000
      0.8000000000D+00  0.1000000000D+01
 ****
     12 0
 S   3 1.00       0.000000000000
      0.1873113696D+02  0.3349460434D-01
      0.2825394365D+01  0.2347269535D+00
      0.6401216923D+00  0.8137573261D+00
 S   1 1.00       0.000000000000
      0.1612777588D+00  0.1000000000D+01
 ****
     13 0
 S   3 1.00       0.000000000000
      0.1873113696D+02  0.3349460434D-01
      0.2825394365D+01  0.2347269535D+00
      0.6401216923D+00  0.8137573261D+00
 S   1 1.00       0.000000000000
      0.1612777588D+00  0.1000000000D+01
 ****
     14 0
 S   3 1.00       0.000000000000
      0.1873113696D+02  0.3349460434D-01
      0.2825394365D+01  0.2347269535D+00
      0.6401216923D+00  0.8137573261D+00
 S   1 1.00       0.000000000000
      0.1612777588D+00  0.1000000000D+01
 ****
     15 0
 S   6 1.00       0.000000000000
      0.3047524880D+04  0.1834737132D-02
      0.4573695180D+03  0.1403732281D-01
      0.1039486850D+03  0.6884262226D-01
      0.2921015530D+02  0.2321844432D+00
      0.9286662960D+01  0.4679413484D+00
      0.3163926960D+01  0.3623119853D+00
 SP   3 1.00       0.000000000000
      0.7868272350D+01 -0.1193324198D+00  0.6899906659D-01
      0.1881288540D+01 -0.1608541517D+00  0.3164239610D+00
      0.5442492580D+00  0.1143456438D+01  0.7443082909D+00
 SP   1 1.00       0.000000000000
      0.1687144782D+00  0.1000000000D+01  0.1000000000D+01
 SP   1 1.00       0.000000000000
      0.4380000000D-01  0.1000000000D+01  0.1000000000D+01
 D   1 1.00       0.000000000000
      0.8000000000D+00  0.1000000000D+01
 ****
     16 0
 S   3 1.00       0.000000000000
      0.1873113696D+02  0.3349460434D-01
      0.2825394365D+01  0.2347269535D+00
      0.6401216923D+00  0.8137573261D+00
 S   1 1.00       0.000000000000
      0.1612777588D+00  0.1000000000D+01
 ****
     17 0
 S   3 1.00       0.000000000000
      0.1873113696D+02  0.3349460434D-01
      0.2825394365D+01  0.2347269535D+00
      0.6401216923D+00  0.8137573261D+00
 S   1 1.00       0.000000000000
      0.1612777588D+00  0.1000000000D+01
 ****
     18 0
 S   3 1.00       0.000000000000
      0.1873113696D+02  0.3349460434D-01
      0.2825394365D+01  0.2347269535D+00
      0.6401216923D+00  0.8137573261D+00
 S   1 1.00       0.000000000000
      0.1612777588D+00  0.1000000000D+01
 ****
     19 0
 S   3 1.00       0.000000000000
      0.1435118600D+05  0.6100296243D-01
      0.2173074100D+04  0.3666397742D+00
      0.4778720500D+03  0.6911305744D+00
 S   3 1.00       0.000000000000
      0.6481887000D+03 -0.1128509932D+00
      0.1403064000D+03  0.8322799497D-01
      0.4569880000D+02  0.9697519414D+00
 S   3 1.00       0.000000000000
      0.5669469000D+02 -0.2736970086D+00
      0.2748875000D+02  0.4650000147D-01
      0.8209096000D+01  0.1091576034D+01
 S   3 1.00       0.000000000000
      0.8191679000D+01 -0.4508282032D+00
      0.3244596000D+01  0.4632092088D+00
      0.1300489000D+01  0.8386363779D+00
 S   2 1.00       0.000000000000
      0.1451380000D+01 -0.6658518470D+00
      0.3281030000D+00  0.1328583695D+01
 S   1 1.00       0.000000000000
      0.1150760000D+00  0.1000000000D+01
 P   3 1.00       0.000000000000
      0.6481887000D+03  0.1541140437D+00
      0.1403064000D+03  0.6194621756D+00
      0.4569880000D+02  0.3837581088D+00
 P   3 1.00       0.000000000000
      0.5669469000D+02 -0.1523219476D+00
      0.2748875000D+02  0.5437688128D+00
      0.8209096000D+01  0.6561677741D+00
 P   3 1.00       0.000000000000
      0.8191679000D+01  0.1186999031D-01
      0.3244596000D+01  0.5265245700D+00
      0.1300489000D+01  0.5266075699D+00
 P   2 1.00       0.000000000000
      0.1451380000D+01  0.2754100034D-01
      0.3281030000D+00  0.9851370121D+00
 P   1 1.00       0.000000000000
      0.1150760000D+00  0.1000000000D+01
 D   3 1.00       0.000000000000
      0.1280902600D+03  0.1158640046D+00
      0.3598237800D+02  0.4820490193D+00
      0.1155111600D+02  0.5894450236D+00
 D   3 1.00       0.000000000000
      0.6146152000D+01  0.2681821130D+00
      0.2220937000D+01  0.5800612445D+00
      0.8099120000D+00  0.3262261375D+00
 D   1 1.00       0.000000000000
      0.4000000000D+00  0.1000000000D+01
 ****

 There are   194 symmetry adapted cartesian basis functions of A   symmetry.
 There are   184 symmetry adapted basis functions of A   symmetry.
   184 basis functions,   361 primitive gaussians,   194 cartesian basis functions
    56 alpha electrons       56 beta electrons
       nuclear repulsion energy       817.5674969966 Hartrees.
 NAtoms=   19 NActive=   19 NUniq=   19 SFac= 1.00D+00 NAtFMM=   60 NAOKFM=F Big=F
 Integral buffers will be    131072 words long.
 Raffenetti 2 integral format.
 Two-electron integral symmetry is turned on.
 One-electron integrals computed using PRISM.
   1 Symmetry operations used in ECPInt.
 ECPInt:  NShTT=    2556 NPrTT=   13391 LenC2=    2482 LenP2D=    9269.
 LDataN:  DoStor=T MaxTD1= 4 Len=   56
 NBasis=   184 RedAO= T EigKep=  6.89D-05  NBF=   184
 NBsUse=   184 1.00D-06 EigRej= -1.00D+00 NBFU=   184
 Defaulting to unpruned grid for atomic number  53.
 ExpMin= 4.38D-02 ExpMax= 1.44D+04 ExpMxC= 1.44D+04 IAcc=2 IRadAn=         4 AccDes= 0.00D+00
 Harris functional with IExCor=  402 and IRadAn=       4 diagonalized for initial guess.
 HarFok:  IExCor=  402 AccDes= 0.00D+00 IRadAn=         4 IDoV= 1 UseB2=F ITyADJ=14
 ICtDFT=  3500011 ScaDFX=  1.000000  1.000000  1.000000  1.000000
 Defaulting to unpruned grid for atomic number  53.
 Defaulting to unpruned grid for atomic number  53.
 Defaulting to unpruned grid for atomic number  53.
 Defaulting to unpruned grid for atomic number  53.
 Defaulting to unpruned grid for atomic number  53.
 Defaulting to unpruned grid for atomic number  53.
 Defaulting to unpruned grid for atomic number  53.
 Defaulting to unpruned grid for atomic number  53.
 FoFCou: FMM=F IPFlag=           0 FMFlag=      100000 FMFlg1=           0
         NFxFlg=           0 DoJE=T BraDBF=F KetDBF=T FulRan=T
         wScrn=  0.000000 ICntrl=     500 IOpCl=  0 I1Cent=   200000004 NGrid=           0
         NMat0=    1 NMatS0=      1 NMatT0=    0 NMatD0=    1 NMtDS0=    0 NMtDT0=    0
 Petite list used in FoFCou.
 Requested convergence on RMS density matrix=1.00D-08 within 128 cycles.
 Requested convergence on MAX density matrix=1.00D-06.
 Requested convergence on             energy=1.00D-06.
 No special actions if energy rises.
 Defaulting to unpruned grid for atomic number  53.
 Defaulting to unpruned grid for atomic number  53.
 Defaulting to unpruned grid for atomic number  53.
 Defaulting to unpruned grid for atomic number  53.
 Defaulting to unpruned grid for atomic number  53.
 Defaulting to unpruned grid for atomic number  53.
 Defaulting to unpruned grid for atomic number  53.
 Defaulting to unpruned grid for atomic number  53.
 EnCoef did     2 forward-backward iterations
 EnCoef did     1 forward-backward iterations
 SCF Done:  E(RB3LYP) =  -7274.64612954     A.U. after   16 cycles
            NFock= 16  Conv=0.85D-08     -V/T= 1.9989
 DoSCS=F DFT=T ScalE2(SS,OS)=  1.000000  1.000000
 Range of M.O.s used for correlation:     1   184
 NBasis=   184 NAE=    56 NBE=    56 NFC=     0 NFV=     0
 NROrb=    184 NOA=    56 NOB=    56 NVA=   128 NVB=   128

 **** Warning!!: The largest alpha MO coefficient is  0.28466477D+02

   1 Symmetry operations used in ECPInt.
 ECPInt:  NShTT=    2556 NPrTT=   13391 LenC2=    2482 LenP2D=    9269.
 LDataN:  DoStor=T MaxTD1= 5 Len=  102
 Number of processors reduced to   5 by ecpmxn.
 Symmetrizing basis deriv contribution to polar:
 IMax=3 JMax=2 DiffMx= 0.00D+00
 G2DrvN: will do    20 centers at a time, making    1 passes.
 Calling FoFCou, ICntrl=  3107 FMM=F I1Cent=   0 AccDes= 0.00D+00.
 Defaulting to unpruned grid for atomic number  53.
 Defaulting to unpruned grid for atomic number  53.
 Defaulting to unpruned grid for atomic number  53.
 Defaulting to unpruned grid for atomic number  53.
 Defaulting to unpruned grid for atomic number  53.
 Defaulting to unpruned grid for atomic number  53.
 Defaulting to unpruned grid for atomic number  53.
 Defaulting to unpruned grid for atomic number  53.
 End of G2Drv F.D. properties file   721 does not exist.
 End of G2Drv F.D. properties file   722 does not exist.
 End of G2Drv F.D. properties file   788 does not exist.
          IDoAtm=1111111111111111111
          Differentiating once with respect to nuclear coordinates.
 Defaulting to unpruned grid for atomic number  53.
 Defaulting to unpruned grid for atomic number  53.
 Defaulting to unpruned grid for atomic number  53.
 Defaulting to unpruned grid for atomic number  53.
 Defaulting to unpruned grid for atomic number  53.
 Defaulting to unpruned grid for atomic number  53.
 Defaulting to unpruned grid for atomic number  53.
 Defaulting to unpruned grid for atomic number  53.
 Defaulting to unpruned grid for atomic number  53.
          There are    60 degrees of freedom in the 1st order CPHF.  IDoFFX=6 NUNeed=     0.
     54 vectors produced by pass  0 Test12= 1.19D-14 1.67D-09 XBig12= 1.79D-01 1.11D-01.
 AX will form    54 AO Fock derivatives at one time.
     54 vectors produced by pass  1 Test12= 1.19D-14 1.67D-09 XBig12= 9.25D-02 7.89D-02.
     54 vectors produced by pass  2 Test12= 1.19D-14 1.67D-09 XBig12= 8.40D-04 5.48D-03.
     54 vectors produced by pass  3 Test12= 1.19D-14 1.67D-09 XBig12= 5.64D-06 5.15D-04.
     54 vectors produced by pass  4 Test12= 1.19D-14 1.67D-09 XBig12= 1.04D-08 1.76D-05.
     45 vectors produced by pass  5 Test12= 1.19D-14 1.67D-09 XBig12= 1.19D-11 3.76D-07.
      9 vectors produced by pass  6 Test12= 1.19D-14 1.67D-09 XBig12= 2.04D-14 2.22D-08.
 InvSVY:  IOpt=1 It=  1 EMax= 5.55D-16
 Solved reduced A of dimension   324 with    60 vectors.
 End of Minotr F.D. properties file   721 does not exist.
 End of Minotr F.D. properties file   722 does not exist.
 End of Minotr F.D. properties file   788 does not exist.

 **********************************************************************

            Population analysis using the SCF density.

 **********************************************************************

 Orbital symmetries:
       Occupied  (A) (A) (A) (A) (A) (A) (A) (A) (A) (A) (A) (A)
                 (A) (A) (A) (A) (A) (A) (A) (A) (A) (A) (A) (A)
                 (A) (A) (A) (A) (A) (A) (A) (A) (A) (A) (A) (A)
                 (A) (A) (A) (A) (A) (A) (A) (A) (A) (A) (A) (A)
                 (A) (A) (A) (A) (A) (A) (A) (A)
       Virtual   (A) (A) (A) (A) (A) (A) (A) (A) (A) (A) (A) (A)
                 (A) (A) (A) (A) (A) (A) (A) (A) (A) (A) (A) (A)
                 (A) (A) (A) (A) (A) (A) (A) (A) (A) (A) (A) (A)
                 (A) (A) (A) (A) (A) (A) (A) (A) (A) (A) (A) (A)
                 (A) (A) (A) (A) (A) (A) (A) (A) (A) (A) (A) (A)
                 (A) (A) (A) (A) (A) (A) (A) (A) (A) (A) (A) (A)
                 (A) (A) (A) (A) (A) (A) (A) (A) (A) (A) (A) (A)
                 (A) (A) (A) (A) (A) (A) (A) (A) (A) (A) (A) (A)
                 (A) (A) (A) (A) (A) (A) (A) (A) (A) (A) (A) (A)
                 (A) (A) (A) (A) (A) (A) (A) (A) (A) (A) (A) (A)
                 (A) (A) (A) (A) (A) (A) (A) (A)
 The electronic state is 1-A.
 Alpha  occ. eigenvalues -- **********-175.70593-164.48347-164.48114-164.48092
 Alpha  occ. eigenvalues --  -35.81906 -30.98782 -30.98344 -30.98283 -22.93625
 Alpha  occ. eigenvalues --  -22.93409 -22.93360 -22.92971 -22.92968 -19.20850
 Alpha  occ. eigenvalues --  -19.13953 -19.10635 -10.35310 -10.22471 -10.21002
 Alpha  occ. eigenvalues --  -10.19059  -6.41471  -4.72273  -4.70945  -4.70775
 Alpha  occ. eigenvalues --   -2.10049  -2.09529  -2.09384  -2.08216  -2.08212
 Alpha  occ. eigenvalues --   -1.04121  -0.98025  -0.93767  -0.80249  -0.73575
 Alpha  occ. eigenvalues --   -0.70035  -0.65464  -0.57801  -0.52819  -0.51595
 Alpha  occ. eigenvalues --   -0.48969  -0.46878  -0.45815  -0.43747  -0.42700
 Alpha  occ. eigenvalues --   -0.41497  -0.40678  -0.40097  -0.37816  -0.34434
 Alpha  occ. eigenvalues --   -0.32694  -0.29452  -0.28881  -0.26592  -0.25238
 Alpha  occ. eigenvalues --   -0.23784
 Alpha virt. eigenvalues --   -0.10692  -0.02686  -0.00307   0.01674   0.02463
 Alpha virt. eigenvalues --    0.02858   0.04226   0.04755   0.05875   0.06056
 Alpha virt. eigenvalues --    0.06577   0.07398   0.08745   0.09169   0.10816
 Alpha virt. eigenvalues --    0.11336   0.11974   0.13478   0.13535   0.14687
 Alpha virt. eigenvalues --    0.16265   0.17646   0.18904   0.20285   0.20646
 Alpha virt. eigenvalues --    0.21523   0.22198   0.23236   0.24328   0.24820
 Alpha virt. eigenvalues --    0.26524   0.27802   0.28004   0.29156   0.30185
 Alpha virt. eigenvalues --    0.30921   0.31768   0.32625   0.33474   0.35479
 Alpha virt. eigenvalues --    0.36371   0.38050   0.39679   0.44328   0.45071
 Alpha virt. eigenvalues --    0.45929   0.47252   0.48469   0.55639   0.57363
 Alpha virt. eigenvalues --    0.58783   0.59796   0.60867   0.64507   0.66917
 Alpha virt. eigenvalues --    0.67866   0.68728   0.70684   0.72389   0.73692
 Alpha virt. eigenvalues --    0.74841   0.78174   0.85926   0.86799   0.90952
 Alpha virt. eigenvalues --    0.94490   0.95393   0.95673   0.97082   0.99004
 Alpha virt. eigenvalues --    1.00536   1.02451   1.08462   1.11245   1.13278
 Alpha virt. eigenvalues --    1.14000   1.16555   1.18705   1.19561   1.23067
 Alpha virt. eigenvalues --    1.25190   1.28068   1.30500   1.32840   1.34107
 Alpha virt. eigenvalues --    1.36585   1.39013   1.41862   1.42878   1.45223
 Alpha virt. eigenvalues --    1.50211   1.53580   1.57968   1.59087   1.61652
 Alpha virt. eigenvalues --    1.62786   1.70637   1.74664   1.79075   1.80745
 Alpha virt. eigenvalues --    1.84749   1.85584   1.89459   1.92829   1.94651
 Alpha virt. eigenvalues --    1.96684   1.99273   2.08063   2.11195   2.13126
 Alpha virt. eigenvalues --    2.16671   2.18620   2.22603   2.23736   2.25559
 Alpha virt. eigenvalues --    2.31053   2.32969   2.38139   2.39040   2.41266
 Alpha virt. eigenvalues --    2.41932   2.45111   2.51420   2.55200   2.74908
 Alpha virt. eigenvalues --    2.86026   2.87324   2.91032
          Condensed to atoms (all electrons):
               1          2          3          4          5          6
     1  C    6.833223   0.118887  -0.003205   0.012281  -0.013885  -0.001573
     2  O    0.118887   8.721598  -0.015784  -0.080217   0.012813   0.013813
     3  O   -0.003205  -0.015784   8.600486  -0.051288   0.022195  -0.002343
     4  O    0.012281  -0.080217  -0.051288   8.760782   0.023478  -0.103823
     5  C   -0.013885   0.012813   0.022195   0.023478   5.180107   0.434338
     6  H   -0.001573   0.013813  -0.002343  -0.103823   0.434338   0.575196
     7  H    0.010336  -0.003523   0.001051  -0.061877   0.404410  -0.036908
     8  H   -0.004430   0.000809  -0.000670  -0.024374   0.375515  -0.048822
     9  H   -0.023141  -0.000035   0.106817   0.134325  -0.016851   0.001622
    10  H    0.050723   0.030748   0.000140   0.114796  -0.010901  -0.008061
    11  C   -0.891663  -0.098898  -0.029092  -0.021600   0.003077  -0.000689
    12  H   -0.096973  -0.007257   0.002037   0.000272   0.000718   0.000060
    13  H   -0.075266   0.011288   0.001164  -0.000166  -0.000926  -0.000004
    14  H    0.001746  -0.013152   0.000183  -0.000404   0.000980   0.000529
    15  C   -0.145334   0.010511   0.065764   0.041563  -0.032916  -0.001418
    16  H   -0.005546  -0.000581  -0.037845  -0.001070   0.000858   0.000002
    17  H    0.007203  -0.000051  -0.018811   0.001124   0.000917  -0.000023
    18  H   -0.055601   0.003871  -0.099109  -0.003763  -0.002636   0.000654
    19  I    0.340051  -0.133359  -0.070683  -0.003331  -0.004619   0.000023
               7          8          9         10         11         12
     1  C    0.010336  -0.004430  -0.023141   0.050723  -0.891663  -0.096973
     2  O   -0.003523   0.000809  -0.000035   0.030748  -0.098898  -0.007257
     3  O    0.001051  -0.000670   0.106817   0.000140  -0.029092   0.002037
     4  O   -0.061877  -0.024374   0.134325   0.114796  -0.021600   0.000272
     5  C    0.404410   0.375515  -0.016851  -0.010901   0.003077   0.000718
     6  H   -0.036908  -0.048822   0.001622  -0.008061  -0.000689   0.000060
     7  H    0.553293  -0.034526  -0.002658   0.005624  -0.003785  -0.000002
     8  H   -0.034526   0.549591   0.000606  -0.004800   0.001435   0.000000
     9  H   -0.002658   0.000606   0.294128  -0.009536   0.018922  -0.000031
    10  H    0.005624  -0.004800  -0.009536   0.315468  -0.017480  -0.000167
    11  C   -0.003785   0.001435   0.018922  -0.017480   6.540858   0.438648
    12  H   -0.000002   0.000000  -0.000031  -0.000167   0.438648   0.453090
    13  H    0.000003   0.000000  -0.000038  -0.000078   0.392689  -0.025928
    14  H   -0.000038   0.000003   0.000235  -0.000051   0.359376  -0.026855
    15  C   -0.005418   0.002942  -0.005362  -0.003388  -0.020371   0.005403
    16  H    0.000008   0.000000   0.002872   0.000023   0.008704   0.000017
    17  H    0.000033   0.000002  -0.005499  -0.000042  -0.007799  -0.000032
    18  H   -0.000164   0.000017  -0.002792   0.000437   0.018174   0.001208
    19  I    0.000003   0.000005   0.002455   0.003364   0.006879  -0.006901
              13         14         15         16         17         18
     1  C   -0.075266   0.001746  -0.145334  -0.005546   0.007203  -0.055601
     2  O    0.011288  -0.013152   0.010511  -0.000581  -0.000051   0.003871
     3  O    0.001164   0.000183   0.065764  -0.037845  -0.018811  -0.099109
     4  O   -0.000166  -0.000404   0.041563  -0.001070   0.001124  -0.003763
     5  C   -0.000926   0.000980  -0.032916   0.000858   0.000917  -0.002636
     6  H   -0.000004   0.000529  -0.001418   0.000002  -0.000023   0.000654
     7  H    0.000003  -0.000038  -0.005418   0.000008   0.000033  -0.000164
     8  H    0.000000   0.000003   0.002942   0.000000   0.000002   0.000017
     9  H   -0.000038   0.000235  -0.005362   0.002872  -0.005499  -0.002792
    10  H   -0.000078  -0.000051  -0.003388   0.000023  -0.000042   0.000437
    11  C    0.392689   0.359376  -0.020371   0.008704  -0.007799   0.018174
    12  H   -0.025928  -0.026855   0.005403   0.000017  -0.000032   0.001208
    13  H    0.512277  -0.031778  -0.000400   0.000660   0.000392  -0.011467
    14  H   -0.031778   0.452207  -0.020922   0.000553   0.000259   0.004478
    15  C   -0.000400  -0.020922   5.269773   0.394251   0.367181   0.434592
    16  H    0.000660   0.000553   0.394251   0.521116  -0.031304  -0.053100
    17  H    0.000392   0.000259   0.367181  -0.031304   0.506802  -0.041548
    18  H   -0.011467   0.004478   0.434592  -0.053100  -0.041548   0.611662
    19  I    0.000621   0.004053   0.017149   0.000389  -0.000228   0.001675
              19
     1  C    0.340051
     2  O   -0.133359
     3  O   -0.070683
     4  O   -0.003331
     5  C   -0.004619
     6  H    0.000023
     7  H    0.000003
     8  H    0.000005
     9  H    0.002455
    10  H    0.003364
    11  C    0.006879
    12  H   -0.006901
    13  H    0.000621
    14  H    0.004053
    15  C    0.017149
    16  H    0.000389
    17  H   -0.000228
    18  H    0.001675
    19  I   52.506257
 Mulliken charges:
               1
     1  C   -0.057833
     2  O   -0.571480
     3  O   -0.471005
     4  O   -0.736708
     5  C   -0.376670
     6  H    0.177427
     7  H    0.174140
     8  H    0.186698
     9  H    0.503963
    10  H    0.533180
    11  C   -0.697384
    12  H    0.262694
    13  H    0.226958
    14  H    0.268597
    15  C   -0.373599
    16  H    0.199992
    17  H    0.221424
    18  H    0.193411
    19  I    0.336198
 Sum of Mulliken charges =   0.00000
 Mulliken charges with hydrogens summed into heavy atoms:
               1
     1  C   -0.057833
     2  O   -0.038301
     3  O    0.032958
     4  O   -0.736708
     5  C    0.161594
    11  C    0.060865
    15  C    0.241228
    19  I    0.336198
 APT charges:
               1
     1  C   -0.199293
     2  O   -0.407597
     3  O   -0.426014
     4  O   -0.414866
     5  C   -1.483287
     6  H    0.151360
     7  H    0.534078
     8  H    0.644457
     9  H    0.501822
    10  H    0.493873
    11  C   -1.426522
    12  H    0.557939
    13  H    0.423346
    14  H    0.549258
    15  C   -1.104991
    16  H    0.337273
    17  H    0.720525
    18  H    0.161609
    19  I    0.387029
 Sum of APT charges =   0.00000
 APT charges with hydrogens summed into heavy atoms:
               1
     1  C   -0.199293
     2  O    0.086277
     3  O    0.075808
     4  O   -0.414866
     5  C   -0.153393
    11  C    0.104021
    15  C    0.114416
    19  I    0.387029
 Electronic spatial extent (au):  <R**2>=           2150.6923
 Charge=              0.0000 electrons
 Dipole moment (field-independent basis, Debye):
    X=              1.4204    Y=              3.6565    Z=              2.5256  Tot=              4.6654
 Quadrupole moment (field-independent basis, Debye-Ang):
   XX=            -67.7842   YY=            -74.0163   ZZ=            -75.0153
   XY=             -7.0391   XZ=             -4.6277   YZ=              1.4128
 Traceless Quadrupole moment (field-independent basis, Debye-Ang):
   XX=              4.4877   YY=             -1.7444   ZZ=             -2.7433
   XY=             -7.0391   XZ=             -4.6277   YZ=              1.4128
 Octapole moment (field-independent basis, Debye-Ang**2):
  XXX=             74.7899  YYY=              1.8323  ZZZ=              0.0498  XYY=             16.5259
  XXY=              2.8268  XXZ=              1.7321  XZZ=             29.2666  YZZ=              0.2128
  YYZ=             -1.0430  XYZ=              6.1391
 Hexadecapole moment (field-independent basis, Debye-Ang**3):
 XXXX=          -1608.5822 YYYY=           -544.2808 ZZZZ=           -334.2914 XXXY=            -49.1203
 XXXZ=            -42.3208 YYYX=            -29.2767 YYYZ=              0.5183 ZZZX=            -15.7923
 ZZZY=              0.9575 XXYY=           -354.7152 XXZZ=           -355.6541 YYZZ=           -163.3802
 XXYZ=            -20.6545 YYXZ=             -7.8672 ZZXY=            -17.5352
 N-N= 8.175674969966D+02 E-N=-1.890974507888D+04  KE= 7.282569268974D+03
  Exact polarizability:   0.000   0.000   0.000   0.000   0.000   0.000
 Approx polarizability: 189.888   4.817 154.315  -1.410 -16.106 128.736
   1 Symmetry operations used in ECPInt.
 ECPInt:  NShTT=    2556 NPrTT=   13391 LenC2=    2482 LenP2D=    9269.
 LDataN:  DoStor=T MaxTD1= 6 Len=  172
 Calling FoFJK, ICntrl=    100147 FMM=F ISym2X=0 I1Cent= 0 IOpClX= 0 NMat=1 NMatS=1 NMatT=0.
 Defaulting to unpruned grid for atomic number  53.
 Defaulting to unpruned grid for atomic number  53.
 Defaulting to unpruned grid for atomic number  53.
 Defaulting to unpruned grid for atomic number  53.
 Defaulting to unpruned grid for atomic number  53.
 Defaulting to unpruned grid for atomic number  53.
 Defaulting to unpruned grid for atomic number  53.
 Defaulting to unpruned grid for atomic number  53.
 ***** Axes restored to original set *****
 -------------------------------------------------------------------
 Center     Atomic                   Forces (Hartrees/Bohr)
 Number     Number              X              Y              Z
 -------------------------------------------------------------------
      1        6           0.020061973    0.160322793   -0.053430307
      2        8          -0.017384500   -0.095588718   -0.002313522
      3        8           0.001617059    0.064232613    0.034338024
      4        8          -0.005353459   -0.010281179   -0.000196812
      5        6          -0.007808929   -0.010448632    0.027831439
      6        1           0.012519181   -0.005029081   -0.039285420
      7        1          -0.021685407    0.004691118   -0.011887937
      8        1           0.000504992    0.021435172    0.012604263
      9        1           0.029210457   -0.024519678   -0.011675472
     10        1          -0.020212079   -0.028359651    0.026037764
     11        6           0.004188542   -0.027078315    0.029065213
     12        1           0.017623321   -0.006003205    0.003188383
     13        1          -0.005838380   -0.017002910   -0.013697189
     14        1          -0.015438895    0.024789379   -0.006643699
     15        6           0.036744910   -0.003256181   -0.015940772
     16        1          -0.011080250   -0.032857909   -0.008365634
     17        1          -0.037036816    0.011389977    0.021906807
     18        1          -0.005938141    0.019076711   -0.031663780
     19       53           0.025306422   -0.045512305    0.040128649
 -------------------------------------------------------------------
 Cartesian Forces:  Max     0.160322793 RMS     0.033822012
 FormGI is forming the generalized inverse of G from B-inverse, IUseBI=4.
 GSVD:  received Info=                   1 from GESDD.

 GradGradGradGradGradGradGradGradGradGradGradGradGradGradGradGradGradGrad
 Berny optimization.
 Internal  Forces:  Max     0.102742778 RMS     0.031063875
 Search for a saddle point.
 Step number   1 out of a maximum of   79
 All quantities printed in internal units (Hartrees-Bohrs-Radians)
 Swapping is turned off.
 Second derivative matrix not updated -- analytic derivatives used.
 ITU=  0
     Eigenvalues ---   -0.20381  -0.03454  -0.01942  -0.01456  -0.00847
     Eigenvalues ---   -0.00026   0.00298   0.01111   0.01205   0.01718
     Eigenvalues ---    0.02926   0.03186   0.05879   0.06194   0.06451
     Eigenvalues ---    0.06737   0.07328   0.08471   0.08777   0.10143
     Eigenvalues ---    0.10916   0.11741   0.12012   0.12581   0.13502
     Eigenvalues ---    0.13947   0.14184   0.14715   0.16353   0.18473
     Eigenvalues ---    0.19530   0.20760   0.21124   0.22405   0.27017
     Eigenvalues ---    0.31854   0.34806   0.38716   0.38761   0.39898
     Eigenvalues ---    0.40521   0.41756   0.42173   0.43244   0.43981
     Eigenvalues ---    0.44181   0.44383   0.45763   0.52510   1.36908
     Eigenvalues ---    4.25634
 Eigenvectors required to have negative eigenvalues:
                          R8        R1        D1        R5        A15
   1                    0.40360  -0.33077  -0.30195  -0.29182   0.23190
                          A5        A16       D21       R9        A8
   1                    0.22525   0.20703   0.20005  -0.18994   0.18235
 RFO step:  Lambda0=8.713056659D-04 Lambda=-1.70538458D-01.
 Linear search not attempted -- option 19 set.
 Maximum step size (   0.300) exceeded in Quadratic search.
    -- Step size scaled by   0.337
 Iteration  1 RMS(Cart)=  0.18871002 RMS(Int)=  0.00943085
 Iteration  2 RMS(Cart)=  0.01842351 RMS(Int)=  0.00028028
 Iteration  3 RMS(Cart)=  0.00012796 RMS(Int)=  0.00027336
 Iteration  4 RMS(Cart)=  0.00000003 RMS(Int)=  0.00027336
 Variable       Old X    -DE/DX   Delta X   Delta X   Delta X     New X
                                 (Linear)    (Quad)   (Total)
    R1        2.96687  -0.09927   0.00000  -0.16925  -0.16925   2.79762
    R2        2.90712  -0.01037   0.00000  -0.00347  -0.00347   2.90365
    R3        3.64717   0.06494   0.00000   0.06796   0.06796   3.71514
    R4        2.14831   0.02426   0.00000   0.06690   0.06690   2.21521
    R5        2.38105  -0.05784   0.00000  -0.14487  -0.14487   2.23619
    R6        2.65768   0.03831   0.00000   0.02315   0.02315   2.68084
    R7        2.68898   0.01686   0.00000   0.00501   0.00501   2.69399
    R8        3.00175  -0.03627   0.00000   0.01130   0.01130   3.01304
    R9        2.39995   0.00801   0.00000  -0.05748  -0.05748   2.34247
   R10        1.98421   0.03810   0.00000   0.02210   0.02210   2.00631
   R11        2.00736   0.02446   0.00000   0.01407   0.01407   2.02143
   R12        2.01776   0.02339   0.00000   0.01352   0.01352   2.03129
   R13        2.02923   0.01514   0.00000   0.00805   0.00805   2.03728
   R14        2.01396   0.02048   0.00000   0.01206   0.01206   2.02601
   R15        1.98612   0.02907   0.00000   0.01463   0.01463   2.00075
   R16        1.98660   0.03273   0.00000   0.01332   0.01332   1.99992
   R17        1.98391   0.03382   0.00000   0.01637   0.01637   2.00028
   R18        1.98421   0.02450   0.00000   0.02468   0.02468   2.00890
    A1        1.74165   0.02847   0.00000   0.05899   0.05919   1.80084
    A2        1.97237  -0.00435   0.00000   0.00217   0.00276   1.97513
    A3        2.12494  -0.01501   0.00000  -0.03953  -0.03974   2.08520
    A4        1.99910   0.01881   0.00000   0.03119   0.03119   2.03030
    A5        1.77782  -0.00451   0.00000  -0.04905  -0.04905   1.72877
    A6        2.17587  -0.01680   0.00000  -0.02971  -0.02947   2.14640
    A7        1.59212   0.06029   0.00000   0.06225   0.06243   1.65455
    A8        1.70886  -0.01386   0.00000  -0.02989  -0.02913   1.67973
    A9        1.85957   0.01815   0.00000   0.01198   0.01196   1.87153
   A10        1.93505   0.00271   0.00000   0.00128   0.00128   1.93633
   A11        1.92865  -0.00551   0.00000   0.00168   0.00165   1.93030
   A12        1.98604  -0.01296   0.00000  -0.01377  -0.01377   1.97227
   A13        1.81975   0.00226   0.00000   0.00559   0.00553   1.82528
   A14        1.93059  -0.00420   0.00000  -0.00585  -0.00586   1.92474
   A15        2.57536   0.01831   0.00000  -0.03083  -0.03083   2.54453
   A16        2.69434   0.04598   0.00000  -0.05587  -0.05587   2.63847
   A17        1.91446  -0.01518   0.00000  -0.00935  -0.00935   1.90511
   A18        1.90800   0.01538   0.00000   0.00993   0.00995   1.91795
   A19        1.98593  -0.00799   0.00000  -0.00705  -0.00705   1.97888
   A20        1.91247  -0.00289   0.00000  -0.00177  -0.00175   1.91072
   A21        1.79050   0.01072   0.00000   0.00989   0.00987   1.80037
   A22        1.94875  -0.00128   0.00000  -0.00222  -0.00221   1.94654
   A23        1.86063   0.01264   0.00000   0.01397   0.01328   1.87391
   A24        2.21859  -0.05189   0.00000  -0.06013  -0.06048   2.15811
   A25        1.73123   0.05148   0.00000   0.03214   0.03223   1.76346
   A26        1.96401   0.00155   0.00000   0.00283   0.00206   1.96607
   A27        1.80488   0.00790   0.00000   0.01734   0.01695   1.82183
   A28        1.82582  -0.00418   0.00000   0.01403   0.01439   1.84021
    D1        1.90434   0.03499   0.00000   0.11184   0.11128   2.01562
    D2       -2.09597   0.03402   0.00000   0.10605   0.10661  -1.98936
    D3        1.23022   0.00505   0.00000   0.03127   0.03105   1.26127
    D4       -2.95560   0.00170   0.00000   0.02950   0.02925  -2.92634
    D5       -0.76378   0.00624   0.00000   0.02917   0.02892  -0.73486
    D6       -0.95101  -0.00439   0.00000   0.00212   0.00238  -0.94863
    D7        1.14637  -0.00774   0.00000   0.00035   0.00059   1.14695
    D8       -2.94501  -0.00320   0.00000   0.00003   0.00025  -2.94476
    D9        0.06343   0.01150   0.00000   0.07938   0.07938   0.14281
   D10       -1.76326  -0.10274   0.00000   0.03832   0.03832  -1.72494
   D11        3.07483   0.01895   0.00000   0.04017   0.04005   3.11488
   D12       -0.82348  -0.02452   0.00000  -0.00935  -0.00860  -0.83208
   D13        1.20619  -0.01146   0.00000   0.00625   0.00562   1.21181
   D14       -1.43690  -0.00710   0.00000   0.01696   0.01724  -1.41966
   D15        0.73270  -0.00939   0.00000   0.00869   0.00894   0.74164
   D16        2.87973  -0.01672   0.00000   0.00328   0.00351   2.88324
   D17        0.31705   0.01604   0.00000   0.01992   0.01969   0.33674
   D18        2.48665   0.01376   0.00000   0.01165   0.01139   2.49804
   D19       -1.64951   0.00643   0.00000   0.00624   0.00596  -1.64355
   D20        1.66053  -0.02504   0.00000   0.00241   0.00271   1.66324
   D21       -0.03286  -0.08592   0.00000  -0.04653  -0.04684  -0.07970
   D22       -2.21887  -0.01000   0.00000  -0.10842  -0.10828  -2.32715
   D23       -0.03256  -0.01764   0.00000  -0.13083  -0.13098  -0.16354
         Item               Value     Threshold  Converged?
 Maximum Force            0.102743     0.000450     NO 
 RMS     Force            0.031064     0.000300     NO 
 Maximum Displacement     0.506353     0.001800     NO 
 RMS     Displacement     0.195129     0.001200     NO 
 Predicted change in Energy=-5.705606D-02
 GradGradGradGradGradGradGradGradGradGradGradGradGradGradGradGradGradGrad

                          Input orientation:                          
 ---------------------------------------------------------------------
 Center     Atomic      Atomic             Coordinates (Angstroms)
 Number     Number       Type             X           Y           Z
 ---------------------------------------------------------------------
      1          6           0        0.758770    0.413088   -0.414508
      2          8           0        1.255131    1.806537   -0.354326
      3          8           0       -1.073964    0.340768    0.196059
      4          8           0       -0.543437    2.904365    0.653970
      5          6           0       -0.878278    3.944686   -0.261421
      6          1           0       -0.315018    3.778653   -1.145937
      7          1           0       -1.933040    3.974679   -0.436984
      8          1           0       -0.534246    4.895215    0.104049
      9          1           0       -1.193733    1.449951    0.590595
     10          1           0        0.516133    2.603122    0.085530
     11          6           0        0.710374    0.123234   -1.922691
     12          1           0        1.716520    0.016109   -2.294779
     13          1           0        0.164373   -0.781673   -2.102879
     14          1           0        0.326967    0.928501   -2.493220
     15          6           0       -1.896572    0.423892   -0.956738
     16          1           0       -1.861648   -0.517856   -1.438309
     17          1           0       -2.867639    0.845146   -0.955237
     18          1           0       -1.313253    1.059774   -1.577621
     19         53           0        1.737900   -0.808747    0.774375
 ---------------------------------------------------------------------
                    Distance matrix (angstroms):
                    1          2          3          4          5
     1  C    0.000000
     2  O    1.480438   0.000000
     3  O    1.933116   2.806437   0.000000
     4  O    3.007300   2.335966   2.657663   0.000000
     5  C    3.895581   3.021878   3.638105   1.425597   0.000000
     6  H    3.607636   2.642207   3.767759   2.014006   1.061695
     7  H    4.464446   3.856437   3.787356   2.065610   1.069693
     8  H    4.693640   3.598876   4.587238   2.065425   1.074910
     9  H    2.428495   2.648956   1.183339   1.594434   2.655023
    10  H    2.259461   1.172236   2.767467   1.239581   1.965847
    11  C    1.536545   2.364327   2.778539   3.993234   4.459499
    12  H    2.147160   2.680275   3.754528   4.705800   5.128473
    13  H    2.152059   3.308478   2.842264   4.657048   5.178471
    14  H    2.184753   2.491446   3.088731   3.816602   3.940928
    15  C    2.710161   3.493972   1.418638   3.252399   3.730466
    16  H    2.963346   4.036352   2.007197   4.222193   4.718724
    17  H    3.691871   4.275816   2.190240   3.497406   3.747811
    18  H    2.462583   2.941208   1.928774   2.995852   3.200672
    19  I    1.965965   2.889073   3.092316   4.359611   5.523803
                    6          7          8          9         10
     6  H    0.000000
     7  H    1.777367   0.000000
     8  H    1.690336   1.759752   0.000000
     9  H    3.034886   2.824312   3.541397   0.000000
    10  H    1.894518   2.855283   2.521375   2.123332   0.000000
    11  C    3.875160   4.901897   5.331844   3.420878   3.196956
    12  H    4.427609   5.695697   5.884386   4.341758   3.714759
    13  H    4.684243   5.458684   6.130715   3.752253   4.045950
    14  H    3.217248   4.314503   4.818954   3.477694   3.080599
    15  C    3.713695   3.588810   4.793113   1.985200   3.414164
    16  H    4.575755   4.603326   5.782923   2.904277   4.209090
    17  H    3.893290   3.306968   4.792689   2.357403   3.952669
    18  H    2.928332   3.190902   4.259750   2.206283   2.914558
    19  I    5.380178   6.150151   6.176340   3.705398   3.688912
                   11         12         13         14         15
    11  C    0.000000
    12  H    1.078080   0.000000
    13  H    1.072120   1.755689   0.000000
    14  H    1.058754   1.674125   1.761675   0.000000
    15  C    2.796359   3.874413   2.648494   2.749460   0.000000
    16  H    2.694609   3.717788   2.148491   2.827512   1.058310
    17  H    3.776149   4.847287   3.627219   3.546526   1.058503
    18  H    2.256379   3.283760   2.418719   1.883050   1.063063
    19  I    3.032913   3.178136   3.279529   3.960548   4.210171
                   16         17         18         19
    16  H    0.000000
    17  H    1.761576   0.000000
    18  H    1.676025   1.688059   0.000000
    19  I    4.235249   5.190175   4.281681   0.000000
 Stoichiometry    C4H11IO3
 Framework group  C1[X(C4H11IO3)]
 Deg. of freedom    51
 Full point group                 C1      NOp   1
 Largest Abelian subgroup         C1      NOp   1
 Largest concise Abelian subgroup C1      NOp   1
                         Standard orientation:                         
 ---------------------------------------------------------------------
 Center     Atomic      Atomic             Coordinates (Angstroms)
 Number     Number       Type             X           Y           Z
 ---------------------------------------------------------------------
      1          6           0       -0.069761    0.225855    0.475288
      2          8           0       -0.833620   -0.938011    0.978907
      3          8           0       -0.963033    0.983253   -1.062681
      4          8           0       -2.515718   -1.129951   -0.630577
      5          6           0       -3.727384   -1.066267    0.117846
      6          1           0       -3.468874   -0.801072    1.112854
      7          1           0       -4.418348   -0.383807   -0.330553
      8          1           0       -4.170262   -2.041887    0.204191
      9          1           0       -1.797205    0.160862   -1.230379
     10          1           0       -1.784900   -1.240836    0.364497
     11          6           0       -0.223759    1.259859    1.601384
     12          1           0        0.371170    0.953561    2.446663
     13          1           0        0.106672    2.221436    1.261345
     14          1           0       -1.203649    1.304308    1.999880
     15          6           0       -1.782588    2.038426   -0.585740
     16          1           0       -1.147911    2.855603   -0.363422
     17          1           0       -2.684147    2.337807   -1.052636
     18          1           0       -2.068729    1.659869    0.365533
     19         53           0        1.728039   -0.247083   -0.164450
 ---------------------------------------------------------------------
 Rotational constants (GHZ):      1.8885277      0.5847884      0.5385097
 Basis read from rwf:  (5D, 7F)
 Pseudo-potential data read from rwf file.
 There are   194 symmetry adapted cartesian basis functions of A   symmetry.
 There are   184 symmetry adapted basis functions of A   symmetry.
   184 basis functions,   361 primitive gaussians,   194 cartesian basis functions
    56 alpha electrons       56 beta electrons
       nuclear repulsion energy       823.4157293897 Hartrees.
 NAtoms=   19 NActive=   19 NUniq=   19 SFac= 1.00D+00 NAtFMM=   60 NAOKFM=F Big=F
 Integral buffers will be    131072 words long.
 Raffenetti 2 integral format.
 Two-electron integral symmetry is turned on.
 One-electron integrals computed using PRISM.
   1 Symmetry operations used in ECPInt.
 ECPInt:  NShTT=    2556 NPrTT=   13391 LenC2=    2479 LenP2D=    9268.
 LDataN:  DoStor=T MaxTD1= 4 Len=   56
 NBasis=   184 RedAO= T EigKep=  6.71D-05  NBF=   184
 NBsUse=   184 1.00D-06 EigRej= -1.00D+00 NBFU=   184
 Defaulting to unpruned grid for atomic number  53.
 Initial guess from the checkpoint file:  "/lustre/SCRATCH5/gau/Gau-14524.chk"
 B after Tr=     0.000000    0.000000    0.000000
         Rot=    0.995815    0.090944   -0.004506   -0.007836 Ang=  10.49 deg.
 ExpMin= 4.38D-02 ExpMax= 1.44D+04 ExpMxC= 1.44D+04 IAcc=2 IRadAn=         4 AccDes= 0.00D+00
 Harris functional with IExCor=  402 and IRadAn=       4 diagonalized for initial guess.
 HarFok:  IExCor=  402 AccDes= 0.00D+00 IRadAn=         4 IDoV= 1 UseB2=F ITyADJ=14
 ICtDFT=  3500011 ScaDFX=  1.000000  1.000000  1.000000  1.000000
 Defaulting to unpruned grid for atomic number  53.
 Defaulting to unpruned grid for atomic number  53.
 Defaulting to unpruned grid for atomic number  53.
 Defaulting to unpruned grid for atomic number  53.
 Defaulting to unpruned grid for atomic number  53.
 Defaulting to unpruned grid for atomic number  53.
 Defaulting to unpruned grid for atomic number  53.
 Defaulting to unpruned grid for atomic number  53.
 FoFCou: FMM=F IPFlag=           0 FMFlag=      100000 FMFlg1=           0
         NFxFlg=           0 DoJE=T BraDBF=F KetDBF=T FulRan=T
         wScrn=  0.000000 ICntrl=     500 IOpCl=  0 I1Cent=   200000004 NGrid=           0
         NMat0=    1 NMatS0=      1 NMatT0=    0 NMatD0=    1 NMtDS0=    0 NMtDT0=    0
 Petite list used in FoFCou.
 Requested convergence on RMS density matrix=1.00D-08 within 128 cycles.
 Requested convergence on MAX density matrix=1.00D-06.
 Requested convergence on             energy=1.00D-06.
 No special actions if energy rises.
 Defaulting to unpruned grid for atomic number  53.
 Defaulting to unpruned grid for atomic number  53.
 Defaulting to unpruned grid for atomic number  53.
 Defaulting to unpruned grid for atomic number  53.
 Defaulting to unpruned grid for atomic number  53.
 Defaulting to unpruned grid for atomic number  53.
 Defaulting to unpruned grid for atomic number  53.
 Defaulting to unpruned grid for atomic number  53.
 SCF Done:  E(RB3LYP) =  -7274.70194508     A.U. after   15 cycles
            NFock= 15  Conv=0.84D-08     -V/T= 1.9989
   1 Symmetry operations used in ECPInt.
 ECPInt:  NShTT=    2556 NPrTT=   13391 LenC2=    2479 LenP2D=    9268.
 LDataN:  DoStor=T MaxTD1= 5 Len=  102
 Calling FoFJK, ICntrl=      2127 FMM=F ISym2X=0 I1Cent= 0 IOpClX= 0 NMat=1 NMatS=1 NMatT=0.
 Defaulting to unpruned grid for atomic number  53.
 Defaulting to unpruned grid for atomic number  53.
 Defaulting to unpruned grid for atomic number  53.
 Defaulting to unpruned grid for atomic number  53.
 Defaulting to unpruned grid for atomic number  53.
 Defaulting to unpruned grid for atomic number  53.
 Defaulting to unpruned grid for atomic number  53.
 Defaulting to unpruned grid for atomic number  53.
 ***** Axes restored to original set *****
 -------------------------------------------------------------------
 Center     Atomic                   Forces (Hartrees/Bohr)
 Number     Number              X              Y              Z
 -------------------------------------------------------------------
      1        6           0.023234316    0.140346935   -0.057694162
      2        8          -0.017925858   -0.088458472   -0.003489139
      3        8          -0.007723507    0.051073104    0.033062408
      4        8          -0.000450542   -0.002487843   -0.007975775
      5        6          -0.000029981   -0.009430343    0.022943971
      6        1           0.004195783   -0.002267960   -0.031660040
      7        1          -0.017788343    0.003331300   -0.006893562
      8        1           0.000036646    0.016048455    0.010710739
      9        1           0.030763499   -0.021229682   -0.010802125
     10        1          -0.023174719   -0.025173664    0.031179507
     11        6           0.001188427   -0.020973698    0.025110612
     12        1           0.013102602   -0.005647732    0.003865278
     13        1          -0.004629329   -0.014282594   -0.009508526
     14        1          -0.012949423    0.019016285   -0.006730633
     15        6           0.033799763   -0.000412125   -0.023774358
     16        1          -0.010897913   -0.024685970   -0.007432362
     17        1          -0.025581959    0.005094939    0.023915963
     18        1          -0.004602645    0.017334509   -0.022731424
     19       53           0.019433181   -0.037195444    0.037903629
 -------------------------------------------------------------------
 Cartesian Forces:  Max     0.140346935 RMS     0.030076069

 GradGradGradGradGradGradGradGradGradGradGradGradGradGradGradGradGradGrad
 Berny optimization.
 FormGI is forming the generalized inverse of G from B-inverse, IUseBI=4.
 GSVD:  received Info=                   1 from GESDD.
 Internal  Forces:  Max     0.089424367 RMS     0.023608133
 Search for a saddle point.
 Step number   2 out of a maximum of   79
 All quantities printed in internal units (Hartrees-Bohrs-Radians)
 Swapping is turned off.
 Update second derivatives using D2CorX and points    1    2
 ITU=  0  0
     Eigenvalues ---   -0.20559  -0.03161  -0.01838  -0.01471  -0.00674
     Eigenvalues ---   -0.00031   0.00304   0.01100   0.01300   0.01714
     Eigenvalues ---    0.02897   0.03515   0.05880   0.06195   0.06500
     Eigenvalues ---    0.07319   0.07420   0.08683   0.08873   0.10120
     Eigenvalues ---    0.10824   0.11740   0.12011   0.12540   0.13663
     Eigenvalues ---    0.13959   0.14201   0.14811   0.16349   0.18473
     Eigenvalues ---    0.19756   0.20751   0.21366   0.22381   0.26972
     Eigenvalues ---    0.31841   0.34767   0.38715   0.38762   0.39898
     Eigenvalues ---    0.40512   0.41752   0.42193   0.43254   0.43970
     Eigenvalues ---    0.44188   0.44362   0.45715   0.52844   1.36946
     Eigenvalues ---    4.27556
 Eigenvectors required to have negative eigenvalues:
                          R8        R1        R5        D1        A15
   1                    0.40595  -0.35682  -0.31285  -0.27622   0.22369
                          A5        R9        D10       D21       A16
   1                    0.21133  -0.20312   0.19600   0.19586   0.19364
 RFO step:  Lambda0=1.354472312D-04 Lambda=-1.32812678D-01.
 Linear search not attempted -- option 19 set.
 Maximum step size (   0.300) exceeded in Quadratic search.
    -- Step size scaled by   0.420
 Iteration  1 RMS(Cart)=  0.25051334 RMS(Int)=  0.01535579
 Iteration  2 RMS(Cart)=  0.04303820 RMS(Int)=  0.00054534
 Iteration  3 RMS(Cart)=  0.00094972 RMS(Int)=  0.00039079
 Iteration  4 RMS(Cart)=  0.00000048 RMS(Int)=  0.00039079
 Variable       Old X    -DE/DX   Delta X   Delta X   Delta X     New X
                                 (Linear)    (Quad)   (Total)
    R1        2.79762  -0.08942   0.00000  -0.16099  -0.16099   2.63663
    R2        2.90365  -0.00827   0.00000  -0.00408  -0.00408   2.89957
    R3        3.71514   0.05572   0.00000   0.08464   0.08464   3.79978
    R4        2.21521   0.02237   0.00000   0.07331   0.07331   2.28851
    R5        2.23619  -0.04789   0.00000  -0.08615  -0.08615   2.15004
    R6        2.68084   0.02845   0.00000   0.02238   0.02238   2.70322
    R7        2.69399   0.01195   0.00000   0.00447   0.00447   2.69846
    R8        3.01304  -0.03090   0.00000  -0.08840  -0.08840   2.92465
    R9        2.34247  -0.00306   0.00000  -0.06469  -0.06469   2.27778
   R10        2.00631   0.02896   0.00000   0.02210   0.02210   2.02842
   R11        2.02143   0.01877   0.00000   0.01442   0.01442   2.03585
   R12        2.03129   0.01784   0.00000   0.01310   0.01310   2.04438
   R13        2.03728   0.01146   0.00000   0.00856   0.00856   2.04584
   R14        2.02601   0.01601   0.00000   0.01290   0.01290   2.03892
   R15        2.00075   0.02278   0.00000   0.01551   0.01551   2.01627
   R16        1.99992   0.02499   0.00000   0.01413   0.01413   2.01405
   R17        2.00028   0.02553   0.00000   0.01704   0.01704   2.01732
   R18        2.00890   0.02112   0.00000   0.02356   0.02356   2.03246
    A1        1.80084   0.03123   0.00000   0.06580   0.06610   1.86694
    A2        1.97513  -0.00479   0.00000   0.01022   0.01114   1.98627
    A3        2.08520  -0.01286   0.00000  -0.05516  -0.05540   2.02980
    A4        2.03030   0.00459   0.00000   0.00714   0.00714   2.03744
    A5        1.72877   0.00197   0.00000  -0.03396  -0.03396   1.69481
    A6        2.14640  -0.01032   0.00000  -0.03081  -0.03021   2.11619
    A7        1.65455   0.05064   0.00000   0.07599   0.07608   1.73064
    A8        1.67973  -0.02079   0.00000  -0.04443  -0.04351   1.63623
    A9        1.87153   0.01446   0.00000   0.01379   0.01377   1.88530
   A10        1.93633   0.00197   0.00000   0.00111   0.00111   1.93744
   A11        1.93030  -0.00415   0.00000  -0.00295  -0.00297   1.92733
   A12        1.97227  -0.01068   0.00000  -0.01567  -0.01567   1.95660
   A13        1.82528   0.00231   0.00000   0.01047   0.01042   1.83571
   A14        1.92474  -0.00363   0.00000  -0.00592  -0.00593   1.91881
   A15        2.54453   0.00607   0.00000  -0.00950  -0.00950   2.53503
   A16        2.63847   0.02176   0.00000  -0.03599  -0.03599   2.60248
   A17        1.90511  -0.01124   0.00000  -0.00794  -0.00794   1.89717
   A18        1.91795   0.01257   0.00000   0.00889   0.00891   1.92686
   A19        1.97888  -0.00823   0.00000  -0.00903  -0.00903   1.96985
   A20        1.91072  -0.00269   0.00000  -0.00435  -0.00433   1.90639
   A21        1.80037   0.00974   0.00000   0.01273   0.01271   1.81308
   A22        1.94654  -0.00098   0.00000  -0.00064  -0.00063   1.94592
   A23        1.87391   0.00942   0.00000   0.01693   0.01600   1.88990
   A24        2.15811  -0.04397   0.00000  -0.07446  -0.07494   2.08316
   A25        1.76346   0.03955   0.00000   0.03571   0.03570   1.79917
   A26        1.96607   0.00044   0.00000   0.00084  -0.00021   1.96586
   A27        1.82183   0.00648   0.00000   0.02210   0.02149   1.84333
   A28        1.84021   0.00019   0.00000   0.01929   0.01968   1.85989
    D1        2.01562   0.02266   0.00000   0.22610   0.22523   2.24086
    D2       -1.98936   0.02681   0.00000   0.21263   0.21349  -1.77587
    D3        1.26127   0.00645   0.00000   0.03511   0.03473   1.29600
    D4       -2.92634   0.00387   0.00000   0.03028   0.02990  -2.89645
    D5       -0.73486   0.00629   0.00000   0.02964   0.02925  -0.70562
    D6       -0.94863  -0.00535   0.00000   0.00276   0.00316  -0.94546
    D7        1.14695  -0.00793   0.00000  -0.00206  -0.00167   1.14528
    D8       -2.94476  -0.00550   0.00000  -0.00270  -0.00232  -2.94708
    D9        0.14281   0.00787   0.00000   0.00171   0.00171   0.14452
   D10       -1.72494  -0.05794   0.00000   0.06484   0.06484  -1.66011
   D11        3.11488   0.01740   0.00000   0.04958   0.04941  -3.11890
   D12       -0.83208  -0.01756   0.00000  -0.00829  -0.00727  -0.83935
   D13        1.21181  -0.00840   0.00000   0.00586   0.00501   1.21682
   D14       -1.41966   0.00063   0.00000   0.03093   0.03126  -1.38839
   D15        0.74164  -0.00173   0.00000   0.02138   0.02169   0.76333
   D16        2.88324  -0.00789   0.00000   0.01255   0.01285   2.89609
[...]
 0333319,0.00058763,0.00042007,0.00146517,-0.00117182,0.00101362,-0.001
 95191,-0.01126947,-0.00833209,-0.12718180,0.04471274,-0.00698202,0.573
 29563,-0.00079405,-0.00558824,0.00254318,-0.00362577,0.00984432,0.0052
 0733,-0.00051639,0.00616138,0.00190792,0.04978802,-0.16401724,0.027802
 04,0.07538868,0.50226746,0.00074836,0.00258870,-0.00128427,0.00275812,
 -0.00480764,-0.00582776,-0.00223396,-0.00478441,-0.00325758,-0.0184777
 7,0.04113324,-0.08291975,-0.03025422,0.03294620,0.59167653,0.00074376,
 0.00072423,-0.00064820,-0.00016646,-0.00072576,0.00082044,-0.00031942,
 0.00099067,0.00067007,-0.00762826,0.01072020,-0.01918715,-0.06450063,-
 0.00393616,-0.04700896,0.06428310,0.00049227,-0.00003730,0.00028219,-0
 .00015411,-0.00043921,-0.00065227,-0.00038806,-0.00058372,-0.00079558,
 0.01541992,-0.01185644,0.03220448,-0.00478473,-0.05294379,-0.01348531,
 -0.00438762,0.05823209,-0.00041116,-0.00045145,0.00007103,-0.00058396,
 0.00101159,0.00087277,0.00061770,0.00134008,0.00075505,-0.00569618,0.0
 0915982,-0.00035223,-0.05057462,-0.00803371,-0.30520369,0.06015747,0.0
 0261149,0.32658980,-0.00046509,-0.00133946,0.00061850,-0.00066073,0.00
 201245,0.00138832,0.00029181,0.00071813,0.00034142,-0.01893866,0.00937
 293,0.00831434,-0.23891279,-0.00796260,0.12513924,0.00902835,-0.000886
 52,-0.00406984,0.26039068,0.00109956,0.00160170,-0.00080070,0.00081000
 ,-0.00257646,-0.00207325,-0.00078345,-0.00031863,0.00012276,0.03707652
 ,-0.00883537,-0.01713250,-0.01688829,-0.04991483,0.00714811,0.00057962
 ,0.00119577,-0.00191682,-0.00010527,0.05746983,0.00006908,0.00002063,0
 .00010787,-0.00037846,0.00035471,0.00077378,-0.00020225,-0.00021680,-0
 .00010857,-0.01254437,0.00093491,0.00869462,0.13122749,0.00266319,-0.1
 4077156,0.02674885,0.00143105,-0.01471803,-0.13708903,-0.00620714,0.14
 141862,0.00056652,0.00016570,-0.00022182,-0.00025910,-0.00038405,0.000
 07096,0.00041483,0.00200709,0.00154982,0.01291366,0.02754316,0.0035148
 4,-0.14422623,-0.13167234,-0.03732864,-0.00193996,-0.00388565,-0.00008
 882,-0.01291266,-0.02093580,-0.00812412,0.14753480,-0.00135465,0.00022
 613,0.00014754,0.00070336,-0.00009032,-0.00048723,-0.00035528,-0.00317
 442,-0.00236655,-0.00748928,-0.03728621,-0.00296634,-0.12143728,-0.214
 23718,-0.05237983,-0.00078615,0.00255666,-0.00077401,-0.00071632,0.002
 43609,0.00020408,0.12820587,0.24446264,-0.00001643,-0.00020234,0.00010
 667,0.00014719,0.00030404,-0.00001247,0.00044992,0.00122430,0.00074748
 ,0.00537392,0.01230796,0.00433422,-0.03860260,-0.05596815,-0.07060687,
 -0.01869099,-0.02559720,-0.00551053,0.01052271,0.01558074,0.00588355,0
 .04233388,0.05414359,0.06659166,0.00955706,0.02216594,0.00879445,0.000
 53825,-0.00855860,-0.00246672,-0.04334704,0.01658280,0.00658224,-0.071
 30934,-0.01859104,-0.00850617,0.01542398,0.01150262,0.00615743,-0.0002
 9757,0.00070006,-0.00093844,-0.00033232,0.00079951,0.00059932,-0.00277
 957,0.00436781,-0.00128681,0.12586726,0.05156186,0.01874578,-0.0102865
 6,-0.00407793,-0.03260712,-0.00739860,-0.00781973,0.00468077,0.0282241
 2,0.00437500,-0.03161547,-0.00988769,0.01390478,-0.02272756,0.00454126
 ,-0.00261196,0.00261500,-0.00226075,-0.00160791,0.00107720,-0.00015490
 ,-0.00157803,0.00554881,-0.00099717,0.00205912,0.02692093,0.02665323,-
 0.00408878,-0.00235940,-0.00407734,-0.00890751,-0.00385947,-0.01017313
 ,0.02922614,-0.01116018,-0.01076324,-0.00736117,-0.04179730,0.01322751
 ,0.00434113,0.00300757,-0.00061050,0.00228879,-0.00100923,-0.00046069,
 -0.00079215,0.00022705,-0.00235416,0.00376365,-0.00118524,-0.00362911,
 -0.03102140,0.05380924,0.02610773,0.02748226,-0.02358610,-0.01709633,-
 0.04063518,-0.01124247,-0.01001535,0.01250291,0.00841809,-0.10953019,0
 .01615407,0.06310109,-0.01226108,0.01420926,-0.00017436,0.00097508,-0.
 00218858,0.00186716,0.00263920,-0.00162241,-0.00036570,0.00096446,-0.0
 0173628,0.00002090,-0.02353572,-0.03641277,0.00256102,0.14471550,-0.01
 172400,-0.03938301,0.00399155,-0.00752408,0.01519776,0.01810249,0.0096
 5414,-0.00749283,-0.00701438,-0.01461431,-0.05892229,0.01331304,0.0226
 3660,-0.00932979,-0.01190885,-0.00046681,0.00178938,-0.00061592,0.0001
 6027,-0.00182855,0.00099161,0.00032120,0.00010601,-0.00087743,-0.02128
 090,0.01752532,0.01980676,0.02205606,0.07721218,-0.02568950,-0.0358398
 8,0.02539615,-0.00310513,0.04650420,-0.00886285,0.01340648,-0.00870920
 ,-0.01039944,0.07602557,-0.00336067,-0.10049558,-0.01153296,-0.0104391
 6,0.01407547,-0.00241008,0.00191864,-0.00127373,-0.00434995,0.00571082
 ,-0.00143252,0.00057943,0.00067489,-0.00013752,0.00365180,0.02531455,0
 .01563302,-0.04899654,-0.03055519,0.07627191,-0.06661674,0.00076944,0.
 00574747,0.00955935,-0.01473640,-0.00853993,-0.02152601,0.02312084,0.0
 2658511,0.00472778,0.00316338,-0.00126587,0.00033742,-0.00006382,0.000
 04010,-0.00007928,-0.00008632,0.00005417,0.00003196,-0.00011392,-0.000
 02255,-0.00007983,0.00017938,-0.00000597,-0.00505114,-0.00761195,-0.00
 269881,-0.00306517,0.00131873,0.00359710,0.58390568,0.00828756,-0.1265
 7648,-0.05952462,-0.00335022,-0.04838128,-0.02513306,0.00336414,0.0009
 3272,-0.00321398,0.00440361,-0.00058182,-0.00302269,-0.00016062,0.0006
 7407,-0.00033140,-0.00004892,-0.00001573,0.00005733,0.00016517,-0.0001
 8267,0.00002634,-0.00001274,-0.00004372,0.00002675,-0.00062722,-0.0011
 9950,0.00017912,-0.00601988,0.00279606,0.00543104,0.02197703,0.5545612
 4,0.01782516,-0.07247611,-0.13650419,-0.00301351,0.00582160,0.01222872
 ,0.00088976,-0.00277850,-0.00189219,-0.00166734,0.00051004,0.00112935,
 0.00012452,-0.00026309,0.00031744,0.00001199,0.00001284,-0.00002813,-0
 .00006707,0.00009897,-0.00003871,-0.00000899,0.00002973,-0.00002824,-0
 .00011821,0.00020267,0.00003989,0.00227381,-0.00009703,-0.00153304,0.0
 0298376,-0.05875557,0.50903451,-0.00555505,0.00017547,-0.00038292,0.00
 127136,-0.00059591,-0.00039061,0.00137311,0.00074977,0.00043532,0.0003
 5252,0.00023655,-0.00005420,0.00004880,0.00003338,-0.00001876,-0.00000
 955,-0.00001712,0.00000934,0.00000899,-0.00001685,-0.00000441,-0.00000
 831,0.00002085,0.00000099,-0.00025987,-0.00074411,-0.00034151,-0.00018
 364,0.00028331,0.00026269,-0.31326915,0.04484829,0.03464001,0.33677077
 ,0.02306531,-0.00441742,-0.00178557,-0.00194845,0.00069578,0.00004006,
 0.00254054,-0.00283339,-0.00329073,-0.00074545,-0.00042905,0.00026176,
 -0.00009290,0.00005808,0.00000299,0.00001755,0.00000413,0.00000105,-0.
 00000582,0.00001419,0.00000263,0.00001449,-0.00003229,-0.00000096,0.00
 075245,0.00124703,0.00032736,0.00048806,-0.00031489,-0.00057591,0.0429
 8918,-0.05465530,-0.00553210,-0.04846022,0.05633061,0.02328047,-0.0044
 7640,-0.00362271,-0.00115174,0.00234863,0.00032814,0.00356000,-0.00511
 524,-0.00383361,-0.00095999,-0.00075713,0.00010626,-0.00010019,0.00003
 944,-0.00003389,0.00001409,0.00000118,-0.00000084,-0.00000334,0.000020
 85,0.00000369,0.00002117,-0.00003765,0.00001236,0.00115179,0.00171454,
 0.00068246,0.00060478,-0.00035649,-0.00062973,0.03108974,-0.00511474,-
 0.04892209,-0.03571008,0.00834857,0.05453416,-0.00008510,0.00503056,-0
 .00038440,0.00147604,0.00102942,0.00072910,-0.00009698,-0.00024226,-0.
 00076721,-0.00007214,-0.00033024,-0.00024619,-0.00002963,0.00003747,-0
 .00003306,0.00000304,0.00001756,0.00000324,0.00000412,-0.00000848,0.00
 001166,0.00000424,-0.00001682,-0.00000112,0.00018455,0.00036163,0.0002
 0713,0.00019757,0.00014376,0.00023764,-0.10262989,-0.10613971,0.032337
 33,-0.01192154,-0.02810661,0.00790897,0.10782060,-0.01150571,-0.018902
 07,0.01242024,0.00100313,-0.00469220,-0.00589503,0.00088953,0.00200686
 ,0.00044707,0.00153699,0.00026158,-0.00070310,0.00001266,0.00022666,-0
 .00011729,-0.00002210,-0.00002706,0.00003468,0.00004905,-0.00007765,0.
 00000777,-0.00001336,0.00001169,0.00001257,-0.00052016,-0.00123229,-0.
 00051805,-0.00171669,0.00087330,0.00154668,-0.10420130,-0.24839763,0.0
 6176791,0.00271211,0.00673250,-0.00173598,0.11423421,0.26900407,-0.013
 16983,-0.01949608,0.00773433,0.00168084,-0.00585726,-0.00284851,-0.000
 27289,0.00116130,0.00062245,0.00092141,0.00014899,-0.00061874,-0.00006
 900,0.00011674,-0.00002968,-0.00000814,-0.00000779,0.00000990,0.000024
 17,-0.00002405,0.00000960,-0.00000818,0.00000039,0.00000106,-0.0003410
 6,-0.00054302,-0.00016715,-0.00086900,0.00025533,0.00123843,0.03488583
 ,0.06786653,-0.07121244,0.00093606,0.00331745,-0.00204927,-0.03701612,
 -0.06895795,0.07390322,0.00061738,-0.00006354,0.00315117,-0.00035624,-
 0.00129124,0.00049741,0.00008149,-0.00045525,-0.00080177,-0.00011311,-
 0.00028901,-0.00003757,-0.00007166,0.00006381,-0.00001252,0.00001849,0
 .00001010,0.00000201,0.00000326,0.00000132,0.00000820,0.00000335,-0.00
 002458,-0.00000906,0.00016388,0.00053879,0.00013258,0.00006264,-0.0000
 3672,0.00000019,-0.08410139,0.03121877,-0.08425499,-0.00984628,0.01061
 188,-0.02851335,0.00592707,-0.00332607,0.01369158,0.08919017,-0.009209
 64,0.00554002,-0.01972363,0.00087096,0.00198877,0.00089987,-0.00099240
 ,0.00044547,0.00111895,-0.00020057,0.00019909,0.00021355,0.00000489,-0
 .00003942,0.00001468,0.00001105,-0.00000861,-0.00000341,-0.00001182,0.
 00001486,0.00000211,-0.00000151,0.00001085,-0.00000295,-0.00014064,-0.
 00019260,-0.00016312,0.00036203,-0.00013353,-0.00018863,0.03137727,-0.
 08010389,0.07498215,0.00136115,-0.00235089,0.00459177,0.01261283,-0.00
 675761,0.02249307,-0.03751077,0.08134066,-0.00989008,0.00775262,-0.023
 64224,0.00151454,0.00070615,0.00373093,0.00042231,-0.00006509,0.001314
 80,-0.00002696,0.00022564,0.00023591,-0.00005734,0.00006598,-0.0000325
 4,0.00002129,-0.00005340,0.00003891,-0.00000408,-0.00000160,-0.0000105
 6,0.00000717,0.00001082,0.00000822,-0.00019497,-0.00037853,-0.00036740
 ,0.00019803,-0.00016076,-0.00027811,-0.08474460,0.07479917,-0.24186484
 ,0.00124958,-0.00144970,0.00457388,-0.00259251,0.00159135,-0.00545423,
 0.09438986,-0.08176432,0.26442006,-0.03009458,0.00431442,-0.01668266,0
 .00458392,0.00065591,-0.00003614,-0.12353622,0.00628090,-0.04463544,0.
 00331802,0.01179019,0.00312257,0.00267460,-0.00246430,0.00090310,-0.00
 009895,0.00024181,-0.00054856,-0.00024968,0.00029439,0.00029928,-0.000
 48696,0.00060927,-0.00026937,-0.00340604,-0.01782094,-0.00937423,-0.00
 193373,-0.00022363,0.00010331,0.00045023,0.00030659,0.00182317,0.00016
 490,-0.00113804,-0.00159495,-0.00008769,-0.00002461,0.00061946,-0.0011
 4807,0.00149653,-0.00047531,0.52768527,0.00039999,-0.00152564,0.002203
 42,-0.00145158,-0.00095675,0.00121106,0.00961942,-0.07020536,-0.003531
 45,0.00028854,-0.00716992,0.00031307,-0.00133110,-0.00067131,-0.000797
 04,0.00008501,-0.00028888,-0.00004511,0.00005288,0.00000588,0.00006307
 ,0.00024663,-0.00048652,0.00011060,-0.00919173,0.01240454,-0.00737357,
 0.00020310,-0.00002253,-0.00088192,0.00107801,-0.00009086,-0.00056318,
 -0.00036155,-0.00031272,-0.00012903,0.00091974,-0.00072214,0.00040168,
 0.00031358,0.00055977,-0.00003900,0.00438509,0.59593655,-0.02801341,-0
 .00053925,0.01460751,0.00763409,0.00791489,-0.00407509,-0.04932837,-0.
 00721173,-0.15900762,0.00161171,0.00749324,0.00359360,0.00181023,-0.00
 309101,0.00177607,-0.00028797,0.00060810,-0.00067359,-0.00022658,0.000
 13121,-0.00014055,-0.00021921,0.00028584,-0.00051297,-0.00830634,-0.00
 724596,-0.01226552,0.00053877,-0.00169184,-0.00125594,0.00414359,-0.00
 049701,0.00131088,-0.00000583,-0.00071852,-0.00125480,0.00010928,-0.00
 008752,0.00026044,0.00090512,-0.00003099,-0.00076985,-0.08917315,0.019
 36839,0.50841014,0.00228328,-0.00210843,-0.00155537,-0.00094429,0.0003
 9743,0.00064911,-0.00784882,-0.02269140,-0.02123563,-0.00062929,-0.002
 99610,-0.00033769,-0.00058206,0.00018487,-0.00020403,-0.00002745,-0.00
 006111,0.00010968,0.00005357,-0.00007188,-0.00009248,0.00016523,-0.000
 18127,0.00003713,-0.00086219,0.00486015,0.00073553,0.00054942,-0.00002
 033,-0.00021050,-0.00073661,-0.00031743,0.00035461,0.00019839,0.000148
 00,0.00000537,-0.00045967,0.00065070,-0.00016186,-0.00099988,0.0000009
 3,0.00044480,-0.05056157,-0.00927769,0.00046424,0.05564680,0.00156033,
 -0.00079703,-0.00085891,-0.00056915,0.00042518,0.00011450,-0.00367815,
 0.00930654,-0.00091740,-0.00017329,-0.00001195,0.00008505,-0.00002264,
 -0.00010699,0.00023031,0.00000369,0.00012672,-0.00013487,0.00000083,0.
 00002006,0.00000954,-0.00002365,-0.00000789,-0.00010359,0.00057764,0.0
 0084242,0.00111371,0.00035835,-0.00008783,-0.00003738,0.00087815,0.000
 31609,-0.00058302,0.00019976,0.00011775,0.00055940,0.00022748,-0.00000
 501,-0.00024428,0.00009811,-0.00042833,0.00062568,-0.01439851,-0.28008
 626,-0.09947926,0.01482574,0.29400072,0.00321625,-0.00012808,-0.000724
 64,-0.00058429,-0.00039117,0.00069023,-0.01267878,-0.02528059,-0.02262
 741,-0.00050426,-0.00369022,-0.00053577,-0.00073554,0.00028257,-0.0005
 3030,0.00006975,-0.00017047,0.00014304,0.00004164,-0.00000821,0.000042
 67,0.00013760,-0.00022149,0.00014689,-0.00071469,0.00648699,0.00135558
 ,0.00046230,0.00006801,-0.00036024,-0.00007219,-0.00037012,0.00041827,
 0.00008720,0.00026469,0.00007975,-0.00007238,0.00028359,-0.00001225,0.
 00047423,0.00006562,0.00001559,-0.00311862,-0.09465866,-0.09108659,0.0
 1260438,0.11022776,0.10562148,0.00589416,0.00107466,-0.00363970,-0.000
 74009,-0.00165911,0.00037302,-0.03104899,0.00462065,-0.00072362,0.0004
 5655,-0.00134108,-0.00077700,-0.00033980,0.00040718,-0.00022158,-0.000
 07332,-0.00013628,0.00022873,0.00008532,-0.00015754,-0.00014858,0.0001
 3523,-0.00005178,0.00008519,-0.00057785,0.00155915,0.00077035,-0.00069
 594,0.00072694,0.00083253,-0.00009336,-0.00017875,-0.00023571,0.000026
 24,0.00005901,0.00012745,-0.00003452,0.00005402,-0.00005198,0.00003473
 ,-0.00007206,0.00006469,-0.24913172,0.05670776,0.10114850,0.00387756,-
 0.00019248,0.00003504,0.27851635,-0.00116547,-0.00073695,-0.00020405,0
 .00011536,0.00047965,-0.00018734,0.00128612,0.00160964,0.00113894,0.00
 044887,0.00011230,-0.00009108,-0.00005206,0.00004829,-0.00008104,-0.00
 012183,-0.00004980,0.00014315,-0.00000495,-0.00004091,-0.00013379,0.00
 006885,-0.00000357,0.00006439,-0.00070933,-0.00004810,-0.00010736,-0.0
 0022962,0.00020087,0.00028433,0.00022049,-0.00001222,0.00010314,0.0000
 8896,0.00012565,0.00020873,-0.00012910,0.00021952,-0.00026830,-0.00002
 151,-0.00029231,0.00013602,0.05769671,-0.06949013,-0.02849365,0.026699
 60,-0.00551137,-0.01293443,-0.06368325,0.06612518,0.00406856,0.0018394
 0,-0.00462784,-0.00096779,-0.00224900,0.00102592,-0.03774007,0.0078671
 8,0.00769999,0.00056797,0.00034298,-0.00029133,-0.00000311,-0.00013895
 ,0.00014465,0.00004482,-0.00000087,-0.00009672,0.00002959,-0.00004132,
 0.00001815,-0.00000857,0.00002029,-0.00004532,-0.00071365,-0.00055244,
 0.00061485,-0.00044659,0.00043078,0.00045771,-0.00002962,-0.00008969,-
 0.00066046,0.00014206,0.00007259,0.00042390,-0.00006074,0.00012638,-0.
 00004668,0.00004493,-0.00012695,0.00069705,0.10841738,-0.03028365,-0.0
 9938056,0.01130036,-0.00169073,-0.00421523,-0.10172684,0.03115652,0.10
 583085,0.00198839,0.00256618,-0.00195538,0.00049045,-0.00093967,0.0010
 2091,0.00184800,0.01703576,-0.02579700,-0.00058935,-0.00036487,-0.0000
 1180,-0.00002442,-0.00024114,0.00026739,0.00012453,0.00007497,-0.00014
 356,-0.00000608,0.00001253,0.00001973,-0.00001319,-0.00002057,-0.00008
 542,0.00043729,0.00158636,0.00084056,0.00047740,-0.00031987,-0.0005787
 2,-0.00032889,0.00005925,0.00007978,0.00003269,0.00002705,0.00009281,-
 0.00000111,-0.00006970,-0.00001994,-0.00047280,0.00046639,0.00001974,-
 0.07606471,-0.05496880,0.05593529,0.00081049,0.00050662,0.00132451,-0.
 00564212,-0.02061053,0.01784906,0.07715017,-0.00240022,-0.00005008,0.0
 0157605,0.00069580,0.00048466,-0.00084928,0.00660886,0.00509427,0.0031
 6401,0.00033945,0.00086527,0.00037643,0.00016742,-0.00030576,-0.000056
 40,-0.00003837,-0.00013669,-0.00015641,-0.00000249,0.00000886,0.000040
 75,-0.00002562,0.00003766,-0.00003724,0.00013369,-0.00106305,-0.000989
 88,-0.00028548,0.00002971,0.00015608,0.00001630,-0.00044227,0.00068605
 ,-0.00004351,0.00014410,-0.00031567,-0.00011371,0.00021915,-0.00010239
 ,0.00033559,-0.00019776,-0.00058981,-0.05262620,-0.17652963,0.11458855
 ,-0.01018023,-0.01823339,0.02007748,0.00192936,0.00731706,-0.00709997,
 0.05543444,0.18283636,0.00589915,0.00183194,-0.00150282,-0.00064612,-0
 .00289893,0.00129486,-0.00753283,0.01547134,-0.02799095,-0.00012455,-0
 .00214523,-0.00039998,-0.00047173,0.00055888,-0.00077617,0.00005995,-0
 .00041843,0.00030780,0.00004909,-0.00002628,0.00004478,0.00010872,-0.0
 0010040,0.00025619,0.00069885,0.00408583,0.00087156,-0.00051624,0.0003
 5012,0.00001786,-0.00054457,-0.00022314,0.00003900,0.00000295,0.000100
 12,0.00015451,0.00006794,-0.00001022,-0.00001156,0.00010654,-0.0000434
 9,0.00022614,0.05116863,0.11361072,-0.16163771,-0.00313216,-0.00888329
 ,0.01156896,0.00440107,0.00912553,-0.00703375,-0.04930685,-0.13031031,
 0.18433095,-0.01094266,-0.00772418,0.00418129,0.00641006,0.00820310,-0
 .00259973,-0.01907911,0.00482492,-0.01618714,-0.00125932,0.00156344,0.
 00087915,0.00016961,-0.00033872,-0.00004589,-0.00003550,0.00001940,0.0
 0000565,-0.00005926,0.00003043,-0.00001166,0.00000349,0.00008375,-0.00
 000406,-0.00041363,-0.00052150,-0.00064518,0.00162814,-0.00109035,-0.0
 0182336,-0.00143495,0.00222508,-0.00397808,0.00080561,-0.00021603,0.00
 017699,-0.00019897,0.00025731,-0.00077135,0.00100700,-0.00042463,-0.00
 034613,-0.00207702,0.00228271,0.00126005,0.00006709,-0.00017883,0.0000
 2784,-0.00064845,0.00010269,-0.00076774,-0.00021672,0.00005493,-0.0002
 8784,0.02627459,-0.00450436,-0.00953060,-0.00613637,0.00414680,-0.0202
 1131,0.02262049,0.00966242,0.00135786,0.00555735,0.00254319,-0.0013173
 8,-0.00090627,-0.00020448,0.00060185,0.00014373,0.00001367,-0.00013255
 ,0.00003326,0.00011144,-0.00006936,-0.00003976,-0.00004024,-0.00003442
 ,0.00001209,-0.00002203,-0.00092213,0.00027634,-0.00296921,0.00178465,
 0.00304671,-0.00027447,0.00140318,-0.00316649,-0.00047031,-0.00012386,
 0.00020520,0.00047229,0.00125832,-0.00026035,-0.00017324,0.00040546,-0
 .00141123,0.00062442,-0.00034809,-0.00130349,0.00013844,0.00012058,0.0
 0009671,0.00033359,-0.00005281,0.00041745,-0.00023440,-0.00007847,-0.0
 0007474,-0.00915351,0.02588908,0.00364291,-0.02135460,-0.01251376,-0.0
 0018693,0.03552525,-0.01568588,-0.01385536,0.00060468,-0.00569331,-0.0
 0354450,0.00173855,0.00369578,-0.00010802,-0.00054051,0.00027634,0.000
 23329,-0.00017742,0.00007843,-0.00019846,0.00021055,-0.00000386,0.0000
 3893,0.00005267,-0.00004915,-0.00041970,0.00015707,-0.00207033,0.00615
 103,-0.00403179,-0.00643181,-0.01120276,0.00788973,-0.02183373,-0.0008
 5788,0.00061422,-0.00055216,-0.00043855,-0.00021310,-0.00132891,0.0002
 2544,-0.00233430,-0.00284173,-0.00054850,0.00102060,0.00210215,0.00022
 452,-0.00003322,0.00000998,-0.00054155,0.00014030,-0.00051518,0.000448
 90,-0.00015804,0.00024034,0.02093720,-0.01911064,0.06311680\\-0.000039
 03,0.00001622,0.00001828,0.00004154,-0.00001336,-0.00001485,-0.0000239
 2,-0.00000659,-0.00000076,-0.00000772,-0.00001681,-0.00001292,-0.00001
 388,0.00000135,-0.00001066,-0.00000438,-0.00000452,-0.00001072,-0.0000
 0976,0.00000006,-0.00001322,-0.00001022,0.00000317,-0.00001103,0.00003
 234,0.00003257,0.00000979,-0.00002981,0.00001693,0.00001195,-0.0000074
 2,0.00000231,0.00000907,0.00000582,0.00000503,0.00000884,0.00001062,-0
 .00000519,0.00001559,-0.00000360,-0.00000449,0.00000925,0.00001169,-0.
 00002330,0.00000093,0.00001048,-0.00000509,-0.00000333,0.00000089,-0.0
 0001235,-0.00000242,0.00001453,0.00000477,-0.00001765,0.00002181,0.000
 00928,0.00001388\\\@


 THE DIFFICULTY IN SCIENCE IS OFTEN NOT SO MUCH HOW
 TO MAKE A DISCOVERY BUT RATHER TO KNOW ONE HAS MADE IT.

                                                   -- J. D. BERNAL
 Job cpu time:       0 days  0 hours 16 minutes 47.3 seconds.
 File lengths (MBytes):  RWF=     99 Int=      0 D2E=      0 Chk=      4 Scr=      1
 Normal termination of Gaussian 09 at Mon Feb 23 13:50:15 2015.
