 Entering Link 1 = C:\G09W\l1.exe PID=     11568.
  
 Copyright (c) 1988,1990,1992,1993,1995,1998,2003,2009, Gaussian, Inc.
                  All Rights Reserved.
  
 This is part of the Gaussian(R) 09 program.  It is based on
 the Gaussian(R) 03 system (copyright 2003, Gaussian, Inc.),
 the Gaussian(R) 98 system (copyright 1998, Gaussian, Inc.),
 the Gaussian(R) 94 system (copyright 1995, Gaussian, Inc.),
 the Gaussian 92(TM) system (copyright 1992, Gaussian, Inc.),
 the Gaussian 90(TM) system (copyright 1990, Gaussian, Inc.),
 the Gaussian 88(TM) system (copyright 1988, Gaussian, Inc.),
 the Gaussian 86(TM) system (copyright 1986, Carnegie Mellon
 University), and the Gaussian 82(TM) system (copyright 1983,
 Carnegie Mellon University). Gaussian is a federally registered
 trademark of Gaussian, Inc.
  
 This software contains proprietary and confidential information,
 including trade secrets, belonging to Gaussian, Inc.
  
 This software is provided under written license and may be
 used, copied, transmitted, or stored only in accord with that
 written license.
  
 The following legend is applicable only to US Government
 contracts under FAR:
  
                    RESTRICTED RIGHTS LEGEND
  
 Use, reproduction and disclosure by the US Government is
 subject to restrictions as set forth in subparagraphs (a)
 and (c) of the Commercial Computer Software - Restricted
 Rights clause in FAR 52.227-19.
  
 Gaussian, Inc.
 340 Quinnipiac St., Bldg. 40, Wallingford CT 06492
  
  
 ---------------------------------------------------------------
 Warning -- This program may not be used in any manner that
 competes with the business of Gaussian, Inc. or will provide
 assistance to any competitor of Gaussian, Inc.  The licensee
 of this program is prohibited from giving any competitor of
 Gaussian, Inc. access to this program.  By using this program,
 the user acknowledges that Gaussian, Inc. is engaged in the
 business of creating and licensing software in the field of
 computational chemistry and represents and warrants to the
 licensee that it is not a competitor of Gaussian, Inc. and that
 it will not use this program in any manner prohibited above.
 ---------------------------------------------------------------
  

 Cite this work as:
 Gaussian 09, Revision A.02,
 M. J. Frisch, G. W. Trucks, H. B. Schlegel, G. E. Scuseria, 
 M. A. Robb, J. R. Cheeseman, G. Scalmani, V. Barone, B. Mennucci, 
 G. A. Petersson, H. Nakatsuji, M. Caricato, X. Li, H. P. Hratchian, 
 A. F. Izmaylov, J. Bloino, G. Zheng, J. L. Sonnenberg, M. Hada, 
 M. Ehara, K. Toyota, R. Fukuda, J. Hasegawa, M. Ishida, T. Nakajima, 
 Y. Honda, O. Kitao, H. Nakai, T. Vreven, J. A. Montgomery, Jr., 
 J. E. Peralta, F. Ogliaro, M. Bearpark, J. J. Heyd, E. Brothers, 
 K. N. Kudin, V. N. Staroverov, R. Kobayashi, J. Normand, 
 K. Raghavachari, A. Rendell, J. C. Burant, S. S. Iyengar, J. Tomasi, 
 M. Cossi, N. Rega, J. M. Millam, M. Klene, J. E. Knox, J. B. Cross, 
 V. Bakken, C. Adamo, J. Jaramillo, R. Gomperts, R. E. Stratmann, 
 O. Yazyev, A. J. Austin, R. Cammi, C. Pomelli, J. W. Ochterski, 
 R. L. Martin, K. Morokuma, V. G. Zakrzewski, G. A. Voth, 
 P. Salvador, J. J. Dannenberg, S. Dapprich, A. D. Daniels, 
 O. Farkas, J. B. Foresman, J. V. Ortiz, J. Cioslowski, 
 and D. J. Fox, Gaussian, Inc., Wallingford CT, 2009.
 
 ******************************************
 Gaussian 09:  IA32W-G09RevA.02 11-Jun-2009
                23-Feb-2015 
 ******************************************
 ----------------------------------------------------------------------
 # opt=(calcfc,ts,noeigentest) freq=noraman b3lyp/gen geom=connectivity
  gfinput pseudo=read
 ----------------------------------------------------------------------
 1/5=1,10=4,11=1,14=-1,18=20,26=3,38=1,57=2/1,3;
 2/9=110,12=2,17=6,18=5,40=1/2;
 3/5=7,11=2,16=1,17=8,24=10,25=1,30=1,71=2,74=-5/1,2,3;
 4//1;
 5/5=2,38=5/2;
 8/6=4,10=90,11=11/1;
 11/6=1,8=1,9=11,15=111,16=1/1,2,10;
 10/6=1,7=6,13=1/2;
 6/7=2,8=2,9=2,10=2,28=1/1;
 7/10=1,18=20,25=1/1,2,3,16;
 1/5=1,10=4,11=1,14=-1,18=20/3(2);
 2/9=110/2;
 99//99;
 2/9=110/2;
 3/5=7,6=1,11=2,16=1,17=8,25=1,30=1,71=1,74=-5,82=7/1,2,3;
 4/5=5,16=3/1;
 5/5=2,38=5/2;
 7//1,2,3,16;
 1/5=1,11=1,14=-1,18=20/3(-5);
 2/9=110/2;
 6/7=2,8=2,9=2,10=2,19=2,28=1/1;
 99/9=1/99;
 ----------------------
 gen calculation ts624F-C H O=6-31+g(d)/F=MidiX
 ----------------------
 Symbolic Z-matrix:
 Charge =  0 Multiplicity = 1
 C                     1.03864  -0.44423   0.15046 
 O                     0.14066  -0.92438   0.90514 
 O                     0.23413   0.69407  -0.72018 
 O                    -1.87108  -0.6155   -0.42045 
 C                    -2.86906   0.02124   0.41467 
 H                    -2.40055   0.51502   1.27139 
 H                    -3.38905   0.73373  -0.23411 
 H                    -3.55655  -0.76608   0.74698 
 H                    -0.92912   0.23641  -0.72989 
 H                    -1.18981  -1.20177   0.23529 
 C                     2.3178    0.14147   0.67281 
 H                     3.00343  -0.66652   0.98211 
 H                     2.84725   0.74589  -0.07611 
 H                     2.13892   0.75634   1.56506 
 C                     0.16568   2.00624  -0.11717 
 H                     1.15585   2.46142  -0.22981 
 H                    -0.5738    2.57023  -0.69535 
 H                    -0.11844   1.92899   0.93699 
 F                     1.22932  -1.21061  -0.95703 
 

 GradGradGradGradGradGradGradGradGradGradGradGradGradGradGradGradGradGrad
 Berny optimization.
 Initialization pass.
                           ----------------------------
                           !    Initial Parameters    !
                           ! (Angstroms and Degrees)  !
 --------------------------                            --------------------------
 ! Name  Definition              Value          Derivative Info.                !
 --------------------------------------------------------------------------------
 ! R1    R(1,2)                  1.2675         calculate D2E/DX2 analytically  !
 ! R2    R(1,3)                  1.6435         calculate D2E/DX2 analytically  !
 ! R3    R(1,11)                 1.5007         calculate D2E/DX2 analytically  !
 ! R4    R(1,19)                 1.3602         calculate D2E/DX2 analytically  !
 ! R5    R(2,10)                 1.5152         calculate D2E/DX2 analytically  !
 ! R6    R(3,9)                  1.2501         calculate D2E/DX2 analytically  !
 ! R7    R(3,15)                 1.4457         calculate D2E/DX2 analytically  !
 ! R8    R(4,5)                  1.4487         calculate D2E/DX2 analytically  !
 ! R9    R(4,9)                  1.3072         calculate D2E/DX2 analytically  !
 ! R10   R(4,10)                 1.1126         calculate D2E/DX2 analytically  !
 ! R11   R(5,6)                  1.0942         calculate D2E/DX2 analytically  !
 ! R12   R(5,7)                  1.095          calculate D2E/DX2 analytically  !
 ! R13   R(5,8)                  1.0968         calculate D2E/DX2 analytically  !
 ! R14   R(11,12)                1.1039         calculate D2E/DX2 analytically  !
 ! R15   R(11,13)                1.0984         calculate D2E/DX2 analytically  !
 ! R16   R(11,14)                1.0983         calculate D2E/DX2 analytically  !
 ! R17   R(15,16)                1.0956         calculate D2E/DX2 analytically  !
 ! R18   R(15,17)                1.0951         calculate D2E/DX2 analytically  !
 ! R19   R(15,18)                1.0945         calculate D2E/DX2 analytically  !
 ! A1    A(2,1,3)              103.3558         calculate D2E/DX2 analytically  !
 ! A2    A(2,1,11)             122.9901         calculate D2E/DX2 analytically  !
 ! A3    A(2,1,19)             111.7568         calculate D2E/DX2 analytically  !
 ! A4    A(3,1,11)             109.3495         calculate D2E/DX2 analytically  !
 ! A5    A(3,1,19)              91.5779         calculate D2E/DX2 analytically  !
 ! A6    A(11,1,19)            112.569          calculate D2E/DX2 analytically  !
 ! A7    A(1,2,10)             115.3559         calculate D2E/DX2 analytically  !
 ! A8    A(1,3,9)              101.8916         calculate D2E/DX2 analytically  !
 ! A9    A(1,3,15)             115.5219         calculate D2E/DX2 analytically  !
 ! A10   A(9,3,15)             106.946          calculate D2E/DX2 analytically  !
 ! A11   A(5,4,9)              110.2684         calculate D2E/DX2 analytically  !
 ! A12   A(5,4,10)             108.2803         calculate D2E/DX2 analytically  !
 ! A13   A(9,4,10)              92.3898         calculate D2E/DX2 analytically  !
 ! A14   A(4,5,6)              110.7762         calculate D2E/DX2 analytically  !
 ! A15   A(4,5,7)              105.7583         calculate D2E/DX2 analytically  !
 ! A16   A(4,5,8)              106.9153         calculate D2E/DX2 analytically  !
 ! A17   A(6,5,7)              111.9383         calculate D2E/DX2 analytically  !
 ! A18   A(6,5,8)              110.7995         calculate D2E/DX2 analytically  !
 ! A19   A(7,5,8)              110.4227         calculate D2E/DX2 analytically  !
 ! A20   A(3,9,4)              155.1338         calculate D2E/DX2 analytically  !
 ! A21   A(2,10,4)             134.5691         calculate D2E/DX2 analytically  !
 ! A22   A(1,11,12)            109.9543         calculate D2E/DX2 analytically  !
 ! A23   A(1,11,13)            112.848          calculate D2E/DX2 analytically  !
 ! A24   A(1,11,14)            111.2506         calculate D2E/DX2 analytically  !
 ! A25   A(12,11,13)           107.1229         calculate D2E/DX2 analytically  !
 ! A26   A(12,11,14)           106.4581         calculate D2E/DX2 analytically  !
 ! A27   A(13,11,14)           108.9267         calculate D2E/DX2 analytically  !
 ! A28   A(3,15,16)            106.9428         calculate D2E/DX2 analytically  !
 ! A29   A(3,15,17)            106.2125         calculate D2E/DX2 analytically  !
 ! A30   A(3,15,18)            110.4844         calculate D2E/DX2 analytically  !
 ! A31   A(16,15,17)           110.0007         calculate D2E/DX2 analytically  !
 ! A32   A(16,15,18)           111.2818         calculate D2E/DX2 analytically  !
 ! A33   A(17,15,18)           111.6898         calculate D2E/DX2 analytically  !
 ! D1    D(3,1,2,10)            43.6513         calculate D2E/DX2 analytically  !
 ! D2    D(11,1,2,10)          167.7157         calculate D2E/DX2 analytically  !
 ! D3    D(19,1,2,10)          -53.5425         calculate D2E/DX2 analytically  !
 ! D4    D(2,1,3,9)            -27.9597         calculate D2E/DX2 analytically  !
 ! D5    D(2,1,3,15)            87.5466         calculate D2E/DX2 analytically  !
 ! D6    D(11,1,3,9)          -160.5309         calculate D2E/DX2 analytically  !
 ! D7    D(11,1,3,15)          -45.0246         calculate D2E/DX2 analytically  !
 ! D8    D(19,1,3,9)            84.849          calculate D2E/DX2 analytically  !
 ! D9    D(19,1,3,15)         -159.6447         calculate D2E/DX2 analytically  !
 ! D10   D(2,1,11,12)           76.0629         calculate D2E/DX2 analytically  !
 ! D11   D(2,1,11,13)         -164.4075         calculate D2E/DX2 analytically  !
 ! D12   D(2,1,11,14)          -41.6209         calculate D2E/DX2 analytically  !
 ! D13   D(3,1,11,12)         -162.6147         calculate D2E/DX2 analytically  !
 ! D14   D(3,1,11,13)          -43.0851         calculate D2E/DX2 analytically  !
 ! D15   D(3,1,11,14)           79.7015         calculate D2E/DX2 analytically  !
 ! D16   D(19,1,11,12)         -62.3871         calculate D2E/DX2 analytically  !
 ! D17   D(19,1,11,13)          57.1425         calculate D2E/DX2 analytically  !
 ! D18   D(19,1,11,14)         179.929          calculate D2E/DX2 analytically  !
 ! D19   D(1,2,10,4)           -49.5979         calculate D2E/DX2 analytically  !
 ! D20   D(1,3,9,4)              2.7636         calculate D2E/DX2 analytically  !
 ! D21   D(15,3,9,4)          -118.8679         calculate D2E/DX2 analytically  !
 ! D22   D(1,3,15,16)           74.8403         calculate D2E/DX2 analytically  !
 ! D23   D(1,3,15,17)         -167.7123         calculate D2E/DX2 analytically  !
 ! D24   D(1,3,15,18)          -46.4143         calculate D2E/DX2 analytically  !
 ! D25   D(9,3,15,16)         -172.5666         calculate D2E/DX2 analytically  !
 ! D26   D(9,3,15,17)          -55.1191         calculate D2E/DX2 analytically  !
 ! D27   D(9,3,15,18)           66.1789         calculate D2E/DX2 analytically  !
 ! D28   D(9,4,5,6)            -51.9849         calculate D2E/DX2 analytically  !
 ! D29   D(9,4,5,7)             69.4987         calculate D2E/DX2 analytically  !
 ! D30   D(9,4,5,8)           -172.8052         calculate D2E/DX2 analytically  !
 ! D31   D(10,4,5,6)            47.7332         calculate D2E/DX2 analytically  !
 ! D32   D(10,4,5,7)           169.2168         calculate D2E/DX2 analytically  !
 ! D33   D(10,4,5,8)           -73.0871         calculate D2E/DX2 analytically  !
 ! D34   D(5,4,9,3)            114.1418         calculate D2E/DX2 analytically  !
 ! D35   D(10,4,9,3)             3.65           calculate D2E/DX2 analytically  !
 ! D36   D(5,4,10,2)           -94.1936         calculate D2E/DX2 analytically  !
 ! D37   D(9,4,10,2)            18.0741         calculate D2E/DX2 analytically  !
 --------------------------------------------------------------------------------
 Trust Radius=3.00D-01 FncErr=1.00D-07 GrdErr=1.00D-06
 Number of steps in this run=  99 maximum allowed number of steps= 114.
 Search for a saddle point of order  1.
 GradGradGradGradGradGradGradGradGradGradGradGradGradGradGradGradGradGrad

                          Input orientation:                          
 ---------------------------------------------------------------------
 Center     Atomic      Atomic             Coordinates (Angstroms)
 Number     Number       Type             X           Y           Z
 ---------------------------------------------------------------------
      1          6           0        1.038638   -0.444228    0.150458
      2          8           0        0.140657   -0.924384    0.905138
      3          8           0        0.234125    0.694069   -0.720178
      4          8           0       -1.871075   -0.615496   -0.420445
      5          6           0       -2.869059    0.021236    0.414667
      6          1           0       -2.400549    0.515022    1.271394
      7          1           0       -3.389051    0.733726   -0.234110
      8          1           0       -3.556552   -0.766079    0.746980
      9          1           0       -0.929120    0.236408   -0.729885
     10          1           0       -1.189813   -1.201772    0.235293
     11          6           0        2.317801    0.141469    0.672809
     12          1           0        3.003432   -0.666516    0.982111
     13          1           0        2.847250    0.745892   -0.076114
     14          1           0        2.138920    0.756342    1.565055
     15          6           0        0.165676    2.006238   -0.117169
     16          1           0        1.155848    2.461422   -0.229811
     17          1           0       -0.573795    2.570231   -0.695350
     18          1           0       -0.118440    1.928985    0.936989
     19          9           0        1.229320   -1.210607   -0.957029
 ---------------------------------------------------------------------
                    Distance matrix (angstroms):
                    1          2          3          4          5
     1  C    0.000000
     2  O    1.267463   0.000000
     3  O    1.643462   2.295600   0.000000
     4  O    2.970133   2.428919   2.497332   0.000000
     5  C    3.944180   3.192671   3.371992   1.448728   0.000000
     6  H    3.742281   2.943427   3.307556   2.102554   1.094215
     7  H    4.597814   4.062764   3.655850   2.039454   1.094964
     8  H    4.644911   3.703975   4.319006   2.055818   1.096788
     9  H    2.260606   2.272699   1.250075   1.307200   2.262667
    10  H    2.355221   1.515185   2.556313   1.112578   2.085136
    11  C    1.500716   2.435154   2.566610   4.394870   5.194671
    12  H    2.145105   2.875396   3.523924   5.072532   5.939793
    13  H    2.176878   3.328411   2.691826   4.922858   5.782921
    14  H    2.157098   2.693211   2.975636   4.680193   5.190725
    15  C    2.615047   3.103914   1.445715   3.333740   3.665065
    16  H    2.932771   3.712466   2.052698   4.320420   4.750762
    17  H    3.521689   3.909519   2.042874   3.450705   3.605239
    18  H    2.754923   2.865285   2.096550   3.374721   3.387954
    19  F    1.360229   2.175954   2.162013   3.202269   4.493962
                    6          7          8          9         10
     6  H    0.000000
     7  H    1.814252   0.000000
     8  H    1.803489   1.800003   0.000000
     9  H    2.499569   2.558198   3.176399   0.000000
    10  H    2.342385   2.967009   2.460306   1.751540   0.000000
    11  C    4.770815   5.808737   5.944507   3.538228   3.781411
    12  H    5.539199   6.656103   6.564952   4.383055   4.292731
    13  H    5.422958   6.238314   6.631155   3.866259   4.493133
    14  H    4.555354   5.813430   5.951925   3.866517   4.084476
    15  C    3.276789   3.777439   4.720961   2.169400   3.500415
    16  H    4.323199   4.862207   5.794618   3.089960   4.374636
    17  H    3.380680   3.392810   4.701927   2.360970   3.933647
    18  H    2.705391   3.673828   4.372652   2.510077   3.382581
    19  F    4.595608   5.062844   5.099590   2.608507   2.697020
                   11         12         13         14         15
    11  C    0.000000
    12  H    1.103901   0.000000
    13  H    1.098421   1.771759   0.000000
    14  H    1.098258   1.764010   1.787534   0.000000
    15  C    2.955177   4.050295   2.963275   2.878508   0.000000
    16  H    2.747188   3.829663   2.414023   2.663695   1.095592
    17  H    4.016475   5.107539   3.926221   3.969691   1.095079
    18  H    3.033195   4.060141   3.349836   2.620159   1.094504
    19  F    2.381023   2.683984   2.687303   3.325232   3.490673
                   16         17         18         19
    16  H    0.000000
    17  H    1.794500   0.000000
    18  H    1.807961   1.811926   0.000000
    19  F    3.744067   4.196956   3.906507   0.000000
 Stoichiometry    C4H11FO3
 Framework group  C1[X(C4H11FO3)]
 Deg. of freedom    51
 Full point group                 C1      NOp   1
 Largest Abelian subgroup         C1      NOp   1
 Largest concise Abelian subgroup C1      NOp   1
                         Standard orientation:                         
 ---------------------------------------------------------------------
 Center     Atomic      Atomic             Coordinates (Angstroms)
 Number     Number       Type             X           Y           Z
 ---------------------------------------------------------------------
      1          6           0        1.038638   -0.444228    0.150458
      2          8           0        0.140657   -0.924384    0.905138
      3          8           0        0.234125    0.694069   -0.720178
      4          8           0       -1.871075   -0.615496   -0.420445
      5          6           0       -2.869059    0.021236    0.414667
      6          1           0       -2.400549    0.515022    1.271394
      7          1           0       -3.389051    0.733726   -0.234110
      8          1           0       -3.556552   -0.766079    0.746980
      9          1           0       -0.929120    0.236408   -0.729885
     10          1           0       -1.189813   -1.201772    0.235293
     11          6           0        2.317801    0.141469    0.672809
     12          1           0        3.003432   -0.666516    0.982111
     13          1           0        2.847250    0.745892   -0.076114
     14          1           0        2.138920    0.756342    1.565055
     15          6           0        0.165676    2.006238   -0.117169
     16          1           0        1.155848    2.461422   -0.229811
     17          1           0       -0.573795    2.570231   -0.695350
     18          1           0       -0.118440    1.928985    0.936989
     19          9           0        1.229320   -1.210607   -0.957029
 ---------------------------------------------------------------------
 Rotational constants (GHZ):      2.7524908      1.3461166      1.1357869
 General basis read from cards:  (5D, 7F)
 AO basis set in the form of general basis input (Overlap normalization):
      1 0
 S   6 1.00       0.000000000000
      0.3047524880D+04  0.1834737132D-02
      0.4573695180D+03  0.1403732281D-01
      0.1039486850D+03  0.6884262226D-01
      0.2921015530D+02  0.2321844432D+00
      0.9286662960D+01  0.4679413484D+00
      0.3163926960D+01  0.3623119853D+00
 SP   3 1.00       0.000000000000
      0.7868272350D+01 -0.1193324198D+00  0.6899906659D-01
      0.1881288540D+01 -0.1608541517D+00  0.3164239610D+00
      0.5442492580D+00  0.1143456438D+01  0.7443082909D+00
 SP   1 1.00       0.000000000000
      0.1687144782D+00  0.1000000000D+01  0.1000000000D+01
 SP   1 1.00       0.000000000000
      0.4380000000D-01  0.1000000000D+01  0.1000000000D+01
 D   1 1.00       0.000000000000
      0.8000000000D+00  0.1000000000D+01
 ****
      2 0
 S   6 1.00       0.000000000000
      0.5484671660D+04  0.1831074430D-02
      0.8252349460D+03  0.1395017220D-01
      0.1880469580D+03  0.6844507810D-01
      0.5296450000D+02  0.2327143360D+00
      0.1689757040D+02  0.4701928980D+00
      0.5799635340D+01  0.3585208530D+00
 SP   3 1.00       0.000000000000
      0.1553961625D+02 -0.1107775495D+00  0.7087426823D-01
      0.3599933586D+01 -0.1480262627D+00  0.3397528391D+00
      0.1013761750D+01  0.1130767015D+01  0.7271585773D+00
 SP   1 1.00       0.000000000000
      0.2700058226D+00  0.1000000000D+01  0.1000000000D+01
 SP   1 1.00       0.000000000000
      0.8450000000D-01  0.1000000000D+01  0.1000000000D+01
 D   1 1.00       0.000000000000
      0.8000000000D+00  0.1000000000D+01
 ****
      3 0
 S   6 1.00       0.000000000000
      0.5484671660D+04  0.1831074430D-02
      0.8252349460D+03  0.1395017220D-01
      0.1880469580D+03  0.6844507810D-01
      0.5296450000D+02  0.2327143360D+00
      0.1689757040D+02  0.4701928980D+00
      0.5799635340D+01  0.3585208530D+00
 SP   3 1.00       0.000000000000
      0.1553961625D+02 -0.1107775495D+00  0.7087426823D-01
      0.3599933586D+01 -0.1480262627D+00  0.3397528391D+00
      0.1013761750D+01  0.1130767015D+01  0.7271585773D+00
 SP   1 1.00       0.000000000000
      0.2700058226D+00  0.1000000000D+01  0.1000000000D+01
 SP   1 1.00       0.000000000000
      0.8450000000D-01  0.1000000000D+01  0.1000000000D+01
 D   1 1.00       0.000000000000
      0.8000000000D+00  0.1000000000D+01
 ****
      4 0
 S   6 1.00       0.000000000000
      0.5484671660D+04  0.1831074430D-02
      0.8252349460D+03  0.1395017220D-01
      0.1880469580D+03  0.6844507810D-01
      0.5296450000D+02  0.2327143360D+00
      0.1689757040D+02  0.4701928980D+00
      0.5799635340D+01  0.3585208530D+00
 SP   3 1.00       0.000000000000
      0.1553961625D+02 -0.1107775495D+00  0.7087426823D-01
      0.3599933586D+01 -0.1480262627D+00  0.3397528391D+00
      0.1013761750D+01  0.1130767015D+01  0.7271585773D+00
 SP   1 1.00       0.000000000000
      0.2700058226D+00  0.1000000000D+01  0.1000000000D+01
 SP   1 1.00       0.000000000000
      0.8450000000D-01  0.1000000000D+01  0.1000000000D+01
 D   1 1.00       0.000000000000
      0.8000000000D+00  0.1000000000D+01
 ****
      5 0
 S   6 1.00       0.000000000000
      0.3047524880D+04  0.1834737132D-02
      0.4573695180D+03  0.1403732281D-01
      0.1039486850D+03  0.6884262226D-01
      0.2921015530D+02  0.2321844432D+00
      0.9286662960D+01  0.4679413484D+00
      0.3163926960D+01  0.3623119853D+00
 SP   3 1.00       0.000000000000
      0.7868272350D+01 -0.1193324198D+00  0.6899906659D-01
      0.1881288540D+01 -0.1608541517D+00  0.3164239610D+00
      0.5442492580D+00  0.1143456438D+01  0.7443082909D+00
 SP   1 1.00       0.000000000000
      0.1687144782D+00  0.1000000000D+01  0.1000000000D+01
 SP   1 1.00       0.000000000000
      0.4380000000D-01  0.1000000000D+01  0.1000000000D+01
 D   1 1.00       0.000000000000
      0.8000000000D+00  0.1000000000D+01
 ****
      6 0
 S   3 1.00       0.000000000000
      0.1873113696D+02  0.3349460434D-01
      0.2825394365D+01  0.2347269535D+00
      0.6401216923D+00  0.8137573261D+00
 S   1 1.00       0.000000000000
      0.1612777588D+00  0.1000000000D+01
 ****
      7 0
 S   3 1.00       0.000000000000
      0.1873113696D+02  0.3349460434D-01
      0.2825394365D+01  0.2347269535D+00
      0.6401216923D+00  0.8137573261D+00
 S   1 1.00       0.000000000000
      0.1612777588D+00  0.1000000000D+01
 ****
      8 0
 S   3 1.00       0.000000000000
      0.1873113696D+02  0.3349460434D-01
      0.2825394365D+01  0.2347269535D+00
      0.6401216923D+00  0.8137573261D+00
 S   1 1.00       0.000000000000
      0.1612777588D+00  0.1000000000D+01
 ****
      9 0
 S   3 1.00       0.000000000000
      0.1873113696D+02  0.3349460434D-01
      0.2825394365D+01  0.2347269535D+00
      0.6401216923D+00  0.8137573261D+00
 S   1 1.00       0.000000000000
      0.1612777588D+00  0.1000000000D+01
 ****
     10 0
 S   3 1.00       0.000000000000
      0.1873113696D+02  0.3349460434D-01
      0.2825394365D+01  0.2347269535D+00
      0.6401216923D+00  0.8137573261D+00
 S   1 1.00       0.000000000000
      0.1612777588D+00  0.1000000000D+01
 ****
     11 0
 S   6 1.00       0.000000000000
      0.3047524880D+04  0.1834737132D-02
      0.4573695180D+03  0.1403732281D-01
      0.1039486850D+03  0.6884262226D-01
      0.2921015530D+02  0.2321844432D+00
      0.9286662960D+01  0.4679413484D+00
      0.3163926960D+01  0.3623119853D+00
 SP   3 1.00       0.000000000000
      0.7868272350D+01 -0.1193324198D+00  0.6899906659D-01
      0.1881288540D+01 -0.1608541517D+00  0.3164239610D+00
      0.5442492580D+00  0.1143456438D+01  0.7443082909D+00
 SP   1 1.00       0.000000000000
      0.1687144782D+00  0.1000000000D+01  0.1000000000D+01
 SP   1 1.00       0.000000000000
      0.4380000000D-01  0.1000000000D+01  0.1000000000D+01
 D   1 1.00       0.000000000000
      0.8000000000D+00  0.1000000000D+01
 ****
     12 0
 S   3 1.00       0.000000000000
      0.1873113696D+02  0.3349460434D-01
      0.2825394365D+01  0.2347269535D+00
      0.6401216923D+00  0.8137573261D+00
 S   1 1.00       0.000000000000
      0.1612777588D+00  0.1000000000D+01
 ****
     13 0
 S   3 1.00       0.000000000000
      0.1873113696D+02  0.3349460434D-01
      0.2825394365D+01  0.2347269535D+00
      0.6401216923D+00  0.8137573261D+00
 S   1 1.00       0.000000000000
      0.1612777588D+00  0.1000000000D+01
 ****
     14 0
 S   3 1.00       0.000000000000
      0.1873113696D+02  0.3349460434D-01
      0.2825394365D+01  0.2347269535D+00
      0.6401216923D+00  0.8137573261D+00
 S   1 1.00       0.000000000000
      0.1612777588D+00  0.1000000000D+01
 ****
     15 0
 S   6 1.00       0.000000000000
      0.3047524880D+04  0.1834737132D-02
      0.4573695180D+03  0.1403732281D-01
      0.1039486850D+03  0.6884262226D-01
      0.2921015530D+02  0.2321844432D+00
      0.9286662960D+01  0.4679413484D+00
      0.3163926960D+01  0.3623119853D+00
 SP   3 1.00       0.000000000000
      0.7868272350D+01 -0.1193324198D+00  0.6899906659D-01
      0.1881288540D+01 -0.1608541517D+00  0.3164239610D+00
      0.5442492580D+00  0.1143456438D+01  0.7443082909D+00
 SP   1 1.00       0.000000000000
      0.1687144782D+00  0.1000000000D+01  0.1000000000D+01
 SP   1 1.00       0.000000000000
      0.4380000000D-01  0.1000000000D+01  0.1000000000D+01
 D   1 1.00       0.000000000000
      0.8000000000D+00  0.1000000000D+01
 ****
     16 0
 S   3 1.00       0.000000000000
      0.1873113696D+02  0.3349460434D-01
      0.2825394365D+01  0.2347269535D+00
      0.6401216923D+00  0.8137573261D+00
 S   1 1.00       0.000000000000
      0.1612777588D+00  0.1000000000D+01
 ****
     17 0
 S   3 1.00       0.000000000000
      0.1873113696D+02  0.3349460434D-01
      0.2825394365D+01  0.2347269535D+00
      0.6401216923D+00  0.8137573261D+00
 S   1 1.00       0.000000000000
      0.1612777588D+00  0.1000000000D+01
 ****
     18 0
 S   3 1.00       0.000000000000
      0.1873113696D+02  0.3349460434D-01
      0.2825394365D+01  0.2347269535D+00
      0.6401216923D+00  0.8137573261D+00
 S   1 1.00       0.000000000000
      0.1612777588D+00  0.1000000000D+01
 ****
     19 0
 S   3 1.00       0.000000000000
      0.3683711200D+03  0.6704002682D-01
      0.5506106000D+02  0.3892491557D+00
      0.1174767000D+02  0.6707882684D+00
 S   2 1.00       0.000000000000
      0.1515184000D+02 -0.1430237380D+00
      0.1151370000D+01  0.1043565469D+01
 S   1 1.00       0.000000000000
      0.3581100000D+00  0.1000000000D+01
 P   2 1.00       0.000000000000
      0.1057707000D+02  0.2289901111D+00
      0.2194980000D+01  0.8667566772D+00
 P   1 1.00       0.000000000000
      0.4793700000D+00  0.1000000000D+01
 D   1 1.00       0.000000000000
      0.1000000000D+01  0.1000000000D+01
 ****

 ======================================================================================================
                                       Pseudopotential Parameters
 ======================================================================================================
  Center     Atomic      Valence      Angular      Power
  Number     Number     Electrons     Momentum     of R      Exponent        Coefficient   SO-Coeffient
 ======================================================================================================
    1          6
                                   No pseudopotential on this center.
    2          8
                                   No pseudopotential on this center.
    3          8
                                   No pseudopotential on this center.
    4          8
                                   No pseudopotential on this center.
    5          6
                                   No pseudopotential on this center.
    6          1
                                   No pseudopotential on this center.
    7          1
                                   No pseudopotential on this center.
    8          1
                                   No pseudopotential on this center.
    9          1
                                   No pseudopotential on this center.
   10          1
                                   No pseudopotential on this center.
   11          6
                                   No pseudopotential on this center.
   12          1
                                   No pseudopotential on this center.
   13          1
                                   No pseudopotential on this center.
   14          1
                                   No pseudopotential on this center.
   15          6
                                   No pseudopotential on this center.
   16          1
                                   No pseudopotential on this center.
   17          1
                                   No pseudopotential on this center.
   18          1
                                   No pseudopotential on this center.
   19          9
                                   No pseudopotential on this center.
 ======================================================================================================
 There are   162 symmetry adapted basis functions of A   symmetry.
 Integral buffers will be    262144 words long.
 Raffenetti 2 integral format.
 Two-electron integral symmetry is turned on.
   162 basis functions,   289 primitive gaussians,   170 cartesian basis functions
    34 alpha electrons       34 beta electrons
       nuclear repulsion energy       452.3329082244 Hartrees.
 NAtoms=   19 NActive=   19 NUniq=   19 SFac= 7.50D-01 NAtFMM=   80 NAOKFM=F Big=F
 One-electron integrals computed using PRISM.
   1 Symmetry operations used in ECPInt.
 ECPInt:  NShTT=    2016 NPrTT=    9755 LenC2=    1991 LenP2D=    7010.
 LDataN:  DoStor=T MaxTD1= 4 Len=   56
 NBasis=   162 RedAO= T  NBF=   162
 NBsUse=   162 1.00D-06 NBFU=   162
 Harris functional with IExCor=  402 diagonalized for initial guess.
 ExpMin= 4.38D-02 ExpMax= 5.48D+03 ExpMxC= 8.25D+02 IAcc=2 IRadAn=         0 AccDes= 0.00D+00
 HarFok:  IExCor=  402 AccDes= 0.00D+00 IRadAn=         0 IDoV= 1
 ScaDFX=  1.000000  1.000000  1.000000  1.000000
 FoFCou: FMM=F IPFlag=           0 FMFlag=      100000 FMFlg1=           0
         NFxFlg=           0 DoJE=T BraDBF=F KetDBF=T FulRan=T
         Omega=  0.000000  0.000000  1.000000  0.000000  0.000000 ICntrl=     500 IOpCl=  0
         NMat0=    1 NMatS0=    1 NMatT0=    0 NMatD0=    1 NMtDS0=    0 NMtDT0=    0
         I1Cent=           4 NGrid=           0.
 Petite list used in FoFCou.
 Initial guess orbital symmetries:
       Occupied  (A) (A) (A) (A) (A) (A) (A) (A) (A) (A) (A) (A)
                 (A) (A) (A) (A) (A) (A) (A) (A) (A) (A) (A) (A)
                 (A) (A) (A) (A) (A) (A) (A) (A) (A) (A)
       Virtual   (A) (A) (A) (A) (A) (A) (A) (A) (A) (A) (A) (A)
                 (A) (A) (A) (A) (A) (A) (A) (A) (A) (A) (A) (A)
                 (A) (A) (A) (A) (A) (A) (A) (A) (A) (A) (A) (A)
                 (A) (A) (A) (A) (A) (A) (A) (A) (A) (A) (A) (A)
                 (A) (A) (A) (A) (A) (A) (A) (A) (A) (A) (A) (A)
                 (A) (A) (A) (A) (A) (A) (A) (A) (A) (A) (A) (A)
                 (A) (A) (A) (A) (A) (A) (A) (A) (A) (A) (A) (A)
                 (A) (A) (A) (A) (A) (A) (A) (A) (A) (A) (A) (A)
                 (A) (A) (A) (A) (A) (A) (A) (A) (A) (A) (A) (A)
                 (A) (A) (A) (A) (A) (A) (A) (A) (A) (A) (A) (A)
                 (A) (A) (A) (A) (A) (A) (A) (A)
 The electronic state of the initial guess is 1-A.
 Requested convergence on RMS density matrix=1.00D-08 within 128 cycles.
 Requested convergence on MAX density matrix=1.00D-06.
 Requested convergence on             energy=1.00D-06.
 No special actions if energy rises.
 SCF Done:  E(RB3LYP) =  -483.973703128     A.U. after   14 cycles
             Convg  =    0.1080D-08             -V/T =  2.0085
 Range of M.O.s used for correlation:     1   162
 NBasis=   162 NAE=    34 NBE=    34 NFC=     0 NFV=     0
 NROrb=    162 NOA=    34 NOB=    34 NVA=   128 NVB=   128

 **** Warning!!: The largest alpha MO coefficient is  0.24551581D+02

   1 Symmetry operations used in ECPInt.
 ECPInt:  NShTT=    2016 NPrTT=    9755 LenC2=    1991 LenP2D=    7010.
 LDataN:  DoStor=T MaxTD1= 5 Len=  102
 Symmetrizing basis deriv contribution to polar:
 IMax=3 JMax=2 DiffMx= 0.00D+00
 G2DrvN: will do    20 centers at a time, making    1 passes doing MaxLOS=2.
 Calling FoFCou, ICntrl=  3107 FMM=F I1Cent=   0 AccDes= 0.00D+00.
 FoFDir/FoFCou used for L=0 through L=2.
 End of G2Drv Frequency-dependent properties file   721 does not exist.
 End of G2Drv Frequency-dependent properties file   722 does not exist.
          IDoAtm=1111111111111111111
          Differentiating once with respect to nuclear coordinates.
          There are    60 degrees of freedom in the 1st order CPHF.  IDoFFX=5.
     54 vectors produced by pass  0 Test12= 7.25D-11 1.67D-07 XBig12= 2.84D-01 7.31D-02.
 AX will form    54 AO Fock derivatives at one time.
     54 vectors produced by pass  1 Test12= 7.25D-11 1.67D-07 XBig12= 7.97D-02 5.07D-02.
     54 vectors produced by pass  2 Test12= 7.25D-11 1.67D-07 XBig12= 7.00D-04 4.32D-03.
     54 vectors produced by pass  3 Test12= 7.25D-11 1.67D-07 XBig12= 1.94D-06 1.53D-04.
     23 vectors produced by pass  4 Test12= 7.25D-11 1.67D-07 XBig12= 2.58D-09 8.71D-06.
 Inverted reduced A of dimension   239 with in-core refinement.
 End of Minotr Frequency-dependent properties file   721 does not exist.
 End of Minotr Frequency-dependent properties file   722 does not exist.

 **********************************************************************

            Population analysis using the SCF density.

 **********************************************************************

 Orbital symmetries:
       Occupied  (A) (A) (A) (A) (A) (A) (A) (A) (A) (A) (A) (A)
                 (A) (A) (A) (A) (A) (A) (A) (A) (A) (A) (A) (A)
                 (A) (A) (A) (A) (A) (A) (A) (A) (A) (A)
       Virtual   (A) (A) (A) (A) (A) (A) (A) (A) (A) (A) (A) (A)
                 (A) (A) (A) (A) (A) (A) (A) (A) (A) (A) (A) (A)
                 (A) (A) (A) (A) (A) (A) (A) (A) (A) (A) (A) (A)
                 (A) (A) (A) (A) (A) (A) (A) (A) (A) (A) (A) (A)
                 (A) (A) (A) (A) (A) (A) (A) (A) (A) (A) (A) (A)
                 (A) (A) (A) (A) (A) (A) (A) (A) (A) (A) (A) (A)
                 (A) (A) (A) (A) (A) (A) (A) (A) (A) (A) (A) (A)
                 (A) (A) (A) (A) (A) (A) (A) (A) (A) (A) (A) (A)
                 (A) (A) (A) (A) (A) (A) (A) (A) (A) (A) (A) (A)
                 (A) (A) (A) (A) (A) (A) (A) (A) (A) (A) (A) (A)
                 (A) (A) (A) (A) (A) (A) (A) (A)
 The electronic state is 1-A.
 Alpha  occ. eigenvalues --  -24.55016 -19.18688 -19.18261 -19.10080 -10.34974
 Alpha  occ. eigenvalues --  -10.24606 -10.24488 -10.19036  -1.22014  -1.06111
 Alpha  occ. eigenvalues --   -1.02716  -0.98918  -0.75550  -0.71329  -0.69958
 Alpha  occ. eigenvalues --   -0.59521  -0.54538  -0.53706  -0.52156  -0.49154
 Alpha  occ. eigenvalues --   -0.47138  -0.46081  -0.45403  -0.45199  -0.41693
 Alpha  occ. eigenvalues --   -0.41052  -0.40326  -0.38134  -0.36657  -0.35860
 Alpha  occ. eigenvalues --   -0.34573  -0.30067  -0.27030  -0.25830
 Alpha virt. eigenvalues --   -0.00387   0.01396   0.01401   0.02527   0.03898
 Alpha virt. eigenvalues --    0.04593   0.05261   0.06448   0.07202   0.07383
 Alpha virt. eigenvalues --    0.08186   0.09159   0.09589   0.11152   0.11939
 Alpha virt. eigenvalues --    0.13109   0.14361   0.15512   0.16440   0.16912
 Alpha virt. eigenvalues --    0.18319   0.18894   0.19331   0.20171   0.20984
 Alpha virt. eigenvalues --    0.21604   0.22000   0.23028   0.25508   0.25561
 Alpha virt. eigenvalues --    0.26539   0.28270   0.29766   0.30216   0.30621
 Alpha virt. eigenvalues --    0.31531   0.32517   0.33060   0.34139   0.36577
 Alpha virt. eigenvalues --    0.36740   0.40313   0.42228   0.45802   0.50274
 Alpha virt. eigenvalues --    0.58531   0.63068   0.64734   0.65444   0.69127
 Alpha virt. eigenvalues --    0.71211   0.71750   0.73704   0.76315   0.77736
 Alpha virt. eigenvalues --    0.79684   0.86616   0.89423   0.93201   0.94000
 Alpha virt. eigenvalues --    0.95826   0.98079   0.99478   1.01463   1.04589
 Alpha virt. eigenvalues --    1.08026   1.11352   1.12116   1.17652   1.20171
 Alpha virt. eigenvalues --    1.21656   1.22581   1.23061   1.27256   1.28682
 Alpha virt. eigenvalues --    1.31876   1.32381   1.35185   1.40303   1.43050
 Alpha virt. eigenvalues --    1.46815   1.51669   1.52409   1.55400   1.59127
 Alpha virt. eigenvalues --    1.65326   1.65825   1.68469   1.73441   1.76289
 Alpha virt. eigenvalues --    1.77613   1.78712   1.81903   1.88325   1.93299
 Alpha virt. eigenvalues --    1.96756   1.97937   2.02971   2.03891   2.06635
 Alpha virt. eigenvalues --    2.09354   2.13031   2.14753   2.15143   2.16767
 Alpha virt. eigenvalues --    2.19399   2.20252   2.24780   2.25937   2.27289
 Alpha virt. eigenvalues --    2.29143   2.30273   2.31501   2.32218   2.38237
 Alpha virt. eigenvalues --    2.38401   2.40167   2.50489   2.54958   2.62695
 Alpha virt. eigenvalues --    2.76418   2.79246   2.82826   2.85896   2.91048
 Alpha virt. eigenvalues --    3.09180   3.15014   3.54843
          Condensed to atoms (all electrons):
              1          2          3          4          5          6
     1  C    9.440678   0.222551   0.262604  -0.019587   0.007776  -0.006257
     2  O    0.222551   8.653806  -0.197604  -0.118628   0.023719   0.005816
     3  O    0.262604  -0.197604   8.890459  -0.061956   0.034329   0.001494
     4  O   -0.019587  -0.118628  -0.061956   8.825181   0.040298  -0.085054
     5  C    0.007776   0.023719   0.034329   0.040298   5.156476   0.410908
     6  H   -0.006257   0.005816   0.001494  -0.085054   0.410908   0.525292
     7  H    0.000597  -0.000514  -0.000725  -0.042185   0.395770  -0.033030
     8  H   -0.000277   0.000338  -0.001378  -0.041915   0.388483  -0.030380
     9  H   -0.029380   0.006462   0.100709   0.098140  -0.013960   0.001227
    10  H   -0.024983   0.110525   0.006547   0.074360  -0.001894   0.001989
    11  C   -4.117425  -0.059698  -0.235348   0.018337  -0.044824   0.001539
    12  H   -0.075653  -0.001852   0.004224   0.000030  -0.000229   0.000000
    13  H   -0.137935   0.008646  -0.001167   0.000461  -0.000292  -0.000001
    14  H    0.091377  -0.005935  -0.001105  -0.000335   0.000823   0.000005
    15  C   -0.586851   0.014239  -0.037951   0.022466  -0.029389  -0.001555
    16  H   -0.022851  -0.001989  -0.038312  -0.001101   0.001442   0.000024
    17  H    0.007505  -0.000780  -0.042683  -0.000111  -0.000975  -0.000177
    18  H   -0.022459   0.013894  -0.082533   0.000720  -0.003676   0.001133
    19  F    0.548465  -0.039729  -0.013713   0.000767  -0.003781  -0.000002
              7          8          9         10         11         12
     1  C    0.000597  -0.000277  -0.029380  -0.024983  -4.117425  -0.075653
     2  O   -0.000514   0.000338   0.006462   0.110525  -0.059698  -0.001852
     3  O   -0.000725  -0.001378   0.100709   0.006547  -0.235348   0.004224
     4  O   -0.042185  -0.041915   0.098140   0.074360   0.018337   0.000030
     5  C    0.395770   0.388483  -0.013960  -0.001894  -0.044824  -0.000229
     6  H   -0.033030  -0.030380   0.001227   0.001989   0.001539   0.000000
     7  H    0.507168  -0.025631  -0.003079   0.002215  -0.000391   0.000000
     8  H   -0.025631   0.504952   0.001815  -0.003799  -0.000048   0.000000
     9  H   -0.003079   0.001815   0.267158  -0.007590   0.024526  -0.000048
    10  H    0.002215  -0.003799  -0.007590   0.291322   0.019913  -0.000037
    11  C   -0.000391  -0.000048   0.024526   0.019913   9.670919   0.417900
    12  H    0.000000   0.000000  -0.000048  -0.000037   0.417900   0.465744
    13  H    0.000000   0.000000   0.000076  -0.000075   0.468453  -0.022766
    14  H    0.000000   0.000000  -0.000031   0.000011   0.262654  -0.024553
    15  C   -0.002424   0.001903  -0.007353  -0.000477   0.426070   0.002215
    16  H    0.000002  -0.000001   0.001400   0.000011   0.014824   0.000022
    17  H    0.000101   0.000007  -0.001834  -0.000016  -0.001070  -0.000001
    18  H    0.000025   0.000008   0.000083   0.000106   0.004027   0.000008
    19  F    0.000000   0.000000  -0.000542  -0.004447  -0.208434  -0.002288
             13         14         15         16         17         18
     1  C   -0.137935   0.091377  -0.586851  -0.022851   0.007505  -0.022459
     2  O    0.008646  -0.005935   0.014239  -0.001989  -0.000780   0.013894
     3  O   -0.001167  -0.001105  -0.037951  -0.038312  -0.042683  -0.082533
     4  O    0.000461  -0.000335   0.022466  -0.001101  -0.000111   0.000720
     5  C   -0.000292   0.000823  -0.029389   0.001442  -0.000975  -0.003676
     6  H   -0.000001   0.000005  -0.001555   0.000024  -0.000177   0.001133
     7  H    0.000000   0.000000  -0.002424   0.000002   0.000101   0.000025
     8  H    0.000000   0.000000   0.001903  -0.000001   0.000007   0.000008
     9  H    0.000076  -0.000031  -0.007353   0.001400  -0.001834   0.000083
    10  H   -0.000075   0.000011  -0.000477   0.000011  -0.000016   0.000106
    11  C    0.468453   0.262654   0.426070   0.014824  -0.001070   0.004027
    12  H   -0.022766  -0.024553   0.002215   0.000022  -0.000001   0.000008
    13  H    0.496387  -0.033921  -0.001553   0.001409   0.000039   0.000181
    14  H   -0.033921   0.488857  -0.005280  -0.001743   0.000042   0.000317
    15  C   -0.001553  -0.005280   5.384186   0.394864   0.383161   0.415838
    16  H    0.001409  -0.001743   0.394864   0.503775  -0.023963  -0.034680
    17  H    0.000039   0.000042   0.383161  -0.023963   0.511265  -0.031549
    18  H    0.000181   0.000317   0.415838  -0.034680  -0.031549   0.521581
    19  F   -0.002512   0.001231   0.007125   0.000052  -0.000021   0.000019
             19
     1  C    0.548465
     2  O   -0.039729
     3  O   -0.013713
     4  O    0.000767
     5  C   -0.003781
     6  H   -0.000002
     7  H    0.000000
     8  H    0.000000
     9  H   -0.000542
    10  H   -0.004447
    11  C   -0.208434
    12  H   -0.002288
    13  H   -0.002512
    14  H    0.001231
    15  C    0.007125
    16  H    0.000052
    17  H   -0.000021
    18  H    0.000019
    19  F    8.876568
 Mulliken atomic charges:
              1
     1  C    0.462106
     2  O   -0.633268
     3  O   -0.585891
     4  O   -0.709892
     5  C   -0.361005
     6  H    0.207029
     7  H    0.202101
     8  H    0.205923
     9  H    0.562223
    10  H    0.536318
    11  C   -0.661924
    12  H    0.237284
    13  H    0.224571
    14  H    0.227586
    15  C   -0.379235
    16  H    0.206817
    17  H    0.201061
    18  H    0.216956
    19  F   -0.158760
 Sum of Mulliken atomic charges =   0.00000
 Mulliken charges with hydrogens summed into heavy atoms:
              1
     1  C    0.462106
     2  O   -0.633268
     3  O   -0.023668
     4  O   -0.173574
     5  C    0.254048
    11  C    0.027517
    15  C    0.245599
    19  F   -0.158760
 Sum of Mulliken charges with hydrogens summed into heavy atoms =   0.00000
 APT atomic charges:
              1
     1  C    0.010431
     2  O   -0.600495
     3  O   -0.263316
     4  O   -0.359739
     5  C   -1.404482
     6  H    0.241361
     7  H    0.523652
     8  H    0.635942
     9  H    0.501098
    10  H    0.486568
    11  C   -1.304743
    12  H    0.634248
    13  H    0.497060
    14  H    0.431242
    15  C   -1.249852
    16  H    0.508167
    17  H    0.505663
    18  H    0.324417
    19  F   -0.117222
 Sum of APT charges=   0.00000
 APT Atomic charges with hydrogens summed into heavy atoms:
              1
     1  C    0.010431
     2  O   -0.600495
     3  O    0.237782
     4  O    0.126829
     5  C   -0.003526
     6  H    0.000000
     7  H    0.000000
     8  H    0.000000
     9  H    0.000000
    10  H    0.000000
    11  C    0.257806
    12  H    0.000000
    13  H    0.000000
    14  H    0.000000
    15  C    0.088395
    16  H    0.000000
    17  H    0.000000
    18  H    0.000000
    19  F   -0.117222
 Sum of APT charges=   0.00000
 Electronic spatial extent (au):  <R**2>=           1147.2267
 Charge=              0.0000 electrons
 Dipole moment (field-independent basis, Debye):
    X=             -1.1933    Y=              3.7434    Z=              1.1016  Tot=              4.0806
 Quadrupole moment (field-independent basis, Debye-Ang):
   XX=            -40.5496   YY=            -48.9231   ZZ=            -54.8118
   XY=              0.4360   XZ=             -0.1364   YZ=             -0.1574
 Traceless Quadrupole moment (field-independent basis, Debye-Ang):
   XX=              7.5452   YY=             -0.8283   ZZ=             -6.7170
   XY=              0.4360   XZ=             -0.1364   YZ=             -0.1574
 Octapole moment (field-independent basis, Debye-Ang**2):
  XXX=             -6.8028  YYY=             -0.4982  ZZZ=             -8.0132  XYY=             -1.7357
  XXY=             -0.6668  XXZ=              7.9506  XZZ=             -0.7769  YZZ=              1.4498
  YYZ=             -3.5018  XYZ=              2.5526
 Hexadecapole moment (field-independent basis, Debye-Ang**3):
 XXXX=           -828.8707 YYYY=           -367.2062 ZZZZ=           -193.5980 XXXY=             -9.6478
 XXXZ=            -14.1419 YYYX=             -0.1102 YYYZ=              0.7478 ZZZX=             -5.1597
 ZZZY=             10.7974 XXYY=           -207.0091 XXZZ=           -181.9519 YYZZ=            -96.4353
 XXYZ=            -14.0505 YYXZ=             -2.6480 ZZXY=             -3.0940
 N-N= 4.523329082244D+02 E-N=-2.041411346629D+03  KE= 4.798851018928D+02
  Exact polarizability:   0.000   0.000   0.000   0.000   0.000   0.000
 Approx polarizability:  96.512   2.105  89.801  -0.727  -3.633  85.408
   1 Symmetry operations used in ECPInt.
 ECPInt:  NShTT=    2016 NPrTT=    9755 LenC2=    2017 LenP2D=    9281.
 LDataN:  DoStor=T MaxTD1= 6 Len=  172
 Calling FoFJK, ICntrl=    100147 FMM=F ISym2X=0 I1Cent= 0 IOpClX= 0 NMat=1 NMatS=1 NMatT=0.
 ***** Axes restored to original set *****
 -------------------------------------------------------------------
 Center     Atomic                   Forces (Hartrees/Bohr)
 Number     Number              X              Y              Z
 -------------------------------------------------------------------
      1        6          -0.039192743   -0.005805720    0.001287725
      2        8           0.013330195   -0.012917072    0.033548118
      3        8          -0.024471051    0.031359792   -0.005087670
      4        8           0.015016522   -0.004938181    0.013980869
      5        6           0.000700851   -0.009465207   -0.010079734
      6        1          -0.001043199    0.000893349    0.000683625
      7        1          -0.001926682    0.000431027    0.004792191
      8        1          -0.001253681    0.004863619    0.001563262
      9        1           0.019303619   -0.013793994    0.006226457
     10        1          -0.006071944    0.030947984   -0.021900780
     11        6           0.013117826    0.004629033    0.007797084
     12        1          -0.006475808    0.001047552   -0.003046720
     13        1          -0.002842939   -0.002580213   -0.000172184
     14        1          -0.001749074   -0.001818418   -0.003213019
     15        6           0.003879161   -0.007859333   -0.011335055
     16        1          -0.003527464    0.003485809    0.002576253
     17        1           0.001061128    0.002956931    0.003589371
     18        1          -0.000687483    0.002206466    0.001177163
     19        9           0.022832768   -0.023643423   -0.022386954
 -------------------------------------------------------------------
 Cartesian Forces:  Max     0.039192743 RMS     0.012981158

 GradGradGradGradGradGradGradGradGradGradGradGradGradGradGradGradGradGrad
 Berny optimization.
 Internal  Forces:  Max     0.034747212 RMS     0.007895499
 Search for a saddle point.
 Step number   1 out of a maximum of   99
 All quantities printed in internal units (Hartrees-Bohrs-Radians)
 Swaping is turned off.
 Second derivative matrix not updated -- analytic derivatives used.
     Eigenvalues ---   -0.05153   0.00154   0.00187   0.00205   0.00274
     Eigenvalues ---    0.00354   0.00606   0.00842   0.01971   0.02726
     Eigenvalues ---    0.03409   0.04380   0.04521   0.05609   0.06434
     Eigenvalues ---    0.06510   0.06550   0.06601   0.06626   0.06969
     Eigenvalues ---    0.08055   0.09906   0.11552   0.12348   0.12882
     Eigenvalues ---    0.13678   0.13932   0.14637   0.15542   0.15928
     Eigenvalues ---    0.18093   0.18633   0.18691   0.18822   0.19054
     Eigenvalues ---    0.19655   0.20399   0.31133   0.32645   0.33018
     Eigenvalues ---    0.33481   0.33518   0.33793   0.33869   0.33943
     Eigenvalues ---    0.34080   0.34130   0.36136   0.36560   0.37809
     Eigenvalues ---    0.617101000.000001000.000001000.000001000.00000
     Eigenvalues --- 1000.000001000.000001000.000001000.000001000.00000
     Eigenvalues --- 1000.000001000.000001000.000001000.000001000.00000
     Eigenvalues --- 1000.000001000.000001000.000001000.000001000.00000
     Eigenvalues --- 1000.000001000.000001000.000001000.000001000.00000
     Eigenvalues --- 1000.000001000.000001000.000001000.000001000.00000
     Eigenvalues --- 1000.000001000.000001000.000001000.000001000.00000
     Eigenvalues --- 1000.000001000.000001000.000001000.00000
 Eigenvectors required to have negative eigenvalues:
                          R9        R6        R5        R2        R10
   1                    0.60072  -0.54236   0.38285   0.28994  -0.21968
                          R1        D2        D17       A21       D16
   1                   -0.08051  -0.06950  -0.06932  -0.06650  -0.06601
 RFO step:  Lambda0=2.235086877D-03 Lambda=-2.80475198D-02.
 Linear search not attempted -- option 19 set.
 Maximum step size (   0.300) exceeded in Quadratic search.
    -- Step size scaled by   0.616
 Iteration  1 RMS(Cart)=  0.04586526 RMS(Int)=  0.00144167
 Iteration  2 RMS(Cart)=  0.00253349 RMS(Int)=  0.00058753
 Iteration  3 RMS(Cart)=  0.00000176 RMS(Int)=  0.00058753
 Iteration  4 RMS(Cart)=  0.00000000 RMS(Int)=  0.00058753
 Variable       Old X    -DE/DX   Delta X   Delta X   Delta X     New X
                                 (Linear)    (Quad)   (Total)
    R1        2.39516   0.00320   0.00000   0.00440   0.00472   2.39988
    R2        3.10569   0.02117   0.00000   0.02332   0.02260   3.12830
    R3        2.83594   0.00273   0.00000   0.01028   0.01028   2.84623
    R4        2.57046   0.03475   0.00000   0.04162   0.04162   2.61209
    R5        2.86329  -0.00025   0.00000  -0.05850  -0.05745   2.80584
    R6        2.36230  -0.01927   0.00000   0.00553   0.00466   2.36696
    R7        2.73201  -0.00099   0.00000  -0.01749  -0.01749   2.71451
    R8        2.73770  -0.00077   0.00000  -0.00759  -0.00759   2.73011
    R9        2.47025  -0.00830   0.00000  -0.14421  -0.14477   2.32548
   R10        2.10247  -0.02092   0.00000  -0.04204  -0.04114   2.06133
   R11        2.06777   0.00049   0.00000   0.00148   0.00148   2.06925
   R12        2.06918  -0.00164   0.00000  -0.00292  -0.00292   2.06626
   R13        2.07263  -0.00223   0.00000  -0.00441  -0.00441   2.06822
   R14        2.08607  -0.00564   0.00000  -0.01014  -0.01014   2.07593
   R15        2.07572  -0.00268   0.00000  -0.00526  -0.00526   2.07045
   R16        2.07541  -0.00334   0.00000  -0.00616  -0.00616   2.06925
   R17        2.07037  -0.00200   0.00000  -0.00177  -0.00177   2.06860
   R18        2.06940  -0.00109   0.00000  -0.00053  -0.00053   2.06887
   R19        2.06831   0.00116   0.00000   0.00392   0.00392   2.07224
    A1        1.80390   0.00850   0.00000   0.04480   0.04459   1.84849
    A2        2.14658  -0.00939   0.00000  -0.03081  -0.03036   2.11622
    A3        1.95052   0.01190   0.00000   0.02216   0.02013   1.97066
    A4        1.90851  -0.00503   0.00000  -0.01448  -0.01446   1.89405
    A5        1.59834   0.01010   0.00000   0.02733   0.02703   1.62536
    A6        1.96470  -0.00949   0.00000  -0.02584  -0.02594   1.93876
    A7        2.01334  -0.02433   0.00000  -0.11406  -0.11377   1.89957
    A8        1.77834  -0.01327   0.00000  -0.04382  -0.04486   1.73348
    A9        2.01624   0.00880   0.00000   0.01332   0.01416   2.03039
   A10        1.86656   0.00746   0.00000   0.03809   0.03812   1.90468
   A11        1.92455   0.00527   0.00000   0.04028   0.03936   1.96391
   A12        1.88985  -0.00038   0.00000   0.01631   0.01655   1.90640
   A13        1.61251  -0.00046   0.00000  -0.03295  -0.03269   1.57981
   A14        1.93341  -0.00034   0.00000   0.00000  -0.00002   1.93339
   A15        1.84583   0.00635   0.00000   0.02048   0.02038   1.86621
   A16        1.86602   0.00632   0.00000   0.01392   0.01383   1.87985
   A17        1.95369  -0.00370   0.00000  -0.01310  -0.01312   1.94057
   A18        1.93382  -0.00328   0.00000  -0.00925  -0.00927   1.92455
   A19        1.92724  -0.00447   0.00000  -0.00955  -0.00975   1.91749
   A20        2.70759   0.00740   0.00000   0.02827   0.02738   2.73498
   A21        2.34867   0.01652   0.00000   0.11182   0.11412   2.46280
   A22        1.91906  -0.00561   0.00000  -0.02219  -0.02232   1.89675
   A23        1.96957  -0.00225   0.00000  -0.01007  -0.01016   1.95941
   A24        1.94169  -0.00139   0.00000  -0.00639  -0.00643   1.93526
   A25        1.86965   0.00354   0.00000   0.01303   0.01287   1.88252
   A26        1.85804   0.00369   0.00000   0.01576   0.01568   1.87373
   A27        1.90113   0.00257   0.00000   0.01222   0.01221   1.91334
   A28        1.86650   0.00694   0.00000   0.02514   0.02494   1.89144
   A29        1.85376   0.00554   0.00000   0.01532   0.01517   1.86892
   A30        1.92832   0.00089   0.00000   0.00855   0.00844   1.93676
   A31        1.91987  -0.00446   0.00000  -0.01237  -0.01264   1.90724
   A32        1.94223  -0.00388   0.00000  -0.01517  -0.01533   1.92691
   A33        1.94935  -0.00413   0.00000  -0.01816  -0.01821   1.93114
    D1        0.76186   0.00125   0.00000  -0.01807  -0.01688   0.74498
    D2        2.92719  -0.00455   0.00000  -0.01833  -0.01782   2.90937
    D3       -0.93449  -0.01712   0.00000  -0.07433  -0.07439  -1.00888
    D4       -0.48799  -0.01302   0.00000  -0.05394  -0.05310  -0.54109
    D5        1.52798  -0.00837   0.00000  -0.02967  -0.02951   1.49847
    D6       -2.80179  -0.00404   0.00000  -0.03751  -0.03680  -2.83859
    D7       -0.78583   0.00062   0.00000  -0.01325  -0.01320  -0.79903
    D8        1.48089   0.00312   0.00000  -0.01782  -0.01668   1.46422
    D9       -2.78633   0.00778   0.00000   0.00645   0.00692  -2.77940
   D10        1.32755  -0.00148   0.00000  -0.02514  -0.02507   1.30248
   D11       -2.86945  -0.00233   0.00000  -0.03054  -0.03041  -2.89986
   D12       -0.72642  -0.00165   0.00000  -0.02673  -0.02665  -0.75307
   D13       -2.83816  -0.00171   0.00000   0.00040   0.00044  -2.83772
   D14       -0.75198  -0.00257   0.00000  -0.00500  -0.00490  -0.75688
   D15        1.39105  -0.00189   0.00000  -0.00118  -0.00114   1.38991
   D16       -1.08886   0.00352   0.00000   0.01408   0.01391  -1.07495
   D17        0.99732   0.00266   0.00000   0.00868   0.00857   1.00589
   D18        3.14035   0.00334   0.00000   0.01249   0.01233  -3.13051
   D19       -0.86565  -0.00138   0.00000   0.02479   0.02289  -0.84275
   D20        0.04823   0.00448   0.00000   0.02423   0.02423   0.07246
   D21       -2.07464  -0.00226   0.00000   0.01395   0.01448  -2.06016
   D22        1.30621   0.00315   0.00000   0.00909   0.00935   1.31556
   D23       -2.92713   0.00413   0.00000   0.01462   0.01502  -2.91211
   D24       -0.81008   0.00304   0.00000   0.00692   0.00720  -0.80288
   D25       -3.01186  -0.00368   0.00000  -0.01316  -0.01352  -3.02538
   D26       -0.96201  -0.00271   0.00000  -0.00762  -0.00785  -0.96986
   D27        1.15504  -0.00380   0.00000  -0.01532  -0.01568   1.13936
   D28       -0.90731  -0.00060   0.00000   0.00559   0.00538  -0.90193
   D29        1.21298  -0.00134   0.00000   0.00241   0.00213   1.21511
   D30       -3.01602  -0.00034   0.00000   0.00816   0.00803  -3.00799
   D31        0.83310   0.00081   0.00000  -0.00883  -0.00863   0.82447
   D32        2.95339   0.00007   0.00000  -0.01201  -0.01187   2.94152
   D33       -1.27561   0.00107   0.00000  -0.00626  -0.00597  -1.28158
   D34        1.99215   0.00259   0.00000   0.02877   0.02818   2.02033
   D35        0.06370   0.00222   0.00000   0.01728   0.01725   0.08096
   D36       -1.64399  -0.00160   0.00000  -0.03026  -0.03096  -1.67495
   D37        0.31545   0.00379   0.00000   0.00339   0.00160   0.31705
         Item               Value     Threshold  Converged?
 Maximum Force            0.034747     0.000450     NO 
 RMS     Force            0.007895     0.000300     NO 
 Maximum Displacement     0.160142     0.001800     NO 
 RMS     Displacement     0.045807     0.001200     NO 
 Predicted change in Energy=-1.201610D-02
 GradGradGradGradGradGradGradGradGradGradGradGradGradGradGradGradGradGrad

                          Input orientation:                          
 ---------------------------------------------------------------------
 Center     Atomic      Atomic             Coordinates (Angstroms)
 Number     Number       Type             X           Y           Z
 ---------------------------------------------------------------------
      1          6           0        1.014339   -0.450366    0.165166
      2          8           0        0.160437   -0.929543    0.973897
      3          8           0        0.216939    0.714887   -0.698989
      4          8           0       -1.814806   -0.588737   -0.403746
      5          6           0       -2.870461    0.003935    0.384626
      6          1           0       -2.458495    0.532798    1.250428
      7          1           0       -3.414231    0.686989   -0.273644
      8          1           0       -3.533428   -0.802513    0.713178
      9          1           0       -0.933329    0.219186   -0.694633
     10          1           0       -1.126263   -1.117029    0.257068
     11          6           0        2.317411    0.124760    0.654802
     12          1           0        2.978992   -0.702003    0.947299
     13          1           0        2.830145    0.708145   -0.117975
     14          1           0        2.160509    0.747115    1.541977
     15          6           0        0.167709    2.023781   -0.109256
     16          1           0        1.150023    2.492314   -0.226770
     17          1           0       -0.576840    2.600304   -0.667697
     18          1           0       -0.103968    1.966247    0.951579
     19          9           0        1.209532   -1.248312   -0.946505
 ---------------------------------------------------------------------
                    Distance matrix (angstroms):
                    1          2          3          4          5
     1  C    0.000000
     2  O    1.269963   0.000000
     3  O    1.655423   2.346464   0.000000
     4  O    2.889095   2.432208   2.431994   0.000000
     5  C    3.917426   3.225673   3.348390   1.444714   0.000000
     6  H    3.768950   3.012261   3.315318   2.099636   1.095001
     7  H    4.593295   4.116769   3.656104   2.050015   1.093420
     8  H    4.594182   3.705232   4.285087   2.060796   1.094454
     9  H    2.231808   2.302150   1.252540   1.230592   2.227917
    10  H    2.243894   1.484787   2.464580   1.090807   2.077272
    11  C    1.506158   2.421965   2.567680   4.324907   5.196308
    12  H    2.129534   2.827850   3.513798   4.981832   5.918704
    13  H    2.172434   3.316859   2.677025   4.831060   5.765885
    14  H    2.154826   2.670990   2.966552   4.623145   5.215596
    15  C    2.629353   3.145695   1.436458   3.292771   3.681600
    16  H    2.971766   3.758988   2.062252   4.279534   4.767612
    17  H    3.540071   3.962099   2.045938   3.431065   3.620665
    18  H    2.776522   2.907921   2.096010   3.360329   3.438835
    19  F    1.382256   2.211371   2.213742   3.142650   4.470612
                    6          7          8          9         10
     6  H    0.000000
     7  H    1.805548   0.000000
     8  H    1.796433   1.790709   0.000000
     9  H    2.491536   2.559482   3.128309   0.000000
    10  H    2.341695   2.961576   2.470101   1.651795   0.000000
    11  C    4.830171   5.833510   5.924151   3.520966   3.682271
    12  H    5.584164   6.655321   6.517402   4.341749   4.183513
    13  H    5.465619   6.246352   6.593024   3.838665   4.373223
    14  H    4.633156   5.863261   5.958958   3.853955   3.991102
    15  C    3.311906   3.826791   4.728927   2.193517   3.416613
    16  H    4.363854   4.908544   5.802939   3.118712   4.294523
    17  H    3.390341   3.444828   4.714593   2.407807   3.869834
    18  H    2.772704   3.754399   4.414075   2.539700   3.321749
    19  F    4.631770   5.057402   5.044695   2.609376   2.630924
                   11         12         13         14         15
    11  C    0.000000
    12  H    1.098536   0.000000
    13  H    1.095636   1.773551   0.000000
    14  H    1.094999   1.767342   1.790355   0.000000
    15  C    2.968381   4.055801   2.969771   2.885775   0.000000
    16  H    2.783034   3.863578   2.453142   2.682400   1.094656
    17  H    4.031626   5.114429   3.935734   3.976185   1.094800
    18  H    3.056506   4.077281   3.366866   2.638695   1.096581
    19  F    2.382626   2.648762   2.672185   3.328458   3.534540
                   16         17         18         19
    16  H    0.000000
    17  H    1.785534   0.000000
    18  H    1.799374   1.802135   0.000000
    19  F    3.809704   4.252141   3.957448   0.000000
 Stoichiometry    C4H11FO3
 Framework group  C1[X(C4H11FO3)]
 Deg. of freedom    51
 Full point group                 C1      NOp   1
 Largest Abelian subgroup         C1      NOp   1
 Largest concise Abelian subgroup C1      NOp   1
                         Standard orientation:                         
 ---------------------------------------------------------------------
 Center     Atomic      Atomic             Coordinates (Angstroms)
 Number     Number       Type             X           Y           Z
 ---------------------------------------------------------------------
      1          6           0        1.017422   -0.440135    0.145885
      2          8           0        0.171220   -0.938038    0.951392
      3          8           0        0.205232    0.727538   -0.701059
      4          8           0       -1.812095   -0.600385   -0.415389
      5          6           0       -2.871036   -0.028391    0.383776
      6          1           0       -2.461525    0.493866    1.254738
      7          1           0       -3.423989    0.657184   -0.264140
      8          1           0       -3.524618   -0.845603    0.704439
      9          1           0       -0.939901    0.220070   -0.699090
     10          1           0       -1.115945   -1.129768    0.236523
     11          6           0        2.316229    0.142175    0.638353
     12          1           0        2.987202   -0.681341    0.918349
     13          1           0        2.820342    0.740333   -0.128781
     14          1           0        2.156025    0.751823    1.533723
     15          6           0        0.144676    2.028433   -0.094909
     16          1           0        1.121753    2.508422   -0.209811
     17          1           0       -0.607618    2.604195   -0.643670
     18          1           0       -0.122771    1.954947    0.966016
     19          9           0        1.216937   -1.222170   -0.976276
 ---------------------------------------------------------------------
 Rotational constants (GHZ):      2.7068989      1.3620462      1.1407336
 Basis read from rwf:  (5D, 7F)
 Pseudo-potential data read from rwf file.
 There are   162 symmetry adapted basis functions of A   symmetry.
 Integral buffers will be    262144 words long.
 Raffenetti 2 integral format.
 Two-electron integral symmetry is turned on.
   162 basis functions,   289 primitive gaussians,   170 cartesian basis functions
    34 alpha electrons       34 beta electrons
       nuclear repulsion energy       452.2292680075 Hartrees.
 NAtoms=   19 NActive=   19 NUniq=   19 SFac= 7.50D-01 NAtFMM=   80 NAOKFM=F Big=F
 One-electron integrals computed using PRISM.
   1 Symmetry operations used in ECPInt.
 ECPInt:  NShTT=    2016 NPrTT=    9755 LenC2=    1991 LenP2D=    7023.
 LDataN:  DoStor=T MaxTD1= 4 Len=   56
 NBasis=   162 RedAO= T  NBF=   162
 NBsUse=   162 1.00D-06 NBFU=   162
 Initial guess read from the read-write file.
 B after Tr=     0.000000    0.000000    0.000000
         Rot=    1.000000    0.000000    0.000000    0.000000 Ang=   0.00 deg.
 Initial guess orbital symmetries:
       Occupied  (A) (A) (A) (A) (A) (A) (A) (A) (A) (A) (A) (A)
                 (A) (A) (A) (A) (A) (A) (A) (A) (A) (A) (A) (A)
                 (A) (A) (A) (A) (A) (A) (A) (A) (A) (A)
       Virtual   (A) (A) (A) (A) (A) (A) (A) (A) (A) (A) (A) (A)
                 (A) (A) (A) (A) (A) (A) (A) (A) (A) (A) (A) (A)
                 (A) (A) (A) (A) (A) (A) (A) (A) (A) (A) (A) (A)
                 (A) (A) (A) (A) (A) (A) (A) (A) (A) (A) (A) (A)
                 (A) (A) (A) (A) (A) (A) (A) (A) (A) (A) (A) (A)
                 (A) (A) (A) (A) (A) (A) (A) (A) (A) (A) (A) (A)
                 (A) (A) (A) (A) (A) (A) (A) (A) (A) (A) (A) (A)
                 (A) (A) (A) (A) (A) (A) (A) (A) (A) (A) (A) (A)
                 (A) (A) (A) (A) (A) (A) (A) (A) (A) (A) (A) (A)
                 (A) (A) (A) (A) (A) (A) (A) (A) (A) (A) (A) (A)
                 (A) (A) (A) (A) (A) (A) (A) (A)
 Harris functional with IExCor=  402 diagonalized for initial guess.
 ExpMin= 4.38D-02 ExpMax= 5.48D+03 ExpMxC= 8.25D+02 IAcc=2 IRadAn=         0 AccDes= 0.00D+00
 HarFok:  IExCor=  402 AccDes= 0.00D+00 IRadAn=         0 IDoV= 1
 ScaDFX=  1.000000  1.000000  1.000000  1.000000
 FoFCou: FMM=F IPFlag=           0 FMFlag=      100000 FMFlg1=           0
         NFxFlg=           0 DoJE=T BraDBF=F KetDBF=T FulRan=T
         Omega=  0.000000  0.000000  1.000000  0.000000  0.000000 ICntrl=     500 IOpCl=  0
         NMat0=    1 NMatS0=    1 NMatT0=    0 NMatD0=    1 NMtDS0=    0 NMtDT0=    0
         I1Cent=           4 NGrid=           0.
 Petite list used in FoFCou.
 Requested convergence on RMS density matrix=1.00D-08 within 128 cycles.
 Requested convergence on MAX density matrix=1.00D-06.
 Requested convergence on             energy=1.00D-06.
 No special actions if energy rises.
 SCF Done:  E(RB3LYP) =  -483.985573092     A.U. after   12 cycles
             Convg  =    0.7993D-08             -V/T =  2.0085
   1 Symmetry operations used in ECPInt.
 ECPInt:  NShTT=    2016 NPrTT=    9755 LenC2=    1991 LenP2D=    7023.
 LDataN:  DoStor=T MaxTD1= 5 Len=  102
 Calling FoFJK, ICntrl=      2127 FMM=F ISym2X=0 I1Cent= 0 IOpClX= 0 NMat=1 NMatS=1 NMatT=0.
 ***** Axes restored to original set *****
 -------------------------------------------------------------------
 Center     Atomic                   Forces (Hartrees/Bohr)
 Number     Number              X              Y              Z
 -------------------------------------------------------------------
      1        6          -0.020152929   -0.003537609    0.001493759
      2        8           0.007282661   -0.007574071    0.015256025
      3        8          -0.010961955    0.016734273   -0.003200293
      4        8           0.005084881   -0.003301391    0.006614123
      5        6           0.000485872   -0.004995502   -0.005133261
      6        1          -0.000612543    0.000423895    0.000310286
      7        1          -0.000924579    0.000317431    0.002255637
      8        1          -0.000745617    0.002221425    0.000755663
      9        1           0.010483221   -0.006078622    0.002204300
     10        1          -0.002584041    0.016239639   -0.009059293
     11        6           0.006535738    0.002323384    0.002941197
     12        1          -0.003017712    0.000353269   -0.001199316
     13        1          -0.001159000   -0.001393766   -0.000199421
     14        1          -0.000971072   -0.000624404   -0.001506237
     15        6           0.001956800   -0.004470998   -0.005089745
     16        1          -0.001574211    0.001770627    0.001358933
     17        1           0.000420443    0.001490153    0.001777043
     18        1          -0.000406857    0.001250703    0.000572240
     19        9           0.010860898   -0.011148435   -0.010151641
 -------------------------------------------------------------------
 Cartesian Forces:  Max     0.020152929 RMS     0.006363161

 GradGradGradGradGradGradGradGradGradGradGradGradGradGradGradGradGradGrad
 Berny optimization.
 Internal  Forces:  Max     0.016133066 RMS     0.003796781
 Search for a saddle point.
 Step number   2 out of a maximum of   99
 All quantities printed in internal units (Hartrees-Bohrs-Radians)
 Swaping is turned off.
 Update second derivatives using D2CorX and points    1    2
     Eigenvalues ---   -0.04836   0.00151   0.00173   0.00205   0.00260
     Eigenvalues ---    0.00354   0.00597   0.00860   0.01970   0.02730
     Eigenvalues ---    0.03415   0.04378   0.04520   0.05643   0.06434
     Eigenvalues ---    0.06519   0.06553   0.06596   0.06627   0.07000
     Eigenvalues ---    0.08251   0.09861   0.11763   0.12343   0.13110
     Eigenvalues ---    0.13674   0.13927   0.14631   0.15548   0.15765
     Eigenvalues ---    0.18049   0.18631   0.18706   0.18798   0.19050
     Eigenvalues ---    0.19639   0.20609   0.31121   0.32644   0.33016
     Eigenvalues ---    0.33478   0.33518   0.33793   0.33869   0.33942
     Eigenvalues ---    0.34080   0.34130   0.36135   0.36559   0.37684
     Eigenvalues ---    0.616961000.000001000.000001000.000001000.00000
     Eigenvalues --- 1000.000001000.000001000.000001000.000001000.00000
     Eigenvalues --- 1000.000001000.000001000.000001000.000001000.00000
     Eigenvalues --- 1000.000001000.000001000.000001000.000001000.00000
     Eigenvalues --- 1000.000001000.000001000.000001000.000001000.00000
     Eigenvalues --- 1000.000001000.000001000.000001000.000001000.00000
     Eigenvalues --- 1000.000001000.000001000.000001000.000001000.00000
     Eigenvalues --- 1000.000001000.000001000.000001000.00000
 Eigenvectors required to have negative eigenvalues:
                          R9        R6        R5        R2        R10
   1                    0.57650  -0.55782   0.39076   0.28979  -0.23273
                          R1        D2        D17       D16       D12
   1                   -0.08011  -0.07598  -0.07037  -0.06648   0.06339
 RFO step:  Lambda0=8.792389761D-04 Lambda=-8.55432518D-03.
 Linear search not attempted -- option 19 set.
 Maximum step size (   0.300) exceeded in Quadratic search.
    -- Step size scaled by   0.688
 Iteration  1 RMS(Cart)=  0.06236011 RMS(Int)=  0.00294117
 Iteration  2 RMS(Cart)=  0.00438746 RMS(Int)=  0.00076484
 Iteration  3 RMS(Cart)=  0.00003066 RMS(Int)=  0.00076461
 Iteration  4 RMS(Cart)=  0.00000004 RMS(Int)=  0.00076461
 Variable       Old X    -DE/DX   Delta X   Delta X   Delta X     New X
                                 (Linear)    (Quad)   (Total)
    R1        2.39988   0.00182   0.00000   0.00633   0.00659   2.40647
    R2        3.12830   0.01099   0.00000   0.01448   0.01375   3.14205
    R3        2.84623   0.00146   0.00000   0.00606   0.00606   2.85229
    R4        2.61209   0.01613   0.00000   0.02274   0.02274   2.63483
    R5        2.80584   0.00031   0.00000  -0.10682  -0.10621   2.69963
    R6        2.36696  -0.00845   0.00000   0.00135   0.00089   2.36785
    R7        2.71451  -0.00055   0.00000  -0.00929  -0.00929   2.70523
    R8        2.73011  -0.00051   0.00000  -0.00968  -0.00968   2.72043
    R9        2.32548  -0.00206   0.00000  -0.05579  -0.05596   2.26952
   R10        2.06133  -0.00914   0.00000   0.00478   0.00550   2.06682
   R11        2.06925   0.00022   0.00000   0.00218   0.00218   2.07143
   R12        2.06626  -0.00070   0.00000  -0.00088  -0.00088   2.06538
   R13        2.06822  -0.00096   0.00000  -0.00171  -0.00171   2.06651
   R14        2.07593  -0.00240   0.00000  -0.00508  -0.00508   2.07085
   R15        2.07045  -0.00115   0.00000  -0.00296  -0.00296   2.06749
   R16        2.06925  -0.00144   0.00000  -0.00334  -0.00334   2.06591
   R17        2.06860  -0.00080   0.00000  -0.00076  -0.00076   2.06784
   R18        2.06887  -0.00041   0.00000  -0.00016  -0.00016   2.06871
   R19        2.07224   0.00059   0.00000   0.00223   0.00223   2.07447
    A1        1.84849   0.00439   0.00000   0.03073   0.02951   1.87800
    A2        2.11622  -0.00410   0.00000  -0.01702  -0.01611   2.10011
    A3        1.97066   0.00508   0.00000   0.00957   0.00850   1.97916
    A4        1.89405  -0.00288   0.00000  -0.01196  -0.01164   1.88242
    A5        1.62536   0.00486   0.00000   0.01822   0.01843   1.64379
    A6        1.93876  -0.00479   0.00000  -0.01764  -0.01788   1.92087
    A7        1.89957  -0.01167   0.00000  -0.07253  -0.07471   1.82486
    A8        1.73348  -0.00682   0.00000  -0.03214  -0.03298   1.70050
    A9        2.03039   0.00398   0.00000  -0.00304  -0.00337   2.02702
   A10        1.90468   0.00409   0.00000   0.02169   0.02168   1.92635
   A11        1.96391   0.00289   0.00000   0.03550   0.03439   1.99830
   A12        1.90640   0.00021   0.00000   0.02513   0.02676   1.93316
   A13        1.57981  -0.00077   0.00000  -0.03585  -0.03617   1.54364
   A14        1.93339  -0.00009   0.00000   0.00452   0.00449   1.93788
   A15        1.86621   0.00294   0.00000   0.01489   0.01483   1.88104
   A16        1.87985   0.00294   0.00000   0.00937   0.00931   1.88916
   A17        1.94057  -0.00184   0.00000  -0.01280  -0.01283   1.92774
   A18        1.92455  -0.00160   0.00000  -0.00857  -0.00859   1.91596
   A19        1.91749  -0.00210   0.00000  -0.00611  -0.00622   1.91127
   A20        2.73498   0.00312   0.00000  -0.00126  -0.00255   2.73243
   A21        2.46280   0.00931   0.00000   0.11709   0.11837   2.58116
   A22        1.89675  -0.00281   0.00000  -0.01454  -0.01460   1.88215
   A23        1.95941  -0.00107   0.00000  -0.00881  -0.00885   1.95056
   A24        1.93526  -0.00073   0.00000  -0.00251  -0.00253   1.93274
   A25        1.88252   0.00165   0.00000   0.00837   0.00828   1.89080
   A26        1.87373   0.00183   0.00000   0.00967   0.00965   1.88338
   A27        1.91334   0.00129   0.00000   0.00871   0.00871   1.92205
   A28        1.89144   0.00337   0.00000   0.01469   0.01462   1.90607
   A29        1.86892   0.00262   0.00000   0.00894   0.00889   1.87781
   A30        1.93676   0.00057   0.00000   0.00457   0.00454   1.94130
   A31        1.90724  -0.00220   0.00000  -0.00657  -0.00667   1.90057
   A32        1.92691  -0.00200   0.00000  -0.00857  -0.00862   1.91829
   A33        1.93114  -0.00216   0.00000  -0.01218  -0.01219   1.91895
    D1        0.74498   0.00076   0.00000  -0.00574  -0.00482   0.74015
    D2        2.90937  -0.00228   0.00000  -0.00679  -0.00615   2.90322
    D3       -1.00888  -0.00879   0.00000  -0.04498  -0.04423  -1.05311
    D4       -0.54109  -0.00642   0.00000  -0.05932  -0.05842  -0.59951
    D5        1.49847  -0.00414   0.00000  -0.05517  -0.05474   1.44373
    D6       -2.83859  -0.00240   0.00000  -0.05142  -0.05086  -2.88945
    D7       -0.79903  -0.00012   0.00000  -0.04726  -0.04717  -0.84620
    D8        1.46422   0.00145   0.00000  -0.03709  -0.03631   1.42791
    D9       -2.77940   0.00372   0.00000  -0.03294  -0.03263  -2.81203
   D10        1.30248  -0.00099   0.00000  -0.02978  -0.02945   1.27303
   D11       -2.89986  -0.00146   0.00000  -0.03437  -0.03399  -2.93385
   D12       -0.75307  -0.00109   0.00000  -0.03125  -0.03090  -0.78398
   D13       -2.83772  -0.00074   0.00000  -0.01106  -0.01147  -2.84919
   D14       -0.75688  -0.00120   0.00000  -0.01565  -0.01601  -0.77288
[...]
 02021271,-0.03676597,-0.06196699,-0.00392836,0.00183993,0.03185109,0.0
 0741495,0.01765790,-0.01921700,-0.02032816,0.24855018,-0.00376346,-0.0
 0031655,0.00204241,0.00886696,0.00014035,0.00068215,0.00901248,0.00428
 179,-0.00011547,-0.17094083,0.04423990,0.04046392,0.49559403,0.0015555
 9,-0.00190853,0.00157785,-0.00170219,0.00109542,-0.00078048,-0.0111347
 4,-0.00934139,-0.00126199,0.04952194,-0.10302874,-0.00687536,0.0464872
 4,0.58098667,0.00221631,0.00205493,-0.00460084,-0.01150232,-0.00181654
 ,-0.00516949,-0.00222244,-0.00188072,0.00106963,0.05360021,-0.01181961
 ,-0.10747025,0.05014920,-0.03394262,0.58294405,-0.00003310,0.00022727,
 0.00074112,-0.00001903,-0.00050291,-0.00054204,-0.00067532,-0.00049580
 ,-0.00040598,-0.00578270,0.02692812,0.02941275,-0.06587444,-0.04205175
 ,-0.04734258,0.07107157,-0.00023325,0.00025653,-0.00075577,0.00059887,
 0.00003974,0.00111581,0.00158315,0.00077101,0.00009310,0.00974908,-0.0
 0652237,-0.01035511,-0.03846947,-0.16120383,-0.11856212,0.03520409,0.1
 7087257,-0.00035233,-0.00091339,0.00071813,0.00178704,0.00028687,0.000
 30354,0.00096559,0.00144111,-0.00008359,0.01002183,-0.00943545,-0.0073
 1501,-0.04307985,-0.11914682,-0.19016517,0.03946877,0.13760917,0.20323
 126,0.00102609,0.00116726,-0.00215825,-0.00405627,-0.00080899,-0.00123
 826,-0.00028894,-0.00108825,0.00060719,-0.02971939,0.02055588,-0.02018
 325,-0.10732990,0.05119347,-0.09447491,-0.00161445,0.00223431,-0.00613
 964,0.12726399,-0.00051471,-0.00015597,0.00073071,0.00187906,0.0002418
 8,0.00074200,0.00052824,0.00032577,0.00002490,0.01363409,-0.00613028,0
 .00741872,0.05403775,-0.10500639,0.08915747,-0.01134315,0.01201963,-0.
 01638675,-0.06761285,0.10868471,0.00001725,-0.00014148,0.00036960,0.00
 123435,0.00020414,0.00082283,-0.00043516,-0.00017049,-0.00011806,0.012
 17516,-0.01063029,0.01650080,-0.10283073,0.09442007,-0.21270749,-0.009
 85358,0.01125689,-0.01560140,0.10404352,-0.09787019,0.21972116,0.00080
 902,-0.00123986,0.00088313,-0.00036064,0.00056819,-0.00092297,-0.00379
 689,-0.00245509,-0.00053303,-0.03205922,-0.01882868,0.01900972,-0.1191
 9961,-0.10717564,0.04327053,-0.00172336,-0.00660057,0.00157398,0.01135
 474,0.01244390,-0.00507210,0.14067684,0.00000379,0.00013778,-0.0001773
 6,-0.00029891,-0.00006922,-0.00000086,0.00150374,0.00129424,0.00005186
 ,0.01348760,0.01712001,-0.00910845,-0.11530959,-0.22078284,0.07598902,
 -0.00963512,-0.01445558,0.00786713,-0.00710700,-0.00954595,0.00323975,
 0.11733301,0.22837959,-0.00043153,0.00034083,-0.00001691,0.00045993,0.
 00006204,0.00013223,0.00186505,0.00140273,0.00004498,0.01497696,0.0081
 0378,-0.00532119,0.04521398,0.07114068,-0.08444562,-0.01349930,-0.0192
 3591,0.01060777,0.01321551,0.01980777,-0.00704586,-0.05864232,-0.07786
 516,0.08616567,-0.01787837,0.04084401,-0.03698555,-0.02805863,-0.01390
 626,0.01021632,0.00412017,0.01604834,0.01215815,-0.02645788,0.01935147
 ,-0.02067763,-0.02286510,0.00548472,0.00837636,0.00258574,-0.00237200,
 -0.00203926,0.00091213,-0.00135316,0.00023378,0.00438679,-0.00021093,-
 0.00231197,0.02344062,0.01058585,0.03694182,-0.01795822,-0.01964628,-0
 .00899226,0.00498876,0.04397459,-0.02891310,0.00856911,-0.00011287,-0.
 06551033,0.00404749,-0.00122424,0.02376361,-0.00429975,0.00194617,-0.0
 0145189,-0.00227030,0.00112515,-0.00039573,0.00060966,0.00694799,-0.00
 235817,-0.00320998,-0.05035870,0.08946767,-0.01469491,-0.00758717,0.01
 101297,0.00928871,0.00054698,-0.00228423,0.00312030,0.00051540,-0.0332
 7720,-0.00320999,-0.00089301,-0.03073746,0.00754878,0.00044259,-0.0053
 9011,0.00039389,0.00092589,-0.00008193,-0.00139766,0.00006214,0.000463
 91,-0.00083335,-0.00043033,0.00048019,0.00966063,-0.01406594,0.0815017
 0,-0.03374059,-0.03246456,0.05548255,0.04265564,0.01438145,0.00353251,
 -0.02583761,0.00718049,-0.01201676,-0.06183128,-0.00303694,-0.00488298
 ,-0.02510277,0.01026994,-0.00167173,0.00271350,-0.00164142,-0.00250992
 ,0.00280319,-0.00189632,0.00057959,0.00072474,0.00010750,-0.00116915,0
 .04404196,0.01540481,0.00129600,0.04797814,-0.00819471,0.00460120,-0.0
 0897610,-0.00678509,-0.02589737,0.00185896,0.00483603,0.00123323,-0.00
 093657,0.01389834,-0.04033675,0.01542833,0.00913039,-0.00579959,0.0036
 3402,0.00002889,0.00005727,0.00107726,0.00024727,0.00011329,-0.0009692
 7,-0.00148240,0.00051154,-0.00010836,-0.00068646,-0.01555531,0.0242530
 1,-0.00939025,0.08286422,0.00493969,-0.01415799,0.04803559,0.03434356,
 0.00945231,-0.03542687,-0.01607310,0.00458053,-0.00847897,-0.03732885,
 0.02447535,-0.10715468,0.00145761,-0.00591310,0.02371767,0.00187691,-0
 .00231512,-0.00139852,0.00699526,-0.00332208,-0.00227209,0.00122918,0.
 00047581,-0.00038299,0.01838175,0.02572626,-0.01584011,-0.01879728,-0.
 03961879,0.11515975,-0.18593732,-0.04533373,-0.02752638,-0.02736045,-0
 .01408287,0.00656840,-0.01525726,0.00435375,-0.00887909,-0.00182423,0.
 00037207,-0.00109401,0.00046673,-0.00014144,-0.00029537,-0.00000319,0.
 00002536,0.00003480,-0.00009973,0.00006753,0.00000185,-0.00007512,-0.0
 0000440,0.00004202,0.00076971,0.00147252,-0.00018901,0.00340493,-0.001
 05571,0.00256675,0.50317083,-0.04102888,-0.08800900,-0.01238022,-0.021
 91920,0.00210293,0.00342548,0.02771638,-0.00207058,0.01331100,-0.00056
 274,0.00351908,-0.00381080,0.00000908,0.00024550,-0.00023415,-0.000024
 95,-0.00004550,0.00009195,-0.00015160,0.00003264,0.00002802,0.00014508
 ,-0.00003662,-0.00003337,-0.00418899,-0.00599529,0.00258503,0.00433540
 ,-0.00023724,0.00336963,-0.01550332,0.58173431,-0.02617665,-0.01358894
 ,-0.08132449,0.03751883,0.01404353,0.00540379,-0.01502599,0.00309010,-
 0.00364731,0.00248151,-0.00320187,0.00450878,-0.00034461,0.00002107,0.
 00060740,-0.00001134,0.00001841,-0.00011413,0.00024665,-0.00008868,-0.
 00006787,-0.00004581,0.00000943,-0.00001703,0.00260770,0.00275037,-0.0
 0141469,-0.00548660,0.00237338,-0.00611139,-0.03074693,-0.00083964,0.5
 9974780,-0.01706911,0.02778870,-0.01039920,0.00214009,-0.00241124,0.00
 069570,-0.00622384,-0.00027986,-0.00207857,-0.00012790,-0.00094915,0.0
 0092388,0.00012579,-0.00011874,0.00002684,-0.00000116,0.00002148,-0.00
 001374,0.00002875,0.00000078,-0.00000626,-0.00005384,0.00000433,0.0000
 2078,0.00147946,0.00176253,-0.00074974,-0.00093580,0.00002951,-0.00061
 284,-0.12441203,0.11084320,-0.04672321,0.13371135,-0.00584893,0.006971
 26,-0.00319596,0.00022222,0.00023658,-0.00031657,-0.00250116,0.0012086
 9,-0.00154653,0.00001269,-0.00006780,0.00009557,0.00002564,-0.00001078
 ,-0.00002071,-0.00000665,-0.00000277,0.00001238,-0.00000421,0.00000079
 ,-0.00000293,0.00000676,0.00000309,0.00000102,-0.00007250,0.00017617,-
 0.00016693,0.00000915,0.00005873,-0.00011001,0.11320324,-0.21325759,0.
 06994240,-0.12207804,0.22936165,-0.00474645,0.00733014,-0.00333311,0.0
 0136918,-0.00026621,-0.00016981,-0.00302378,-0.00019799,-0.00030134,-0
 .00025981,-0.00047848,0.00030615,0.00003737,-0.00005496,0.00000315,-0.
 00000127,0.00000719,-0.00000332,0.00000699,0.00000320,-0.00000456,-0.0
 0002895,0.00000973,0.00001409,0.00073268,0.00089000,-0.00020836,-0.000
 30924,0.00002956,-0.00019930,-0.04664319,0.06880266,-0.07581427,0.0528
 8934,-0.07563756,0.07829070,-0.01001310,-0.01033292,0.02962600,-0.0096
 0401,-0.00352709,-0.00141032,0.00218957,0.00091516,-0.00070791,-0.0008
 6642,0.00137876,-0.00174285,0.00023510,0.00000480,-0.00025952,-0.00001
 005,-0.00000905,0.00005472,-0.00011645,0.00004479,0.00002542,0.0000241
 3,-0.00001009,0.00001323,-0.00128867,-0.00121821,0.00042704,0.00259715
 ,-0.00090781,0.00224968,-0.10269948,-0.04724216,0.09473547,0.00950607,
 0.00588033,-0.01517423,0.11008407,-0.00111415,-0.00487809,0.01031628,-
 0.00371610,0.00037258,-0.00034068,0.00074918,0.00006178,-0.00068288,-0
 .00069056,0.00027924,-0.00071578,0.00015059,-0.00005136,-0.00013352,0.
 00000628,0.00000694,0.00001822,-0.00004820,0.00002756,0.00001731,-0.00
 001000,-0.00001015,0.00000983,-0.00014312,-0.00015323,0.00014424,0.001
 13315,0.00004226,0.00097336,-0.04807249,-0.08976692,0.08164404,-0.0129
 4727,-0.00900584,0.01982136,0.05246768,0.09239634,-0.00351220,-0.00344
 843,0.00467719,-0.00232166,-0.00063530,0.00160373,-0.00006361,-0.00061
 165,0.00074240,0.00004355,-0.00004902,-0.00006617,0.00001004,-0.000020
 38,0.00004640,-0.00000558,-0.00000174,-0.00001197,0.00001774,-0.000000
 86,-0.00000625,-0.00000284,-0.00000149,-0.00000059,0.00012674,0.000060
 64,0.00005089,-0.00020967,0.00000211,0.00018064,0.10012638,0.08416887,
 -0.22831068,0.00408948,0.00250053,-0.00761201,-0.10699135,-0.09220295,
 0.24396814,0.00603820,-0.02185116,-0.02246878,0.00099673,0.00238940,0.
 00081701,0.00080818,0.00092794,0.00137793,0.00022172,0.00007075,0.0000
 8699,0.00001351,-0.00000724,0.00000746,-0.00002151,0.00000769,0.000019
 42,0.00000529,-0.00000260,-0.00000373,0.00001029,0.00000824,0.00000094
 ,-0.00024004,-0.00039301,0.00003753,-0.00018269,0.00015925,-0.00022548
 ,-0.05133090,0.00867264,0.01229308,-0.00047137,0.01113309,0.01410474,-
 0.00086686,0.01150744,0.00920559,0.05203758,0.00504653,-0.00832545,-0.
 00713393,-0.00044968,0.00099877,0.00161594,-0.00059777,-0.00002003,-0.
 00003027,-0.00011422,-0.00014614,0.00017158,0.00009611,-0.00005687,-0.
 00002102,-0.00001255,0.00002196,0.00000811,-0.00000027,0.00000656,0.00
 000021,-0.00001884,-0.00000282,0.00000365,0.00029112,0.00016492,-0.000
 18284,-0.00018338,0.00011446,-0.00010033,0.00514579,-0.17389112,-0.135
 47042,0.00010061,-0.01646245,-0.01912231,0.00067837,0.01090347,0.01028
 629,-0.00905111,0.18738718,0.00331225,-0.00461807,-0.00738122,0.000375
 58,0.00126123,0.00087484,-0.00040502,0.00114772,0.00012382,0.00001480,
 0.00013745,-0.00007053,0.00003547,-0.00002023,-0.00003015,-0.00001938,
 0.00000450,0.00003287,-0.00000898,-0.00000276,-0.00000731,0.00000920,0
 .00001087,0.00000433,-0.00024641,-0.00024632,0.00005790,-0.00000695,-0
 .00004887,-0.00000466,0.00822755,-0.13629685,-0.19535405,0.00041973,0.
 00800971,0.00926392,-0.00011531,-0.01793458,-0.01642676,-0.00942567,0.
 14999857,0.20834687,0.00231305,0.00293941,0.01263168,0.00137259,0.0002
 2528,-0.00087379,-0.08547708,0.00694630,-0.01094978,-0.00664414,-0.001
 92119,0.00434947,-0.00014772,-0.00179043,0.00048854,-0.00014535,-0.000
 03732,0.00008811,-0.00012233,-0.00002139,-0.00010867,-0.00062892,0.000
 17496,0.00016789,0.01418822,-0.00958710,-0.01110441,-0.00165609,0.0000
 9407,-0.00132741,-0.00133111,0.00122415,-0.00130976,0.00002626,-0.0002
 8975,0.00007672,-0.00057676,0.00052761,0.00028966,-0.00036104,0.000611
 09,-0.00054651,0.60314864,0.01126363,-0.03382140,0.00519560,0.00203179
 ,0.00606142,-0.00723913,0.00458479,-0.17485100,-0.05244020,0.01045018,
 0.00788074,-0.00298615,-0.00403436,0.00229905,0.00193395,0.00020078,-0
 .00054298,-0.00086922,0.00050786,-0.00012545,0.00017307,0.00057558,-0.
 00047703,-0.00049016,-0.01523353,-0.01914758,-0.00308720,-0.00077813,-
 0.00176449,0.00018455,-0.00045222,0.00252078,0.00073800,-0.00168842,-0
 .00070428,-0.00081372,0.00006927,0.00045829,0.00037881,0.00054827,-0.0
 0044257,-0.00115667,0.00958575,0.48458646,0.01033769,-0.01049475,0.022
 37776,0.00354099,0.00486910,-0.00971331,-0.00956956,-0.06196664,-0.115
 74346,0.00644674,0.00301696,-0.00136933,-0.00156533,0.00175649,0.00159
 382,0.00046954,-0.00037920,-0.00050019,0.00003345,-0.00026203,-0.00016
 843,0.00026307,-0.00025348,-0.00041906,-0.00763659,-0.00590473,0.00013
 502,-0.00197709,0.00021166,-0.00038627,-0.00123208,0.00216726,-0.00099
 063,-0.00040024,-0.00003999,-0.00027606,0.00028400,-0.00020833,-0.0001
 3281,-0.00117793,0.00038779,-0.00009337,0.01476054,-0.06501385,0.55512
 338,-0.00084760,0.00134522,-0.00114154,0.00021997,-0.00029121,0.000309
 42,0.00921280,-0.00228805,-0.00269622,-0.00008525,-0.00010052,0.000102
 52,0.00000775,0.00000077,0.00014794,0.00002361,-0.00001426,-0.00015116
 ,0.00004965,0.00003256,0.00002698,-0.00002482,-0.00007236,-0.00002985,
 0.00124746,0.00141524,0.00031229,-0.00016341,0.00021013,-0.00012419,-0
 .00012726,0.00037424,-0.00068377,0.00022712,0.00025666,0.00028853,-0.0
 0012301,-0.00001750,-0.00002829,-0.00033942,0.00071060,0.00025887,-0.2
 6788517,-0.10448585,0.02162272,0.28278310,-0.00419254,0.00197475,-0.00
 194580,0.00099444,-0.00057670,0.00108997,-0.02925006,-0.03021719,-0.00
 692921,-0.00363610,-0.00194261,0.00190549,0.00049447,-0.00088404,-0.00
 012500,-0.00005163,0.00006662,0.00016339,-0.00010246,0.00002499,-0.000
 05109,-0.00031345,0.00014236,0.00011839,0.00744805,0.00152742,-0.00206
 911,-0.00051182,0.00049519,-0.00062352,0.00008005,-0.00031464,0.000150
 78,0.00020952,0.00035370,-0.00000625,0.00048533,-0.00027494,-0.0003481
 7,0.00038033,-0.00029815,0.00068067,-0.09785102,-0.09537700,0.01345380
 ,0.11435968,0.11530543,0.00054566,0.00137641,-0.00101240,-0.00059642,0
 .00016644,0.00070426,-0.01826442,-0.01588730,0.00038065,-0.00204496,-0
 .00088083,0.00083361,0.00020418,-0.00059184,-0.00032526,-0.00013683,0.
 00010576,0.00017593,0.00001392,0.00005100,0.00004284,-0.00011643,0.000
 10993,0.00015899,0.00372727,0.00042965,-0.00129763,-0.00006773,-0.0000
 6276,-0.00031975,-0.00011190,-0.00010977,0.00059191,0.00008204,-0.0001
 2218,-0.00018223,0.00010278,0.00000411,0.00001865,-0.00029556,0.000429
 43,-0.00049348,0.02472264,0.01419253,-0.05484039,-0.02142135,-0.005418
 16,0.05351393,0.00016639,-0.00195662,0.00097124,0.00033122,0.00016860,
 -0.00035948,0.00343295,0.00328300,0.00255796,0.00065549,0.00066065,-0.
 00037183,-0.00023975,0.00009198,0.00014069,-0.00000150,-0.00009000,0.0
 0000589,0.00002222,-0.00003573,-0.00002845,0.00003499,0.00000226,-0.00
 001663,-0.00062091,-0.00094997,0.00047551,0.00001764,0.00000250,0.0000
 4764,0.00002502,-0.00002373,-0.00033212,0.00013649,0.00020377,0.000127
 85,0.00009556,-0.00016003,-0.00014303,-0.00012739,0.00010866,0.0003862
 7,-0.18214013,0.09802315,-0.08943225,-0.01894529,0.01566829,-0.0151288
 8,0.18959980,-0.00342992,0.00578129,-0.00827319,-0.00168069,-0.0011909
 9,0.00244551,0.02380859,-0.03458418,0.01118415,-0.00174267,-0.00003579
 ,-0.00052348,0.00044395,-0.00035003,-0.00021961,-0.00005629,0.00000143
 ,0.00028829,-0.00023729,-0.00001858,-0.00008590,-0.00008232,0.00014626
 ,0.00005111,0.00224766,0.00020148,0.00045118,0.00165931,-0.00002527,0.
 00090429,-0.00001013,-0.00023162,0.00021287,0.00021074,0.00020495,0.00
 019064,0.00004741,-0.00009444,-0.00012887,0.00016205,0.00006509,0.0003
 5124,0.09342201,-0.11921032,0.06781962,-0.00923206,0.01018781,-0.00695
 450,-0.10929053,0.14306676,-0.00070991,0.00202053,-0.00440181,-0.00088
 553,-0.00040357,0.00190419,0.01533154,-0.01702782,0.01041290,0.0004921
 8,0.00023206,-0.00031741,-0.00018679,0.00016886,0.00033255,-0.00002916
 ,0.00000654,-0.00026101,0.00005083,0.00005333,0.00006628,0.00002698,-0
 .00011049,-0.00007576,-0.00044975,-0.00008110,0.00072706,0.00004792,0.
 00002857,0.00000696,-0.00004048,-0.00036693,-0.00009055,0.00005457,0.0
 0011951,0.00013764,-0.00001484,0.00007208,0.00005116,0.00026604,0.0001
 6737,0.00025428,-0.09204790,0.07298441,-0.11447039,0.00318213,-0.00198
 174,0.00238135,0.09692765,-0.07022996,0.11593404,0.00086670,-0.0001500
 4,0.00189317,-0.00070824,-0.00027130,-0.00059954,0.00276645,0.00431340
 ,0.00161737,-0.00001213,0.00054557,-0.00016095,-0.00012166,-0.00018689
 ,-0.00037349,-0.00023901,-0.00009677,0.00011127,-0.00000115,0.00003874
 ,0.00004764,0.00003240,0.00005650,0.00005572,-0.00059209,-0.00031361,-
 0.00071337,0.00074260,-0.00035762,0.00044834,-0.00021032,0.00015557,0.
 00060589,0.00004729,-0.00009274,-0.00022635,0.00015779,-0.00009676,-0.
 00015483,-0.00068790,0.00007381,-0.00015419,-0.07169760,-0.01087551,0.
 05872329,-0.00547886,-0.00500014,0.02884015,0.00749962,0.00258096,-0.0
 2269693,0.06786195,0.00065882,0.00266291,-0.00475072,-0.00117566,0.000
 74770,0.00182195,0.00874873,-0.00891217,-0.03915611,-0.00047632,-0.000
 71370,0.00067732,-0.00004039,-0.00016150,0.00006408,-0.00017524,0.0000
 3758,-0.00002771,0.00002439,0.00002107,0.00002332,-0.00004489,0.000012
 19,0.00002201,0.00237802,0.00156934,-0.00087460,-0.00067190,-0.0001396
 5,-0.00067689,0.00005095,-0.00047481,0.00019457,0.00008694,0.00003280,
 0.00005760,-0.00009456,-0.00004482,-0.00003880,0.00018104,-0.00003450,
 -0.00002833,-0.01132616,-0.05766006,0.04381437,-0.00181134,-0.00012292
 ,0.01329115,-0.00593848,-0.00091908,0.01589760,0.00969766,0.06401684,-
 0.00193703,0.00490497,-0.00418921,-0.00159529,-0.00070766,0.00263500,0
 .00330514,-0.01510422,-0.01590788,-0.00198464,-0.00080576,0.00060292,0
 .00054819,-0.00061955,-0.00071672,-0.00019033,0.00014900,0.00041526,-0
 .00003366,0.00005143,0.00002396,-0.00006025,0.00018612,0.00021773,0.00
 328423,0.00158899,-0.00104566,0.00058649,-0.00020666,0.00010185,0.0001
 7277,-0.00046112,0.00001272,0.00011851,0.00007854,0.00013821,-0.000107
 82,0.00007923,0.00004304,0.00017191,0.00009015,0.00023137,0.05985967,0
 .03799647,-0.28247418,0.00011207,0.00177235,-0.00034858,0.00414397,0.0
 0322485,-0.01231334,-0.06686603,-0.03152730,0.31209577,-0.07225044,-0.
 01323091,0.00139282,0.00635616,0.01762064,0.03454026,0.00051551,0.0259
 7278,0.00849213,-0.00173092,0.00057052,0.00047169,0.00126289,-0.000301
 40,-0.00028170,-0.00025024,0.00014011,0.00015449,-0.00011745,0.0000724
 6,-0.00004686,-0.00013150,-0.00003354,0.00006874,0.00082942,-0.0008308
 7,0.00033176,0.00177075,0.00022370,-0.00004723,0.00283119,-0.02283019,
 -0.02360234,0.00186638,-0.00005957,0.00077987,0.00127535,0.00047426,-0
 .00047613,-0.00550236,-0.00243486,-0.00211132,-0.00223530,-0.00029303,
 -0.00349095,0.00024863,0.00078904,-0.00005415,0.00005756,0.00117922,0.
 00068144,-0.00022584,-0.00007160,0.00047211,0.06543021,-0.02077082,-0.
 10664437,-0.05347272,0.01438368,0.01862250,-0.01295711,0.01503151,-0.0
 5388458,-0.01944012,0.00505847,0.00231757,0.00125949,-0.00014266,0.000
 19565,0.00024190,-0.00018557,0.00007363,0.00018576,0.00010555,-0.00012
 054,-0.00005080,0.00023122,-0.00000868,-0.00012092,-0.00556774,-0.0053
 3953,-0.00056933,-0.00390648,-0.00033570,-0.00330426,-0.00011494,-0.01
 582430,-0.02199941,-0.00058561,0.00090310,-0.00056461,0.00136998,-0.00
 026868,0.00009041,-0.00484298,0.00001771,-0.00124929,0.00707373,0.0003
 1742,0.00702593,-0.00039196,-0.00007008,-0.00012906,0.00023222,-0.0029
 9477,-0.00154926,-0.00002083,0.00008277,-0.00068983,-0.00695677,0.1629
 6089,-0.01778468,-0.05147982,-0.12061681,0.04246875,-0.02325313,-0.067
 33331,0.00331435,-0.00726693,0.00875960,0.00578269,-0.00153403,0.00578
 772,-0.00027052,-0.00030029,0.00070643,-0.00032560,0.00031270,0.000051
 48,0.00040357,-0.00016933,-0.00001207,-0.00000774,-0.00000202,-0.00010
 096,0.00084155,-0.00162458,-0.00285225,-0.01241996,0.00203051,-0.00922
 686,-0.00098209,-0.02341705,-0.01761532,0.00166294,0.00039971,-0.00004
 949,-0.00099419,-0.00088135,0.00118500,-0.00479150,-0.00109797,0.00067
 132,0.00083332,0.00031889,0.00234789,-0.00008709,0.00016321,0.00001757
 ,0.00002799,-0.00070825,-0.00027813,-0.00039716,0.00121650,0.00047774,
 -0.01727462,0.10729323,0.19808043||0.00000157,0.00000555,-0.00000731,0
 .00000227,-0.00000935,0.00000210,-0.00000907,-0.00000862,0.00000209,0.
 00000689,0.00000941,0.00000277,-0.00000284,0.00000275,-0.00000165,0.00
 000078,-0.00000241,0.00000354,-0.00000122,0.00000309,0.00000387,0.0000
 0077,-0.00000093,-0.00000039,-0.00000443,0.00000374,-0.00000390,0.0000
 0521,-0.00000331,-0.00000604,0.00000038,-0.00000128,-0.00000228,0.0000
 0076,-0.00000249,-0.00000657,-0.00000042,0.00000101,-0.00000254,0.0000
 0133,-0.00000386,-0.00000153,0.00000103,0.00000021,0.00000574,0.000000
 14,0.00000089,0.00000533,-0.00000009,0.00000175,0.00000749,0.00000183,
 -0.00000267,0.00000455,-0.00000489,0.00000655,-0.00000527|||@


 "A LITTLE BIT GOES A LONG WAY"
 R.S. MULLIKEN AS QUOTED BY K. RUEDENBERG
 Job cpu time:  0 days  0 hours 16 minutes  4.0 seconds.
 File lengths (MBytes):  RWF=     66 Int=      0 D2E=      0 Chk=      3 Scr=      1
 Normal termination of Gaussian 09 at Mon Feb 23 08:15:44 2015.
