 Entering Gaussian System, Link 0=g09
 Initial command:
 /opt/gridware/applications/gaussian/g09/l1.exe "/lustre/SCRATCH5/gau/mlawal/850378.sched01/Gau-16108.inp" -scrdir="/lustre/SCRATCH5/gau/mlawal/850378.sched01/"
 Entering Link 1 = /opt/gridware/applications/gaussian/g09/l1.exe PID=     16109.
  
 Copyright (c) 1988,1990,1992,1993,1995,1998,2003,2009,2013,
            Gaussian, Inc.  All Rights Reserved.
  
 This is part of the Gaussian(R) 09 program.  It is based on
 the Gaussian(R) 03 system (copyright 2003, Gaussian, Inc.),
 the Gaussian(R) 98 system (copyright 1998, Gaussian, Inc.),
 the Gaussian(R) 94 system (copyright 1995, Gaussian, Inc.),
 the Gaussian 92(TM) system (copyright 1992, Gaussian, Inc.),
 the Gaussian 90(TM) system (copyright 1990, Gaussian, Inc.),
 the Gaussian 88(TM) system (copyright 1988, Gaussian, Inc.),
 the Gaussian 86(TM) system (copyright 1986, Carnegie Mellon
 University), and the Gaussian 82(TM) system (copyright 1983,
 Carnegie Mellon University). Gaussian is a federally registered
 trademark of Gaussian, Inc.
  
 This software contains proprietary and confidential information,
 including trade secrets, belonging to Gaussian, Inc.
  
 This software is provided under written license and may be
 used, copied, transmitted, or stored only in accord with that
 written license.
  
 The following legend is applicable only to US Government
 contracts under FAR:
  
                    RESTRICTED RIGHTS LEGEND
  
 Use, reproduction and disclosure by the US Government is
 subject to restrictions as set forth in subparagraphs (a)
 and (c) of the Commercial Computer Software - Restricted
 Rights clause in FAR 52.227-19.
  
 Gaussian, Inc.
 340 Quinnipiac St., Bldg. 40, Wallingford CT 06492
  
  
 ---------------------------------------------------------------
 Warning -- This program may not be used in any manner that
 competes with the business of Gaussian, Inc. or will provide
 assistance to any competitor of Gaussian, Inc.  The licensee
 of this program is prohibited from giving any competitor of
 Gaussian, Inc. access to this program.  By using this program,
 the user acknowledges that Gaussian, Inc. is engaged in the
 business of creating and licensing software in the field of
 computational chemistry and represents and warrants to the
 licensee that it is not a competitor of Gaussian, Inc. and that
 it will not use this program in any manner prohibited above.
 ---------------------------------------------------------------
  

 Cite this work as:
 Gaussian 09, Revision D.01,
 M. J. Frisch, G. W. Trucks, H. B. Schlegel, G. E. Scuseria, 
 M. A. Robb, J. R. Cheeseman, G. Scalmani, V. Barone, B. Mennucci, 
 G. A. Petersson, H. Nakatsuji, M. Caricato, X. Li, H. P. Hratchian, 
 A. F. Izmaylov, J. Bloino, G. Zheng, J. L. Sonnenberg, M. Hada, 
 M. Ehara, K. Toyota, R. Fukuda, J. Hasegawa, M. Ishida, T. Nakajima, 
 Y. Honda, O. Kitao, H. Nakai, T. Vreven, J. A. Montgomery, Jr., 
 J. E. Peralta, F. Ogliaro, M. Bearpark, J. J. Heyd, E. Brothers, 
 K. N. Kudin, V. N. Staroverov, T. Keith, R. Kobayashi, J. Normand, 
 K. Raghavachari, A. Rendell, J. C. Burant, S. S. Iyengar, J. Tomasi, 
 M. Cossi, N. Rega, J. M. Millam, M. Klene, J. E. Knox, J. B. Cross, 
 V. Bakken, C. Adamo, J. Jaramillo, R. Gomperts, R. E. Stratmann, 
 O. Yazyev, A. J. Austin, R. Cammi, C. Pomelli, J. W. Ochterski, 
 R. L. Martin, K. Morokuma, V. G. Zakrzewski, G. A. Voth, 
 P. Salvador, J. J. Dannenberg, S. Dapprich, A. D. Daniels, 
 O. Farkas, J. B. Foresman, J. V. Ortiz, J. Cioslowski, 
 and D. J. Fox, Gaussian, Inc., Wallingford CT, 2013.
 
 ******************************************
 Gaussian 09:  EM64L-G09RevD.01 24-Apr-2013
                26-Mar-2015 
 ******************************************
 %nprocshared=8
 Will use up to    8 processors via shared memory.
 %nprocl=1
 Will use up to    1 processors via Linda.
 ----------------------------------------------------------------------
 # opt=(calcfc,ts,noeigentest) freq=noraman b3lyp/genecp geom=connectiv
 ity gfinput pseudo=read
 ----------------------------------------------------------------------
 1/5=1,10=4,11=1,14=-1,18=20,26=3,38=1,57=2/1,3;
 2/9=110,12=2,17=6,18=5,40=1/2;
 3/5=7,11=2,16=1,17=8,24=10,25=1,30=1,71=2,74=-5,140=1/1,2,3;
 4//1;
 5/5=2,38=5/2;
 8/6=4,10=90,11=11/1;
 11/6=1,8=1,9=11,15=111,16=1/1,2,10;
 10/6=1,13=1/2;
 6/7=2,8=2,9=2,10=2,28=1/1;
 7/10=1,18=20,25=1/1,2,3,16;
 1/5=1,10=4,11=1,14=-1,18=20,26=3/3(2);
 2/9=110/2;
 99//99;
 2/9=110/2;
 3/5=7,6=1,11=2,16=1,17=8,25=1,30=1,71=1,74=-5,82=7/1,2,3;
 4/5=5,16=3,69=1/1;
 5/5=2,38=5/2;
 7//1,2,3,16;
 1/5=1,11=1,14=-1,18=20,26=3/3(-5);
 2/9=110/2;
 6/7=2,8=2,9=2,10=2,19=2,28=1/1;
 99/9=1/99;
 -----------------------------------------------
 gen calculation ts624F-C H O=aug-ccpvtz/F=midix
 -----------------------------------------------
 Symbolic Z-matrix:
 Charge =  0 Multiplicity = 1
 C                     1.03864  -0.44423   0.15046 
 O                     0.14066  -0.92438   0.90514 
 O                     0.23413   0.69407  -0.72018 
 O                    -1.87108  -0.6155   -0.42045 
 C                    -2.86906   0.02124   0.41467 
 H                    -2.40055   0.51502   1.27139 
 H                    -3.38905   0.73373  -0.23411 
 H                    -3.55655  -0.76608   0.74698 
 H                    -0.92912   0.23641  -0.72989 
 H                    -1.18981  -1.20177   0.23529 
 C                     2.3178    0.14147   0.67281 
 H                     3.00343  -0.66652   0.98211 
 H                     2.84725   0.74589  -0.07611 
 H                     2.13892   0.75634   1.56506 
 C                     0.16568   2.00624  -0.11717 
 H                     1.15585   2.46142  -0.22981 
 H                    -0.5738    2.57023  -0.69535 
 H                    -0.11844   1.92899   0.93699 
 F                     1.22932  -1.21061  -0.95703 
 
 Add virtual bond connecting atoms H10        and O4         Dist= 2.10D+00.
 Add virtual bond connecting atoms H9         and O3         Dist= 2.36D+00.
 Add virtual bond connecting atoms H9         and O4         Dist= 2.47D+00.
 Add virtual bond connecting atoms O3         and C1         Dist= 3.11D+00.
 Add virtual bond connecting atoms H10        and O2         Dist= 2.86D+00.

 GradGradGradGradGradGradGradGradGradGradGradGradGradGradGradGradGradGrad
 Berny optimization.
 Initialization pass.
                           ----------------------------
                           !    Initial Parameters    !
                           ! (Angstroms and Degrees)  !
 --------------------------                            --------------------------
 ! Name  Definition              Value          Derivative Info.                !
 --------------------------------------------------------------------------------
 ! R1    R(1,2)                  1.2675         calculate D2E/DX2 analytically  !
 ! R2    R(1,3)                  1.6435         calculate D2E/DX2 analytically  !
 ! R3    R(1,11)                 1.5007         calculate D2E/DX2 analytically  !
 ! R4    R(1,19)                 1.3602         calculate D2E/DX2 analytically  !
 ! R5    R(2,10)                 1.5152         calculate D2E/DX2 analytically  !
 ! R6    R(3,9)                  1.2501         calculate D2E/DX2 analytically  !
 ! R7    R(3,15)                 1.4457         calculate D2E/DX2 analytically  !
 ! R8    R(4,5)                  1.4487         calculate D2E/DX2 analytically  !
 ! R9    R(4,9)                  1.3072         calculate D2E/DX2 analytically  !
 ! R10   R(4,10)                 1.1126         calculate D2E/DX2 analytically  !
 ! R11   R(5,6)                  1.0942         calculate D2E/DX2 analytically  !
 ! R12   R(5,7)                  1.095          calculate D2E/DX2 analytically  !
 ! R13   R(5,8)                  1.0968         calculate D2E/DX2 analytically  !
 ! R14   R(11,12)                1.1039         calculate D2E/DX2 analytically  !
 ! R15   R(11,13)                1.0984         calculate D2E/DX2 analytically  !
 ! R16   R(11,14)                1.0983         calculate D2E/DX2 analytically  !
 ! R17   R(15,16)                1.0956         calculate D2E/DX2 analytically  !
 ! R18   R(15,17)                1.0951         calculate D2E/DX2 analytically  !
 ! R19   R(15,18)                1.0945         calculate D2E/DX2 analytically  !
 ! A1    A(2,1,3)              103.3558         calculate D2E/DX2 analytically  !
 ! A2    A(2,1,11)             122.9901         calculate D2E/DX2 analytically  !
 ! A3    A(2,1,19)             111.7568         calculate D2E/DX2 analytically  !
 ! A4    A(3,1,11)             109.3495         calculate D2E/DX2 analytically  !
 ! A5    A(3,1,19)              91.5779         calculate D2E/DX2 analytically  !
 ! A6    A(11,1,19)            112.569          calculate D2E/DX2 analytically  !
 ! A7    A(1,2,10)             115.3559         calculate D2E/DX2 analytically  !
 ! A8    A(1,3,9)              101.8916         calculate D2E/DX2 analytically  !
 ! A9    A(1,3,15)             115.5219         calculate D2E/DX2 analytically  !
 ! A10   A(9,3,15)             106.946          calculate D2E/DX2 analytically  !
 ! A11   A(5,4,9)              110.2684         calculate D2E/DX2 analytically  !
 ! A12   A(5,4,10)             108.2803         calculate D2E/DX2 analytically  !
 ! A13   A(9,4,10)              92.3898         calculate D2E/DX2 analytically  !
 ! A14   A(4,5,6)              110.7762         calculate D2E/DX2 analytically  !
 ! A15   A(4,5,7)              105.7583         calculate D2E/DX2 analytically  !
 ! A16   A(4,5,8)              106.9153         calculate D2E/DX2 analytically  !
 ! A17   A(6,5,7)              111.9383         calculate D2E/DX2 analytically  !
 ! A18   A(6,5,8)              110.7995         calculate D2E/DX2 analytically  !
 ! A19   A(7,5,8)              110.4227         calculate D2E/DX2 analytically  !
 ! A20   A(3,9,4)              155.1338         calculate D2E/DX2 analytically  !
 ! A21   A(2,10,4)             134.5691         calculate D2E/DX2 analytically  !
 ! A22   A(1,11,12)            109.9543         calculate D2E/DX2 analytically  !
 ! A23   A(1,11,13)            112.848          calculate D2E/DX2 analytically  !
 ! A24   A(1,11,14)            111.2506         calculate D2E/DX2 analytically  !
 ! A25   A(12,11,13)           107.1229         calculate D2E/DX2 analytically  !
 ! A26   A(12,11,14)           106.4581         calculate D2E/DX2 analytically  !
 ! A27   A(13,11,14)           108.9267         calculate D2E/DX2 analytically  !
 ! A28   A(3,15,16)            106.9428         calculate D2E/DX2 analytically  !
 ! A29   A(3,15,17)            106.2125         calculate D2E/DX2 analytically  !
 ! A30   A(3,15,18)            110.4844         calculate D2E/DX2 analytically  !
 ! A31   A(16,15,17)           110.0007         calculate D2E/DX2 analytically  !
 ! A32   A(16,15,18)           111.2818         calculate D2E/DX2 analytically  !
 ! A33   A(17,15,18)           111.6898         calculate D2E/DX2 analytically  !
 ! D1    D(3,1,2,10)            43.6513         calculate D2E/DX2 analytically  !
 ! D2    D(11,1,2,10)          167.7157         calculate D2E/DX2 analytically  !
 ! D3    D(19,1,2,10)          -53.5425         calculate D2E/DX2 analytically  !
 ! D4    D(2,1,3,9)            -27.9597         calculate D2E/DX2 analytically  !
 ! D5    D(2,1,3,15)            87.5466         calculate D2E/DX2 analytically  !
 ! D6    D(11,1,3,9)          -160.5309         calculate D2E/DX2 analytically  !
 ! D7    D(11,1,3,15)          -45.0246         calculate D2E/DX2 analytically  !
 ! D8    D(19,1,3,9)            84.849          calculate D2E/DX2 analytically  !
 ! D9    D(19,1,3,15)         -159.6447         calculate D2E/DX2 analytically  !
 ! D10   D(2,1,11,12)           76.0629         calculate D2E/DX2 analytically  !
 ! D11   D(2,1,11,13)         -164.4075         calculate D2E/DX2 analytically  !
 ! D12   D(2,1,11,14)          -41.6209         calculate D2E/DX2 analytically  !
 ! D13   D(3,1,11,12)         -162.6147         calculate D2E/DX2 analytically  !
 ! D14   D(3,1,11,13)          -43.0851         calculate D2E/DX2 analytically  !
 ! D15   D(3,1,11,14)           79.7015         calculate D2E/DX2 analytically  !
 ! D16   D(19,1,11,12)         -62.3871         calculate D2E/DX2 analytically  !
 ! D17   D(19,1,11,13)          57.1425         calculate D2E/DX2 analytically  !
 ! D18   D(19,1,11,14)         179.929          calculate D2E/DX2 analytically  !
 ! D19   D(1,2,10,4)           -49.5979         calculate D2E/DX2 analytically  !
 ! D20   D(1,3,9,4)              2.7636         calculate D2E/DX2 analytically  !
 ! D21   D(15,3,9,4)          -118.8679         calculate D2E/DX2 analytically  !
 ! D22   D(1,3,15,16)           74.8403         calculate D2E/DX2 analytically  !
 ! D23   D(1,3,15,17)         -167.7123         calculate D2E/DX2 analytically  !
 ! D24   D(1,3,15,18)          -46.4143         calculate D2E/DX2 analytically  !
 ! D25   D(9,3,15,16)         -172.5666         calculate D2E/DX2 analytically  !
 ! D26   D(9,3,15,17)          -55.1191         calculate D2E/DX2 analytically  !
 ! D27   D(9,3,15,18)           66.1789         calculate D2E/DX2 analytically  !
 ! D28   D(9,4,5,6)            -51.9849         calculate D2E/DX2 analytically  !
 ! D29   D(9,4,5,7)             69.4987         calculate D2E/DX2 analytically  !
 ! D30   D(9,4,5,8)           -172.8052         calculate D2E/DX2 analytically  !
 ! D31   D(10,4,5,6)            47.7332         calculate D2E/DX2 analytically  !
 ! D32   D(10,4,5,7)           169.2168         calculate D2E/DX2 analytically  !
 ! D33   D(10,4,5,8)           -73.0871         calculate D2E/DX2 analytically  !
 ! D34   D(5,4,9,3)            114.1418         calculate D2E/DX2 analytically  !
 ! D35   D(10,4,9,3)             3.65           calculate D2E/DX2 analytically  !
 ! D36   D(5,4,10,2)           -94.1936         calculate D2E/DX2 analytically  !
 ! D37   D(9,4,10,2)            18.0741         calculate D2E/DX2 analytically  !
 --------------------------------------------------------------------------------
 Trust Radius=3.00D-01 FncErr=1.00D-07 GrdErr=1.00D-06
 Number of steps in this run=     99 maximum allowed number of steps=    114.
 Search for a saddle point of order  1.
 GradGradGradGradGradGradGradGradGradGradGradGradGradGradGradGradGradGrad

                          Input orientation:                          
 ---------------------------------------------------------------------
 Center     Atomic      Atomic             Coordinates (Angstroms)
 Number     Number       Type             X           Y           Z
 ---------------------------------------------------------------------
      1          6           0        1.038638   -0.444228    0.150458
      2          8           0        0.140657   -0.924384    0.905138
      3          8           0        0.234125    0.694069   -0.720178
      4          8           0       -1.871075   -0.615496   -0.420445
      5          6           0       -2.869059    0.021236    0.414667
      6          1           0       -2.400549    0.515022    1.271394
      7          1           0       -3.389051    0.733726   -0.234110
      8          1           0       -3.556552   -0.766079    0.746980
      9          1           0       -0.929120    0.236408   -0.729885
     10          1           0       -1.189813   -1.201772    0.235293
     11          6           0        2.317801    0.141469    0.672809
     12          1           0        3.003432   -0.666516    0.982111
     13          1           0        2.847250    0.745892   -0.076114
     14          1           0        2.138920    0.756342    1.565055
     15          6           0        0.165676    2.006238   -0.117169
     16          1           0        1.155848    2.461422   -0.229811
     17          1           0       -0.573795    2.570231   -0.695350
     18          1           0       -0.118440    1.928985    0.936989
     19          9           0        1.229320   -1.210607   -0.957029
 ---------------------------------------------------------------------
                    Distance matrix (angstroms):
                    1          2          3          4          5
     1  C    0.000000
     2  O    1.267463   0.000000
     3  O    1.643462   2.295600   0.000000
     4  O    2.970133   2.428919   2.497332   0.000000
     5  C    3.944180   3.192671   3.371992   1.448728   0.000000
     6  H    3.742281   2.943427   3.307556   2.102554   1.094215
     7  H    4.597814   4.062764   3.655850   2.039454   1.094964
     8  H    4.644911   3.703975   4.319006   2.055818   1.096788
     9  H    2.260606   2.272699   1.250075   1.307200   2.262667
    10  H    2.355221   1.515185   2.556313   1.112578   2.085136
    11  C    1.500716   2.435154   2.566610   4.394870   5.194671
    12  H    2.145105   2.875396   3.523924   5.072532   5.939793
    13  H    2.176878   3.328411   2.691826   4.922858   5.782921
    14  H    2.157098   2.693211   2.975636   4.680193   5.190725
    15  C    2.615047   3.103914   1.445715   3.333740   3.665065
    16  H    2.932771   3.712466   2.052698   4.320420   4.750762
    17  H    3.521689   3.909519   2.042874   3.450705   3.605239
    18  H    2.754923   2.865285   2.096550   3.374721   3.387954
    19  F    1.360229   2.175954   2.162013   3.202269   4.493962
                    6          7          8          9         10
     6  H    0.000000
     7  H    1.814252   0.000000
     8  H    1.803489   1.800003   0.000000
     9  H    2.499569   2.558198   3.176399   0.000000
    10  H    2.342385   2.967009   2.460306   1.751540   0.000000
    11  C    4.770815   5.808737   5.944507   3.538228   3.781411
    12  H    5.539199   6.656103   6.564952   4.383055   4.292731
    13  H    5.422958   6.238314   6.631155   3.866259   4.493133
    14  H    4.555354   5.813430   5.951925   3.866517   4.084476
    15  C    3.276789   3.777439   4.720961   2.169400   3.500415
    16  H    4.323199   4.862207   5.794618   3.089960   4.374636
    17  H    3.380680   3.392810   4.701927   2.360970   3.933647
    18  H    2.705391   3.673828   4.372652   2.510077   3.382581
    19  F    4.595608   5.062844   5.099590   2.608507   2.697020
                   11         12         13         14         15
    11  C    0.000000
    12  H    1.103901   0.000000
    13  H    1.098421   1.771759   0.000000
    14  H    1.098258   1.764010   1.787534   0.000000
    15  C    2.955177   4.050295   2.963275   2.878508   0.000000
    16  H    2.747188   3.829663   2.414023   2.663695   1.095592
    17  H    4.016475   5.107539   3.926221   3.969691   1.095079
    18  H    3.033195   4.060141   3.349836   2.620159   1.094504
    19  F    2.381023   2.683984   2.687303   3.325232   3.490673
                   16         17         18         19
    16  H    0.000000
    17  H    1.794500   0.000000
    18  H    1.807961   1.811926   0.000000
    19  F    3.744067   4.196956   3.906507   0.000000
 Stoichiometry    C4H11FO3
 Framework group  C1[X(C4H11FO3)]
 Deg. of freedom    51
 Full point group                 C1      NOp   1
 Largest Abelian subgroup         C1      NOp   1
 Largest concise Abelian subgroup C1      NOp   1
                         Standard orientation:                         
 ---------------------------------------------------------------------
 Center     Atomic      Atomic             Coordinates (Angstroms)
 Number     Number       Type             X           Y           Z
 ---------------------------------------------------------------------
      1          6           0        1.038638   -0.444228    0.150458
      2          8           0        0.140657   -0.924384    0.905138
      3          8           0        0.234125    0.694069   -0.720178
      4          8           0       -1.871075   -0.615496   -0.420445
      5          6           0       -2.869059    0.021236    0.414667
      6          1           0       -2.400549    0.515022    1.271394
      7          1           0       -3.389051    0.733726   -0.234110
      8          1           0       -3.556552   -0.766079    0.746980
      9          1           0       -0.929120    0.236408   -0.729885
     10          1           0       -1.189813   -1.201772    0.235293
     11          6           0        2.317801    0.141469    0.672809
     12          1           0        3.003432   -0.666516    0.982111
     13          1           0        2.847250    0.745892   -0.076114
     14          1           0        2.138920    0.756342    1.565055
     15          6           0        0.165676    2.006238   -0.117169
     16          1           0        1.155848    2.461422   -0.229811
     17          1           0       -0.573795    2.570231   -0.695350
     18          1           0       -0.118440    1.928985    0.936989
     19          9           0        1.229320   -1.210607   -0.957029
 ---------------------------------------------------------------------
 Rotational constants (GHZ):      2.7524908      1.3461166      1.1357869
 General basis read from cards:  (5D, 7F)
 ======================================================================================================
                                       Pseudopotential Parameters
 ======================================================================================================
  Center     Atomic      Valence      Angular      Power
  Number     Number     Electrons     Momentum     of R      Exponent        Coefficient   SO-Coeffient
 ======================================================================================================
    1          6
                                   No pseudopotential on this center.
    2          8
                                   No pseudopotential on this center.
    3          8
                                   No pseudopotential on this center.
    4          8
                                   No pseudopotential on this center.
    5          6
                                   No pseudopotential on this center.
    6          1
                                   No pseudopotential on this center.
    7          1
                                   No pseudopotential on this center.
    8          1
                                   No pseudopotential on this center.
    9          1
                                   No pseudopotential on this center.
   10          1
                                   No pseudopotential on this center.
   11          6
                                   No pseudopotential on this center.
   12          1
                                   No pseudopotential on this center.
   13          1
                                   No pseudopotential on this center.
   14          1
                                   No pseudopotential on this center.
   15          6
                                   No pseudopotential on this center.
   16          1
                                   No pseudopotential on this center.
   17          1
                                   No pseudopotential on this center.
   18          1
                                   No pseudopotential on this center.
   19          9
                                   No pseudopotential on this center.
 ======================================================================================================
 AO basis set in the form of general basis input (Overlap normalization):
      1 0
 S   7 1.00       0.000000000000
      0.8236000000D+04  0.5419783203D-03
      0.1235000000D+04  0.4192873817D-02
      0.2808000000D+03  0.2152216205D-01
      0.7927000000D+02  0.8353432195D-01
      0.2559000000D+02  0.2395828457D+00
      0.8997000000D+01  0.4428528419D+00
      0.3319000000D+01  0.3517995618D+00
 S   6 1.00       0.000000000000
      0.2808000000D+03 -0.5949224937D-04
      0.7927000000D+02 -0.1148158310D-02
      0.2559000000D+02 -0.1001913745D-01
      0.8997000000D+01 -0.6121949230D-01
      0.3319000000D+01 -0.1732698541D+00
      0.3643000000D+00  0.1072915192D+01
 S   1 1.00       0.000000000000
      0.9059000000D+00  0.1000000000D+01
 S   1 1.00       0.000000000000
      0.1285000000D+00  0.1000000000D+01
 S   1 1.00       0.000000000000
      0.4402000000D-01  0.1000000000D+01
 P   3 1.00       0.000000000000
      0.1871000000D+02  0.3942638716D-01
      0.4133000000D+01  0.2440889849D+00
      0.1200000000D+01  0.8154920089D+00
 P   1 1.00       0.000000000000
      0.3827000000D+00  0.1000000000D+01
 P   1 1.00       0.000000000000
      0.1209000000D+00  0.1000000000D+01
 P   1 1.00       0.000000000000
      0.3569000000D-01  0.1000000000D+01
 D   1 1.00       0.000000000000
      0.1097000000D+01  0.1000000000D+01
 D   1 1.00       0.000000000000
      0.3180000000D+00  0.1000000000D+01
 D   1 1.00       0.000000000000
      0.1000000000D+00  0.1000000000D+01
 F   1 1.00       0.000000000000
      0.7610000000D+00  0.1000000000D+01
 F   1 1.00       0.000000000000
      0.2680000000D+00  0.1000000000D+01
 ****
      2 0
 S   7 1.00       0.000000000000
      0.1533000000D+05  0.5198089434D-03
      0.2299000000D+04  0.4020256215D-02
      0.5224000000D+03  0.2071282673D-01
      0.1473000000D+03  0.8101055358D-01
      0.4755000000D+02  0.2359629851D+00
      0.1676000000D+02  0.4426534455D+00
      0.6207000000D+01  0.3570644227D+00
 S   6 1.00       0.000000000000
      0.5224000000D+03 -0.4421150084D-04
      0.1473000000D+03 -0.1225910413D-02
      0.4755000000D+02 -0.1055177248D-01
      0.1676000000D+02 -0.6744526326D-01
      0.6207000000D+01 -0.1711986073D+00
      0.6882000000D+00  0.1073298561D+01
 S   1 1.00       0.000000000000
      0.1752000000D+01  0.1000000000D+01
 S   1 1.00       0.000000000000
      0.2384000000D+00  0.1000000000D+01
 S   1 1.00       0.000000000000
      0.7376000000D-01  0.1000000000D+01
 P   3 1.00       0.000000000000
      0.3446000000D+02  0.4116348957D-01
      0.7749000000D+01  0.2577628359D+00
      0.2280000000D+01  0.8024192744D+00
 P   1 1.00       0.000000000000
      0.7156000000D+00  0.1000000000D+01
 P   1 1.00       0.000000000000
      0.2140000000D+00  0.1000000000D+01
 P   1 1.00       0.000000000000
      0.5974000000D-01  0.1000000000D+01
 D   1 1.00       0.000000000000
      0.2314000000D+01  0.1000000000D+01
 D   1 1.00       0.000000000000
      0.6450000000D+00  0.1000000000D+01
 D   1 1.00       0.000000000000
      0.2140000000D+00  0.1000000000D+01
 F   1 1.00       0.000000000000
      0.1428000000D+01  0.1000000000D+01
 F   1 1.00       0.000000000000
      0.5000000000D+00  0.1000000000D+01
 ****
      3 0
 S   7 1.00       0.000000000000
      0.1533000000D+05  0.5198089434D-03
      0.2299000000D+04  0.4020256215D-02
      0.5224000000D+03  0.2071282673D-01
      0.1473000000D+03  0.8101055358D-01
      0.4755000000D+02  0.2359629851D+00
      0.1676000000D+02  0.4426534455D+00
      0.6207000000D+01  0.3570644227D+00
 S   6 1.00       0.000000000000
      0.5224000000D+03 -0.4421150084D-04
      0.1473000000D+03 -0.1225910413D-02
      0.4755000000D+02 -0.1055177248D-01
      0.1676000000D+02 -0.6744526326D-01
      0.6207000000D+01 -0.1711986073D+00
      0.6882000000D+00  0.1073298561D+01
 S   1 1.00       0.000000000000
      0.1752000000D+01  0.1000000000D+01
 S   1 1.00       0.000000000000
      0.2384000000D+00  0.1000000000D+01
 S   1 1.00       0.000000000000
      0.7376000000D-01  0.1000000000D+01
 P   3 1.00       0.000000000000
      0.3446000000D+02  0.4116348957D-01
      0.7749000000D+01  0.2577628359D+00
      0.2280000000D+01  0.8024192744D+00
 P   1 1.00       0.000000000000
      0.7156000000D+00  0.1000000000D+01
 P   1 1.00       0.000000000000
      0.2140000000D+00  0.1000000000D+01
 P   1 1.00       0.000000000000
      0.5974000000D-01  0.1000000000D+01
 D   1 1.00       0.000000000000
      0.2314000000D+01  0.1000000000D+01
 D   1 1.00       0.000000000000
      0.6450000000D+00  0.1000000000D+01
 D   1 1.00       0.000000000000
      0.2140000000D+00  0.1000000000D+01
 F   1 1.00       0.000000000000
      0.1428000000D+01  0.1000000000D+01
 F   1 1.00       0.000000000000
      0.5000000000D+00  0.1000000000D+01
 ****
      4 0
 S   7 1.00       0.000000000000
      0.1533000000D+05  0.5198089434D-03
      0.2299000000D+04  0.4020256215D-02
      0.5224000000D+03  0.2071282673D-01
      0.1473000000D+03  0.8101055358D-01
      0.4755000000D+02  0.2359629851D+00
      0.1676000000D+02  0.4426534455D+00
      0.6207000000D+01  0.3570644227D+00
 S   6 1.00       0.000000000000
      0.5224000000D+03 -0.4421150084D-04
      0.1473000000D+03 -0.1225910413D-02
      0.4755000000D+02 -0.1055177248D-01
      0.1676000000D+02 -0.6744526326D-01
      0.6207000000D+01 -0.1711986073D+00
      0.6882000000D+00  0.1073298561D+01
 S   1 1.00       0.000000000000
      0.1752000000D+01  0.1000000000D+01
 S   1 1.00       0.000000000000
      0.2384000000D+00  0.1000000000D+01
 S   1 1.00       0.000000000000
      0.7376000000D-01  0.1000000000D+01
 P   3 1.00       0.000000000000
      0.3446000000D+02  0.4116348957D-01
      0.7749000000D+01  0.2577628359D+00
      0.2280000000D+01  0.8024192744D+00
 P   1 1.00       0.000000000000
      0.7156000000D+00  0.1000000000D+01
 P   1 1.00       0.000000000000
      0.2140000000D+00  0.1000000000D+01
 P   1 1.00       0.000000000000
      0.5974000000D-01  0.1000000000D+01
 D   1 1.00       0.000000000000
      0.2314000000D+01  0.1000000000D+01
 D   1 1.00       0.000000000000
      0.6450000000D+00  0.1000000000D+01
 D   1 1.00       0.000000000000
      0.2140000000D+00  0.1000000000D+01
 F   1 1.00       0.000000000000
      0.1428000000D+01  0.1000000000D+01
 F   1 1.00       0.000000000000
      0.5000000000D+00  0.1000000000D+01
 ****
      5 0
 S   7 1.00       0.000000000000
      0.8236000000D+04  0.5419783203D-03
      0.1235000000D+04  0.4192873817D-02
      0.2808000000D+03  0.2152216205D-01
      0.7927000000D+02  0.8353432195D-01
      0.2559000000D+02  0.2395828457D+00
      0.8997000000D+01  0.4428528419D+00
      0.3319000000D+01  0.3517995618D+00
 S   6 1.00       0.000000000000
      0.2808000000D+03 -0.5949224937D-04
      0.7927000000D+02 -0.1148158310D-02
      0.2559000000D+02 -0.1001913745D-01
      0.8997000000D+01 -0.6121949230D-01
      0.3319000000D+01 -0.1732698541D+00
      0.3643000000D+00  0.1072915192D+01
 S   1 1.00       0.000000000000
      0.9059000000D+00  0.1000000000D+01
 S   1 1.00       0.000000000000
      0.1285000000D+00  0.1000000000D+01
 S   1 1.00       0.000000000000
      0.4402000000D-01  0.1000000000D+01
 P   3 1.00       0.000000000000
      0.1871000000D+02  0.3942638716D-01
      0.4133000000D+01  0.2440889849D+00
      0.1200000000D+01  0.8154920089D+00
 P   1 1.00       0.000000000000
      0.3827000000D+00  0.1000000000D+01
 P   1 1.00       0.000000000000
      0.1209000000D+00  0.1000000000D+01
 P   1 1.00       0.000000000000
      0.3569000000D-01  0.1000000000D+01
 D   1 1.00       0.000000000000
      0.1097000000D+01  0.1000000000D+01
 D   1 1.00       0.000000000000
      0.3180000000D+00  0.1000000000D+01
 D   1 1.00       0.000000000000
      0.1000000000D+00  0.1000000000D+01
 F   1 1.00       0.000000000000
      0.7610000000D+00  0.1000000000D+01
 F   1 1.00       0.000000000000
      0.2680000000D+00  0.1000000000D+01
 ****
      6 0
 S   3 1.00       0.000000000000
      0.3387000000D+02  0.2549486323D-01
      0.5095000000D+01  0.1903627659D+00
      0.1159000000D+01  0.8521620222D+00
 S   1 1.00       0.000000000000
      0.3258000000D+00  0.1000000000D+01
 S   1 1.00       0.000000000000
      0.1027000000D+00  0.1000000000D+01
 S   1 1.00       0.000000000000
      0.2526000000D-01  0.1000000000D+01
 P   1 1.00       0.000000000000
      0.1407000000D+01  0.1000000000D+01
 P   1 1.00       0.000000000000
      0.3880000000D+00  0.1000000000D+01
 P   1 1.00       0.000000000000
      0.1020000000D+00  0.1000000000D+01
 D   1 1.00       0.000000000000
      0.1057000000D+01  0.1000000000D+01
 D   1 1.00       0.000000000000
      0.2470000000D+00  0.1000000000D+01
 ****
      7 0
 S   3 1.00       0.000000000000
      0.3387000000D+02  0.2549486323D-01
      0.5095000000D+01  0.1903627659D+00
      0.1159000000D+01  0.8521620222D+00
 S   1 1.00       0.000000000000
      0.3258000000D+00  0.1000000000D+01
 S   1 1.00       0.000000000000
      0.1027000000D+00  0.1000000000D+01
 S   1 1.00       0.000000000000
      0.2526000000D-01  0.1000000000D+01
 P   1 1.00       0.000000000000
      0.1407000000D+01  0.1000000000D+01
 P   1 1.00       0.000000000000
      0.3880000000D+00  0.1000000000D+01
 P   1 1.00       0.000000000000
      0.1020000000D+00  0.1000000000D+01
 D   1 1.00       0.000000000000
      0.1057000000D+01  0.1000000000D+01
 D   1 1.00       0.000000000000
      0.2470000000D+00  0.1000000000D+01
 ****
      8 0
 S   3 1.00       0.000000000000
      0.3387000000D+02  0.2549486323D-01
      0.5095000000D+01  0.1903627659D+00
      0.1159000000D+01  0.8521620222D+00
 S   1 1.00       0.000000000000
      0.3258000000D+00  0.1000000000D+01
 S   1 1.00       0.000000000000
      0.1027000000D+00  0.1000000000D+01
 S   1 1.00       0.000000000000
      0.2526000000D-01  0.1000000000D+01
 P   1 1.00       0.000000000000
      0.1407000000D+01  0.1000000000D+01
 P   1 1.00       0.000000000000
      0.3880000000D+00  0.1000000000D+01
 P   1 1.00       0.000000000000
      0.1020000000D+00  0.1000000000D+01
 D   1 1.00       0.000000000000
      0.1057000000D+01  0.1000000000D+01
 D   1 1.00       0.000000000000
      0.2470000000D+00  0.1000000000D+01
 ****
      9 0
 S   3 1.00       0.000000000000
      0.3387000000D+02  0.2549486323D-01
      0.5095000000D+01  0.1903627659D+00
      0.1159000000D+01  0.8521620222D+00
 S   1 1.00       0.000000000000
      0.3258000000D+00  0.1000000000D+01
 S   1 1.00       0.000000000000
      0.1027000000D+00  0.1000000000D+01
 S   1 1.00       0.000000000000
      0.2526000000D-01  0.1000000000D+01
 P   1 1.00       0.000000000000
      0.1407000000D+01  0.1000000000D+01
 P   1 1.00       0.000000000000
      0.3880000000D+00  0.1000000000D+01
 P   1 1.00       0.000000000000
      0.1020000000D+00  0.1000000000D+01
 D   1 1.00       0.000000000000
      0.1057000000D+01  0.1000000000D+01
 D   1 1.00       0.000000000000
      0.2470000000D+00  0.1000000000D+01
 ****
     10 0
 S   3 1.00       0.000000000000
      0.3387000000D+02  0.2549486323D-01
      0.5095000000D+01  0.1903627659D+00
      0.1159000000D+01  0.8521620222D+00
 S   1 1.00       0.000000000000
      0.3258000000D+00  0.1000000000D+01
 S   1 1.00       0.000000000000
      0.1027000000D+00  0.1000000000D+01
 S   1 1.00       0.000000000000
      0.2526000000D-01  0.1000000000D+01
 P   1 1.00       0.000000000000
      0.1407000000D+01  0.1000000000D+01
 P   1 1.00       0.000000000000
      0.3880000000D+00  0.1000000000D+01
 P   1 1.00       0.000000000000
      0.1020000000D+00  0.1000000000D+01
 D   1 1.00       0.000000000000
      0.1057000000D+01  0.1000000000D+01
 D   1 1.00       0.000000000000
      0.2470000000D+00  0.1000000000D+01
 ****
     11 0
 S   7 1.00       0.000000000000
      0.8236000000D+04  0.5419783203D-03
      0.1235000000D+04  0.4192873817D-02
      0.2808000000D+03  0.2152216205D-01
      0.7927000000D+02  0.8353432195D-01
      0.2559000000D+02  0.2395828457D+00
      0.8997000000D+01  0.4428528419D+00
      0.3319000000D+01  0.3517995618D+00
 S   6 1.00       0.000000000000
      0.2808000000D+03 -0.5949224937D-04
      0.7927000000D+02 -0.1148158310D-02
      0.2559000000D+02 -0.1001913745D-01
      0.8997000000D+01 -0.6121949230D-01
      0.3319000000D+01 -0.1732698541D+00
      0.3643000000D+00  0.1072915192D+01
 S   1 1.00       0.000000000000
      0.9059000000D+00  0.1000000000D+01
 S   1 1.00       0.000000000000
      0.1285000000D+00  0.1000000000D+01
 S   1 1.00       0.000000000000
      0.4402000000D-01  0.1000000000D+01
 P   3 1.00       0.000000000000
      0.1871000000D+02  0.3942638716D-01
      0.4133000000D+01  0.2440889849D+00
      0.1200000000D+01  0.8154920089D+00
 P   1 1.00       0.000000000000
      0.3827000000D+00  0.1000000000D+01
 P   1 1.00       0.000000000000
      0.1209000000D+00  0.1000000000D+01
 P   1 1.00       0.000000000000
      0.3569000000D-01  0.1000000000D+01
 D   1 1.00       0.000000000000
      0.1097000000D+01  0.1000000000D+01
 D   1 1.00       0.000000000000
      0.3180000000D+00  0.1000000000D+01
 D   1 1.00       0.000000000000
      0.1000000000D+00  0.1000000000D+01
 F   1 1.00       0.000000000000
      0.7610000000D+00  0.1000000000D+01
 F   1 1.00       0.000000000000
      0.2680000000D+00  0.1000000000D+01
 ****
     12 0
 S   3 1.00       0.000000000000
      0.3387000000D+02  0.2549486323D-01
      0.5095000000D+01  0.1903627659D+00
      0.1159000000D+01  0.8521620222D+00
 S   1 1.00       0.000000000000
      0.3258000000D+00  0.1000000000D+01
 S   1 1.00       0.000000000000
      0.1027000000D+00  0.1000000000D+01
 S   1 1.00       0.000000000000
      0.2526000000D-01  0.1000000000D+01
 P   1 1.00       0.000000000000
      0.1407000000D+01  0.1000000000D+01
 P   1 1.00       0.000000000000
      0.3880000000D+00  0.1000000000D+01
 P   1 1.00       0.000000000000
      0.1020000000D+00  0.1000000000D+01
 D   1 1.00       0.000000000000
      0.1057000000D+01  0.1000000000D+01
 D   1 1.00       0.000000000000
      0.2470000000D+00  0.1000000000D+01
 ****
     13 0
 S   3 1.00       0.000000000000
      0.3387000000D+02  0.2549486323D-01
      0.5095000000D+01  0.1903627659D+00
      0.1159000000D+01  0.8521620222D+00
 S   1 1.00       0.000000000000
      0.3258000000D+00  0.1000000000D+01
 S   1 1.00       0.000000000000
      0.1027000000D+00  0.1000000000D+01
 S   1 1.00       0.000000000000
      0.2526000000D-01  0.1000000000D+01
 P   1 1.00       0.000000000000
      0.1407000000D+01  0.1000000000D+01
 P   1 1.00       0.000000000000
      0.3880000000D+00  0.1000000000D+01
 P   1 1.00       0.000000000000
      0.1020000000D+00  0.1000000000D+01
 D   1 1.00       0.000000000000
      0.1057000000D+01  0.1000000000D+01
 D   1 1.00       0.000000000000
      0.2470000000D+00  0.1000000000D+01
 ****
     14 0
 S   3 1.00       0.000000000000
      0.3387000000D+02  0.2549486323D-01
      0.5095000000D+01  0.1903627659D+00
      0.1159000000D+01  0.8521620222D+00
 S   1 1.00       0.000000000000
      0.3258000000D+00  0.1000000000D+01
 S   1 1.00       0.000000000000
      0.1027000000D+00  0.1000000000D+01
 S   1 1.00       0.000000000000
      0.2526000000D-01  0.1000000000D+01
 P   1 1.00       0.000000000000
      0.1407000000D+01  0.1000000000D+01
 P   1 1.00       0.000000000000
      0.3880000000D+00  0.1000000000D+01
 P   1 1.00       0.000000000000
      0.1020000000D+00  0.1000000000D+01
 D   1 1.00       0.000000000000
      0.1057000000D+01  0.1000000000D+01
 D   1 1.00       0.000000000000
      0.2470000000D+00  0.1000000000D+01
 ****
     15 0
 S   7 1.00       0.000000000000
      0.8236000000D+04  0.5419783203D-03
      0.1235000000D+04  0.4192873817D-02
      0.2808000000D+03  0.2152216205D-01
      0.7927000000D+02  0.8353432195D-01
      0.2559000000D+02  0.2395828457D+00
      0.8997000000D+01  0.4428528419D+00
      0.3319000000D+01  0.3517995618D+00
 S   6 1.00       0.000000000000
      0.2808000000D+03 -0.5949224937D-04
      0.7927000000D+02 -0.1148158310D-02
      0.2559000000D+02 -0.1001913745D-01
      0.8997000000D+01 -0.6121949230D-01
      0.3319000000D+01 -0.1732698541D+00
      0.3643000000D+00  0.1072915192D+01
 S   1 1.00       0.000000000000
      0.9059000000D+00  0.1000000000D+01
 S   1 1.00       0.000000000000
      0.1285000000D+00  0.1000000000D+01
 S   1 1.00       0.000000000000
      0.4402000000D-01  0.1000000000D+01
 P   3 1.00       0.000000000000
      0.1871000000D+02  0.3942638716D-01
      0.4133000000D+01  0.2440889849D+00
      0.1200000000D+01  0.8154920089D+00
 P   1 1.00       0.000000000000
      0.3827000000D+00  0.1000000000D+01
 P   1 1.00       0.000000000000
      0.1209000000D+00  0.1000000000D+01
 P   1 1.00       0.000000000000
      0.3569000000D-01  0.1000000000D+01
 D   1 1.00       0.000000000000
      0.1097000000D+01  0.1000000000D+01
 D   1 1.00       0.000000000000
      0.3180000000D+00  0.1000000000D+01
 D   1 1.00       0.000000000000
      0.1000000000D+00  0.1000000000D+01
 F   1 1.00       0.000000000000
      0.7610000000D+00  0.1000000000D+01
 F   1 1.00       0.000000000000
      0.2680000000D+00  0.1000000000D+01
 ****
     16 0
 S   3 1.00       0.000000000000
      0.3387000000D+02  0.2549486323D-01
      0.5095000000D+01  0.1903627659D+00
      0.1159000000D+01  0.8521620222D+00
 S   1 1.00       0.000000000000
      0.3258000000D+00  0.1000000000D+01
 S   1 1.00       0.000000000000
      0.1027000000D+00  0.1000000000D+01
 S   1 1.00       0.000000000000
      0.2526000000D-01  0.1000000000D+01
 P   1 1.00       0.000000000000
      0.1407000000D+01  0.1000000000D+01
 P   1 1.00       0.000000000000
      0.3880000000D+00  0.1000000000D+01
 P   1 1.00       0.000000000000
      0.1020000000D+00  0.1000000000D+01
 D   1 1.00       0.000000000000
      0.1057000000D+01  0.1000000000D+01
 D   1 1.00       0.000000000000
      0.2470000000D+00  0.1000000000D+01
 ****
     17 0
 S   3 1.00       0.000000000000
      0.3387000000D+02  0.2549486323D-01
      0.5095000000D+01  0.1903627659D+00
      0.1159000000D+01  0.8521620222D+00
 S   1 1.00       0.000000000000
      0.3258000000D+00  0.1000000000D+01
 S   1 1.00       0.000000000000
      0.1027000000D+00  0.1000000000D+01
 S   1 1.00       0.000000000000
      0.2526000000D-01  0.1000000000D+01
 P   1 1.00       0.000000000000
      0.1407000000D+01  0.1000000000D+01
 P   1 1.00       0.000000000000
      0.3880000000D+00  0.1000000000D+01
 P   1 1.00       0.000000000000
      0.1020000000D+00  0.1000000000D+01
 D   1 1.00       0.000000000000
      0.1057000000D+01  0.1000000000D+01
 D   1 1.00       0.000000000000
      0.2470000000D+00  0.1000000000D+01
 ****
     18 0
 S   3 1.00       0.000000000000
      0.3387000000D+02  0.2549486323D-01
      0.5095000000D+01  0.1903627659D+00
      0.1159000000D+01  0.8521620222D+00
 S   1 1.00       0.000000000000
      0.3258000000D+00  0.1000000000D+01
 S   1 1.00       0.000000000000
      0.1027000000D+00  0.1000000000D+01
 S   1 1.00       0.000000000000
      0.2526000000D-01  0.1000000000D+01
 P   1 1.00       0.000000000000
      0.1407000000D+01  0.1000000000D+01
 P   1 1.00       0.000000000000
      0.3880000000D+00  0.1000000000D+01
 P   1 1.00       0.000000000000
      0.1020000000D+00  0.1000000000D+01
 D   1 1.00       0.000000000000
      0.1057000000D+01  0.1000000000D+01
 D   1 1.00       0.000000000000
      0.2470000000D+00  0.1000000000D+01
 ****
     19 0
 S   3 1.00       0.000000000000
      0.3683711200D+03  0.6704002682D-01
      0.5506106000D+02  0.3892491557D+00
      0.1174767000D+02  0.6707882684D+00
 S   2 1.00       0.000000000000
      0.1515184000D+02 -0.1430237380D+00
      0.1151370000D+01  0.1043565469D+01
 S   1 1.00       0.000000000000
      0.3581100000D+00  0.1000000000D+01
 P   2 1.00       0.000000000000
      0.1057707000D+02  0.2289901111D+00
      0.2194980000D+01  0.8667566772D+00
 P   1 1.00       0.000000000000
      0.4793700000D+00  0.1000000000D+01
 D   1 1.00       0.000000000000
      0.1000000000D+01  0.1000000000D+01
 ****

 There are   675 symmetry adapted cartesian basis functions of A   symmetry.
 There are   589 symmetry adapted basis functions of A   symmetry.
   589 basis functions,   822 primitive gaussians,   675 cartesian basis functions
    34 alpha electrons       34 beta electrons
       nuclear repulsion energy       452.3329082244 Hartrees.
 NAtoms=   19 NActive=   19 NUniq=   19 SFac= 1.00D+00 NAtFMM=   60 NAOKFM=F Big=F
 Integral buffers will be    131072 words long.
 Raffenetti 2 integral format.
 Two-electron integral symmetry is turned on.
 One-electron integrals computed using PRISM.
 PrsmSu:  requested number of processors reduced to:   3 ShMem   1 Linda.
   1 Symmetry operations used in ECPInt.
 ECPInt:  NShTT=   20706 NPrTT=   51671 LenC2=   20462 LenP2D=   43144.
 LDataN:  DoStor=T MaxTD1= 6 Len=  172
 Number of processors reduced to   7 by ecpmxn.
 NBasis=   589 RedAO= T EigKep=  8.46D-06  NBF=   589
 NBsUse=   589 1.00D-06 EigRej= -1.00D+00 NBFU=   589
 ExpMin= 2.53D-02 ExpMax= 1.53D+04 ExpMxC= 5.22D+02 IAcc=3 IRadAn=         5 AccDes= 0.00D+00
 Harris functional with IExCor=  402 and IRadAn=       5 diagonalized for initial guess.
 HarFok:  IExCor=  402 AccDes= 0.00D+00 IRadAn=         5 IDoV= 1 UseB2=F ITyADJ=14
 ICtDFT=  3500011 ScaDFX=  1.000000  1.000000  1.000000  1.000000
 FoFCou: FMM=F IPFlag=           0 FMFlag=      100000 FMFlg1=           0
         NFxFlg=           0 DoJE=T BraDBF=F KetDBF=T FulRan=T
         wScrn=  0.000000 ICntrl=     500 IOpCl=  0 I1Cent=   200000004 NGrid=           0
         NMat0=    1 NMatS0=      1 NMatT0=    0 NMatD0=    1 NMtDS0=    0 NMtDT0=    0
 Petite list used in FoFCou.
 Requested convergence on RMS density matrix=1.00D-08 within 128 cycles.
 Requested convergence on MAX density matrix=1.00D-06.
 Requested convergence on             energy=1.00D-06.
 No special actions if energy rises.
 SCF Done:  E(RB3LYP) =  -484.145055461     A.U. after   13 cycles
            NFock= 13  Conv=0.73D-08     -V/T= 2.0087
 DoSCS=F DFT=T ScalE2(SS,OS)=  1.000000  1.000000
 Range of M.O.s used for correlation:     1   589
 NBasis=   589 NAE=    34 NBE=    34 NFC=     0 NFV=     0
 NROrb=    589 NOA=    34 NOB=    34 NVA=   555 NVB=   555

 **** Warning!!: The largest alpha MO coefficient is  0.44536244D+02

 PrsmSu:  requested number of processors reduced to:   3 ShMem   1 Linda.
 PrsmSu:  requested number of processors reduced to:   1 ShMem   1 Linda.
   1 Symmetry operations used in ECPInt.
 ECPInt:  NShTT=   20706 NPrTT=   51671 LenC2=   20462 LenP2D=   43144.
 LDataN:  DoStor=T MaxTD1= 7 Len=  274
 Number of processors reduced to   1 by ecpmxn.
 Symmetrizing basis deriv contribution to polar:
 IMax=3 JMax=2 DiffMx= 0.00D+00
 G2DrvN: will do     1 centers at a time, making   20 passes.
 Estimated number of processors is:    6
 Calling FoFCou, ICntrl=  3107 FMM=F I1Cent=   0 AccDes= 0.00D+00.
 CoulSu:  requested number of processors reduced to:   7 ShMem   1 Linda.
 Calling FoFCou, ICntrl=  3107 FMM=F I1Cent=   0 AccDes= 0.00D+00.
 CoulSu:  requested number of processors reduced to:   6 ShMem   1 Linda.
 Calling FoFCou, ICntrl=  3107 FMM=F I1Cent=   0 AccDes= 0.00D+00.
 CoulSu:  requested number of processors reduced to:   6 ShMem   1 Linda.
 Calling FoFCou, ICntrl=  3107 FMM=F I1Cent=   0 AccDes= 0.00D+00.
 CoulSu:  requested number of processors reduced to:   6 ShMem   1 Linda.
 Calling FoFCou, ICntrl=  3107 FMM=F I1Cent=   0 AccDes= 0.00D+00.
 CoulSu:  requested number of processors reduced to:   6 ShMem   1 Linda.
 Calling FoFCou, ICntrl=  3107 FMM=F I1Cent=   0 AccDes= 0.00D+00.
 CoulSu:  requested number of processors reduced to:   6 ShMem   1 Linda.
 Calling FoFCou, ICntrl=  3107 FMM=F I1Cent=   0 AccDes= 0.00D+00.
 CoulSu:  requested number of processors reduced to:   6 ShMem   1 Linda.
 Calling FoFCou, ICntrl=  3107 FMM=F I1Cent=   0 AccDes= 0.00D+00.
 CoulSu:  requested number of processors reduced to:   6 ShMem   1 Linda.
 Calling FoFCou, ICntrl=  3107 FMM=F I1Cent=   0 AccDes= 0.00D+00.
 CoulSu:  requested number of processors reduced to:   6 ShMem   1 Linda.
 Calling FoFCou, ICntrl=  3107 FMM=F I1Cent=   0 AccDes= 0.00D+00.
 CoulSu:  requested number of processors reduced to:   6 ShMem   1 Linda.
 Calling FoFCou, ICntrl=  3107 FMM=F I1Cent=   0 AccDes= 0.00D+00.
 CoulSu:  requested number of processors reduced to:   6 ShMem   1 Linda.
 Calling FoFCou, ICntrl=  3107 FMM=F I1Cent=   0 AccDes= 0.00D+00.
 CoulSu:  requested number of processors reduced to:   6 ShMem   1 Linda.
 Calling FoFCou, ICntrl=  3107 FMM=F I1Cent=   0 AccDes= 0.00D+00.
 CoulSu:  requested number of processors reduced to:   6 ShMem   1 Linda.
 Calling FoFCou, ICntrl=  3107 FMM=F I1Cent=   0 AccDes= 0.00D+00.
 CoulSu:  requested number of processors reduced to:   6 ShMem   1 Linda.
 Calling FoFCou, ICntrl=  3107 FMM=F I1Cent=   0 AccDes= 0.00D+00.
 CoulSu:  requested number of processors reduced to:   6 ShMem   1 Linda.
 Calling FoFCou, ICntrl=  3107 FMM=F I1Cent=   0 AccDes= 0.00D+00.
 CoulSu:  requested number of processors reduced to:   6 ShMem   1 Linda.
 Calling FoFCou, ICntrl=  3107 FMM=F I1Cent=   0 AccDes= 0.00D+00.
 CoulSu:  requested number of processors reduced to:   6 ShMem   1 Linda.
 Calling FoFCou, ICntrl=  3107 FMM=F I1Cent=   0 AccDes= 0.00D+00.
 CoulSu:  requested number of processors reduced to:   6 ShMem   1 Linda.
 Calling FoFCou, ICntrl=  3107 FMM=F I1Cent=   0 AccDes= 0.00D+00.
 CoulSu:  requested number of processors reduced to:   6 ShMem   1 Linda.
 Calling FoFCou, ICntrl=  3107 FMM=F I1Cent=   0 AccDes= 0.00D+00.
 CoulSu:  requested number of processors reduced to:   6 ShMem   1 Linda.
 End of G2Drv F.D. properties file   721 does not exist.
 End of G2Drv F.D. properties file   722 does not exist.
 End of G2Drv F.D. properties file   788 does not exist.
          IDoAtm=1111111111111111111
          Differentiating once with respect to nuclear coordinates.
 CoulSu:  requested number of processors reduced to:   7 ShMem   1 Linda.
 PrRfSu:  requested number of processors reduced to:   4 ShMem   1 Linda.
 CoulSu:  requested number of processors reduced to:   7 ShMem   1 Linda.
 PrRfSu:  requested number of processors reduced to:   4 ShMem   1 Linda.
 CoulSu:  requested number of processors reduced to:   7 ShMem   1 Linda.
 PrRfSu:  requested number of processors reduced to:   4 ShMem   1 Linda.
 CoulSu:  requested number of processors reduced to:   7 ShMem   1 Linda.
 PrRfSu:  requested number of processors reduced to:   4 ShMem   1 Linda.
 CoulSu:  requested number of processors reduced to:   7 ShMem   1 Linda.
 PrRfSu:  requested number of processors reduced to:   4 ShMem   1 Linda.
 CoulSu:  requested number of processors reduced to:   7 ShMem   1 Linda.
 PrRfSu:  requested number of processors reduced to:   4 ShMem   1 Linda.
 CoulSu:  requested number of processors reduced to:   7 ShMem   1 Linda.
 PrRfSu:  requested number of processors reduced to:   4 ShMem   1 Linda.
 CoulSu:  requested number of processors reduced to:   7 ShMem   1 Linda.
 PrRfSu:  requested number of processors reduced to:   4 ShMem   1 Linda.
          There are    60 degrees of freedom in the 1st order CPHF.  IDoFFX=6 NUNeed=     0.
     57 vectors produced by pass  0 Test12= 3.15D-14 1.67D-09 XBig12= 3.36D-01 6.19D-02.
 AX will form     7 AO Fock derivatives at one time.
 CoulSu:  requested number of processors reduced to:   7 ShMem   1 Linda.
 PrRfSu:  requested number of processors reduced to:   4 ShMem   1 Linda.
 CoulSu:  requested number of processors reduced to:   7 ShMem   1 Linda.
 PrRfSu:  requested number of processors reduced to:   4 ShMem   1 Linda.
 CoulSu:  requested number of processors reduced to:   7 ShMem   1 Linda.
 PrRfSu:  requested number of processors reduced to:   4 ShMem   1 Linda.
 CoulSu:  requested number of processors reduced to:   7 ShMem   1 Linda.
 PrRfSu:  requested number of processors reduced to:   4 ShMem   1 Linda.
 CoulSu:  requested number of processors reduced to:   7 ShMem   1 Linda.
 PrRfSu:  requested number of processors reduced to:   4 ShMem   1 Linda.
 CoulSu:  requested number of processors reduced to:   7 ShMem   1 Linda.
 PrRfSu:  requested number of processors reduced to:   4 ShMem   1 Linda.
 CoulSu:  requested number of processors reduced to:   7 ShMem   1 Linda.
 PrRfSu:  requested number of processors reduced to:   4 ShMem   1 Linda.
 CoulSu:  requested number of processors reduced to:   7 ShMem   1 Linda.
 PrRfSu:  requested number of processors reduced to:   4 ShMem   1 Linda.
     57 vectors produced by pass  1 Test12= 3.15D-14 1.67D-09 XBig12= 6.32D-02 3.72D-02.
 CoulSu:  requested number of processors reduced to:   7 ShMem   1 Linda.
 PrRfSu:  requested number of processors reduced to:   4 ShMem   1 Linda.
 CoulSu:  requested number of processors reduced to:   7 ShMem   1 Linda.
 PrRfSu:  requested number of processors reduced to:   4 ShMem   1 Linda.
 CoulSu:  requested number of processors reduced to:   7 ShMem   1 Linda.
 PrRfSu:  requested number of processors reduced to:   4 ShMem   1 Linda.
 CoulSu:  requested number of processors reduced to:   7 ShMem   1 Linda.
 PrRfSu:  requested number of processors reduced to:   4 ShMem   1 Linda.
 CoulSu:  requested number of processors reduced to:   7 ShMem   1 Linda.
 PrRfSu:  requested number of processors reduced to:   4 ShMem   1 Linda.
 CoulSu:  requested number of processors reduced to:   7 ShMem   1 Linda.
 PrRfSu:  requested number of processors reduced to:   4 ShMem   1 Linda.
 CoulSu:  requested number of processors reduced to:   7 ShMem   1 Linda.
 PrRfSu:  requested number of processors reduced to:   4 ShMem   1 Linda.
 CoulSu:  requested number of processors reduced to:   7 ShMem   1 Linda.
 PrRfSu:  requested number of processors reduced to:   4 ShMem   1 Linda.
     54 vectors produced by pass  2 Test12= 3.15D-14 1.67D-09 XBig12= 6.70D-04 2.43D-03.
 CoulSu:  requested number of processors reduced to:   7 ShMem   1 Linda.
 PrRfSu:  requested number of processors reduced to:   4 ShMem   1 Linda.
 CoulSu:  requested number of processors reduced to:   7 ShMem   1 Linda.
 PrRfSu:  requested number of processors reduced to:   4 ShMem   1 Linda.
 CoulSu:  requested number of processors reduced to:   7 ShMem   1 Linda.
 PrRfSu:  requested number of processors reduced to:   4 ShMem   1 Linda.
 CoulSu:  requested number of processors reduced to:   7 ShMem   1 Linda.
 PrRfSu:  requested number of processors reduced to:   4 ShMem   1 Linda.
 CoulSu:  requested number of processors reduced to:   7 ShMem   1 Linda.
 PrRfSu:  requested number of processors reduced to:   4 ShMem   1 Linda.
 CoulSu:  requested number of processors reduced to:   7 ShMem   1 Linda.
 PrRfSu:  requested number of processors reduced to:   4 ShMem   1 Linda.
 CoulSu:  requested number of processors reduced to:   7 ShMem   1 Linda.
 PrRfSu:  requested number of processors reduced to:   4 ShMem   1 Linda.
     54 vectors produced by pass  3 Test12= 3.15D-14 1.67D-09 XBig12= 3.14D-06 2.00D-04.
 CoulSu:  requested number of processors reduced to:   7 ShMem   1 Linda.
 PrRfSu:  requested number of processors reduced to:   4 ShMem   1 Linda.
 CoulSu:  requested number of processors reduced to:   7 ShMem   1 Linda.
 PrRfSu:  requested number of processors reduced to:   4 ShMem   1 Linda.
 CoulSu:  requested number of processors reduced to:   7 ShMem   1 Linda.
 PrRfSu:  requested number of processors reduced to:   4 ShMem   1 Linda.
 CoulSu:  requested number of processors reduced to:   7 ShMem   1 Linda.
 PrRfSu:  requested number of processors reduced to:   4 ShMem   1 Linda.
 CoulSu:  requested number of processors reduced to:   7 ShMem   1 Linda.
 PrRfSu:  requested number of processors reduced to:   4 ShMem   1 Linda.
 CoulSu:  requested number of processors reduced to:   7 ShMem   1 Linda.
 PrRfSu:  requested number of processors reduced to:   4 ShMem   1 Linda.
 CoulSu:  requested number of processors reduced to:   7 ShMem   1 Linda.
 PrRfSu:  requested number of processors reduced to:   4 ShMem   1 Linda.
     54 vectors produced by pass  4 Test12= 3.15D-14 1.67D-09 XBig12= 8.32D-09 7.34D-06.
 CoulSu:  requested number of processors reduced to:   7 ShMem   1 Linda.
 PrRfSu:  requested number of processors reduced to:   4 ShMem   1 Linda.
 CoulSu:  requested number of processors reduced to:   7 ShMem   1 Linda.
 PrRfSu:  requested number of processors reduced to:   4 ShMem   1 Linda.
 CoulSu:  requested number of processors reduced to:   7 ShMem   1 Linda.
 PrRfSu:  requested number of processors reduced to:   4 ShMem   1 Linda.
 CoulSu:  requested number of processors reduced to:   7 ShMem   1 Linda.
 PrRfSu:  requested number of processors reduced to:   4 ShMem   1 Linda.
 CoulSu:  requested number of processors reduced to:   7 ShMem   1 Linda.
 PrRfSu:  requested number of processors reduced to:   4 ShMem   1 Linda.
 CoulSu:  requested number of processors reduced to:   7 ShMem   1 Linda.
 PrRfSu:  requested number of processors reduced to:   4 ShMem   1 Linda.
 CoulSu:  requested number of processors reduced to:   7 ShMem   1 Linda.
 PrRfSu:  requested number of processors reduced to:   4 ShMem   1 Linda.
     54 vectors produced by pass  5 Test12= 3.15D-14 1.67D-09 XBig12= 1.85D-11 4.08D-07.
 CoulSu:  requested number of processors reduced to:   7 ShMem   1 Linda.
 PrRfSu:  requested number of processors reduced to:   4 ShMem   1 Linda.
 CoulSu:  requested number of processors reduced to:   7 ShMem   1 Linda.
 PrRfSu:  requested number of processors reduced to:   4 ShMem   1 Linda.
 CoulSu:  requested number of processors reduced to:   7 ShMem   1 Linda.
 PrRfSu:  requested number of processors reduced to:   4 ShMem   1 Linda.
 CoulSu:  requested number of processors reduced to:   7 ShMem   1 Linda.
 PrRfSu:  requested number of processors reduced to:   4 ShMem   1 Linda.
 CoulSu:  requested number of processors reduced to:   7 ShMem   1 Linda.
 PrRfSu:  requested number of processors reduced to:   4 ShMem   1 Linda.
 CoulSu:  requested number of processors reduced to:   7 ShMem   1 Linda.
 PrRfSu:  requested number of processors reduced to:   4 ShMem   1 Linda.
 CoulSu:  requested number of processors reduced to:   7 ShMem   1 Linda.
 PrRfSu:  requested number of processors reduced to:   4 ShMem   1 Linda.
     37 vectors produced by pass  6 Test12= 3.15D-14 1.67D-09 XBig12= 1.64D-13 2.37D-08.
 CoulSu:  requested number of processors reduced to:   7 ShMem   1 Linda.
 PrRfSu:  requested number of processors reduced to:   4 ShMem   1 Linda.
 CoulSu:  requested number of processors reduced to:   7 ShMem   1 Linda.
 PrRfSu:  requested number of processors reduced to:   4 ShMem   1 Linda.
 CoulSu:  requested number of processors reduced to:   7 ShMem   1 Linda.
 PrRfSu:  requested number of processors reduced to:   4 ShMem   1 Linda.
 CoulSu:  requested number of processors reduced to:   7 ShMem   1 Linda.
 PrRfSu:  requested number of processors reduced to:   4 ShMem   1 Linda.
 CoulSu:  requested number of processors reduced to:   7 ShMem   1 Linda.
 PrRfSu:  requested number of processors reduced to:   4 ShMem   1 Linda.
      2 vectors produced by pass  7 Test12= 3.15D-14 1.67D-09 XBig12= 1.97D-15 3.55D-09.
 InvSVY:  IOpt=1 It=  1 EMax= 1.22D-15
 Solved reduced A of dimension   369 with    60 vectors.
 End of Minotr F.D. properties file   721 does not exist.
 End of Minotr F.D. properties file   722 does not exist.
 End of Minotr F.D. properties file   788 does not exist.

 **********************************************************************

            Population analysis using the SCF density.

 **********************************************************************

 Orbital symmetries:
       Occupied  (A) (A) (A) (A) (A) (A) (A) (A) (A) (A) (A) (A)
                 (A) (A) (A) (A) (A) (A) (A) (A) (A) (A) (A) (A)
                 (A) (A) (A) (A) (A) (A) (A) (A) (A) (A)
       Virtual   (A) (A) (A) (A) (A) (A) (A) (A) (A) (A) (A) (A)
                 (A) (A) (A) (A) (A) (A) (A) (A) (A) (A) (A) (A)
                 (A) (A) (A) (A) (A) (A) (A) (A) (A) (A) (A) (A)
                 (A) (A) (A) (A) (A) (A) (A) (A) (A) (A) (A) (A)
                 (A) (A) (A) (A) (A) (A) (A) (A) (A) (A) (A) (A)
                 (A) (A) (A) (A) (A) (A) (A) (A) (A) (A) (A) (A)
                 (A) (A) (A) (A) (A) (A) (A) (A) (A) (A) (A) (A)
                 (A) (A) (A) (A) (A) (A) (A) (A) (A) (A) (A) (A)
                 (A) (A) (A) (A) (A) (A) (A) (A) (A) (A) (A) (A)
                 (A) (A) (A) (A) (A) (A) (A) (A) (A) (A) (A) (A)
                 (A) (A) (A) (A) (A) (A) (A) (A) (A) (A) (A) (A)
                 (A) (A) (A) (A) (A) (A) (A) (A) (A) (A) (A) (A)
                 (A) (A) (A) (A) (A) (A) (A) (A) (A) (A) (A) (A)
                 (A) (A) (A) (A) (A) (A) (A) (A) (A) (A) (A) (A)
                 (A) (A) (A) (A) (A) (A) (A) (A) (A) (A) (A) (A)
                 (A) (A) (A) (A) (A) (A) (A) (A) (A) (A) (A) (A)
                 (A) (A) (A) (A) (A) (A) (A) (A) (A) (A) (A) (A)
                 (A) (A) (A) (A) (A) (A) (A) (A) (A) (A) (A) (A)
                 (A) (A) (A) (A) (A) (A) (A) (A) (A) (A) (A) (A)
                 (A) (A) (A) (A) (A) (A) (A) (A) (A) (A) (A) (A)
                 (A) (A) (A) (A) (A) (A) (A) (A) (A) (A) (A) (A)
                 (A) (A) (A) (A) (A) (A) (A) (A) (A) (A) (A) (A)
                 (A) (A) (A) (A) (A) (A) (A) (A) (A) (A) (A) (A)
                 (A) (A) (A) (A) (A) (A) (A) (A) (A) (A) (A) (A)
                 (A) (A) (A) (A) (A) (A) (A) (A) (A) (A) (A) (A)
                 (A) (A) (A) (A) (A) (A) (A) (A) (A) (A) (A) (A)
                 (A) (A) (A) (A) (A) (A) (A) (A) (A) (A) (A) (A)
                 (A) (A) (A) (A) (A) (A) (A) (A) (A) (A) (A) (A)
                 (A) (A) (A) (A) (A) (A) (A) (A) (A) (A) (A) (A)
                 (A) (A) (A) (A) (A) (A) (A) (A) (A) (A) (A) (A)
                 (A) (A) (A) (A) (A) (A) (A) (A) (A) (A) (A) (A)
                 (A) (A) (A) (A) (A) (A) (A) (A) (A) (A) (A) (A)
                 (A) (A) (A) (A) (A) (A) (A) (A) (A) (A) (A) (A)
                 (A) (A) (A) (A) (A) (A) (A) (A) (A) (A) (A) (A)
                 (A) (A) (A) (A) (A) (A) (A) (A) (A) (A) (A) (A)
                 (A) (A) (A) (A) (A) (A) (A) (A) (A) (A) (A) (A)
                 (A) (A) (A) (A) (A) (A) (A) (A) (A) (A) (A) (A)
                 (A) (A) (A) (A) (A) (A) (A) (A) (A) (A) (A) (A)
                 (A) (A) (A) (A) (A) (A) (A) (A) (A) (A) (A) (A)
                 (A) (A) (A) (A) (A) (A) (A) (A) (A) (A) (A) (A)
                 (A) (A) (A) (A) (A) (A) (A) (A) (A) (A) (A) (A)
                 (A) (A) (A) (A) (A) (A) (A) (A) (A) (A) (A) (A)
                 (A) (A) (A) (A) (A) (A) (A) (A) (A) (A) (A) (A)
                 (A) (A) (A) (A) (A) (A) (A) (A) (A) (A) (A) (A)
                 (A) (A) (A) (A) (A) (A) (A) (A) (A) (A) (A) (A)
                 (A) (A) (A) (A) (A) (A) (A) (A) (A) (A) (A) (A)
                 (A) (A) (A)
 The electronic state is 1-A.
 Alpha  occ. eigenvalues --  -24.56590 -19.16604 -19.16310 -19.07822 -10.33839
 Alpha  occ. eigenvalues --  -10.23759 -10.23710 -10.18457  -1.22606  -1.05920
 Alpha  occ. eigenvalues --   -1.02519  -0.98859  -0.75553  -0.71122  -0.69735
 Alpha  occ. eigenvalues --   -0.59722  -0.54419  -0.53613  -0.52272  -0.49262
 Alpha  occ. eigenvalues --   -0.47262  -0.46081  -0.45449  -0.45151  -0.41624
 Alpha  occ. eigenvalues --   -0.41098  -0.40336  -0.38457  -0.37088  -0.36159
 Alpha  occ. eigenvalues --   -0.34785  -0.30216  -0.27431  -0.26082
 Alpha virt. eigenvalues --   -0.01959  -0.00384   0.00399   0.00611   0.01968
 Alpha virt. eigenvalues --    0.02075   0.02886   0.03337   0.04106   0.04930
 Alpha virt. eigenvalues --    0.05188   0.05379   0.06183   0.06478   0.06736
 Alpha virt. eigenvalues --    0.07841   0.08239   0.08471   0.08579   0.09403
 Alpha virt. eigenvalues --    0.09485   0.09859   0.10148   0.10448   0.10734
 Alpha virt. eigenvalues --    0.10906   0.11666   0.11793   0.12690   0.13716
 Alpha virt. eigenvalues --    0.14199   0.14818   0.15271   0.15718   0.15880
 Alpha virt. eigenvalues --    0.16565   0.17540   0.18192   0.18635   0.18881
 Alpha virt. eigenvalues --    0.20073   0.20730   0.21219   0.21831   0.21983
 Alpha virt. eigenvalues --    0.22592   0.23829   0.24178   0.24441   0.25124
 Alpha virt. eigenvalues --    0.25819   0.25844   0.26013   0.26558   0.27218
 Alpha virt. eigenvalues --    0.27284   0.28341   0.28505   0.29217   0.29407
 Alpha virt. eigenvalues --    0.30207   0.30456   0.30882   0.31015   0.32038
 Alpha virt. eigenvalues --    0.32597   0.32865   0.33360   0.33844   0.34062
 Alpha virt. eigenvalues --    0.35023   0.35308   0.35787   0.36343   0.36553
 Alpha virt. eigenvalues --    0.37012   0.37364   0.37935   0.38435   0.39417
 Alpha virt. eigenvalues --    0.39680   0.40143   0.40271   0.41098   0.41352
 Alpha virt. eigenvalues --    0.42131   0.42410   0.43266   0.43736   0.44379
 Alpha virt. eigenvalues --    0.45014   0.45723   0.45943   0.46716   0.47354
 Alpha virt. eigenvalues --    0.48181   0.49620   0.50095   0.50285   0.50931
 Alpha virt. eigenvalues --    0.51615   0.52862   0.53226   0.54018   0.54970
 Alpha virt. eigenvalues --    0.55499   0.56245   0.57096   0.57200   0.58855
 Alpha virt. eigenvalues --    0.59323   0.60585   0.61428   0.61906   0.62638
 Alpha virt. eigenvalues --    0.64496   0.65601   0.65634   0.67282   0.67516
 Alpha virt. eigenvalues --    0.67727   0.68840   0.69414   0.70052   0.70336
 Alpha virt. eigenvalues --    0.71066   0.71749   0.72718   0.73713   0.74202
 Alpha virt. eigenvalues --    0.74776   0.75445   0.75818   0.77383   0.78306
 Alpha virt. eigenvalues --    0.78770   0.79325   0.79653   0.79952   0.80763
 Alpha virt. eigenvalues --    0.81793   0.82108   0.82500   0.83428   0.84132
 Alpha virt. eigenvalues --    0.85415   0.85494   0.86267   0.86855   0.88362
 Alpha virt. eigenvalues --    0.88714   0.89073   0.90040   0.90251   0.91525
 Alpha virt. eigenvalues --    0.92182   0.92878   0.92985   0.93536   0.94358
 Alpha virt. eigenvalues --    0.95294   0.95615   0.96753   0.97451   0.98548
 Alpha virt. eigenvalues --    0.99009   0.99549   1.00338   1.00713   1.01606
 Alpha virt. eigenvalues --    1.01949   1.02739   1.03722   1.04169   1.04230
 Alpha virt. eigenvalues --    1.05181   1.06251   1.06949   1.07714   1.08794
 Alpha virt. eigenvalues --    1.10417   1.11122   1.11422   1.12192   1.12876
 Alpha virt. eigenvalues --    1.13686   1.14998   1.15574   1.16854   1.17754
 Alpha virt. eigenvalues --    1.18448   1.20296   1.21088   1.21354   1.21540
 Alpha virt. eigenvalues --    1.23119   1.23632   1.24935   1.25304   1.26402
 Alpha virt. eigenvalues --    1.27636   1.28278   1.29839   1.30244   1.30632
 Alpha virt. eigenvalues --    1.30933   1.32499   1.33222   1.33877   1.34616
 Alpha virt. eigenvalues --    1.35237   1.36481   1.37980   1.38856   1.39728
 Alpha virt. eigenvalues --    1.40812   1.41121   1.41735   1.42934   1.43584
 Alpha virt. eigenvalues --    1.44761   1.45452   1.46051   1.47339   1.48892
 Alpha virt. eigenvalues --    1.49277   1.49446   1.50965   1.51563   1.52125
 Alpha virt. eigenvalues --    1.52526   1.54230   1.54336   1.55172   1.56030
 Alpha virt. eigenvalues --    1.57137   1.57355   1.58235   1.59415   1.59863
 Alpha virt. eigenvalues --    1.60584   1.62773   1.63428   1.64356   1.65127
 Alpha virt. eigenvalues --    1.65595   1.66837   1.67552   1.67831   1.69599
 Alpha virt. eigenvalues --    1.70397   1.71310   1.72303   1.73087   1.73603
 Alpha virt. eigenvalues --    1.74528   1.75317   1.78495   1.78814   1.80495
 Alpha virt. eigenvalues --    1.81003   1.83294   1.84019   1.84356   1.85851
 Alpha virt. eigenvalues --    1.86707   1.87675   1.89886   1.90621   1.91133
 Alpha virt. eigenvalues --    1.93062   1.93127   1.94756   1.95971   1.98795
 Alpha virt. eigenvalues --    1.98910   1.99533   2.00330   2.02088   2.02309
 Alpha virt. eigenvalues --    2.03115   2.03791   2.04737   2.05047   2.06623
 Alpha virt. eigenvalues --    2.08268   2.08887   2.10697   2.12021   2.15157
 Alpha virt. eigenvalues --    2.16763   2.20130   2.22791   2.23067   2.24196
 Alpha virt. eigenvalues --    2.28746   2.30166   2.32270   2.34545   2.36252
 Alpha virt. eigenvalues --    2.38043   2.38936   2.40524   2.41823   2.43188
 Alpha virt. eigenvalues --    2.43927   2.46514   2.48086   2.51187   2.52125
 Alpha virt. eigenvalues --    2.52862   2.53743   2.57151   2.58735   2.60304
 Alpha virt. eigenvalues --    2.63288   2.63730   2.65046   2.67273   2.69938
 Alpha virt. eigenvalues --    2.72628   2.73436   2.74600   2.76785   2.77790
 Alpha virt. eigenvalues --    2.78912   2.79497   2.82718   2.84435   2.87214
 Alpha virt. eigenvalues --    2.89901   2.91379   2.92041   2.93439   2.95823
 Alpha virt. eigenvalues --    2.99213   3.00452   3.03008   3.04278   3.05370
 Alpha virt. eigenvalues --    3.09252   3.10914   3.12566   3.14039   3.15099
 Alpha virt. eigenvalues --    3.18484   3.19898   3.22464   3.24009   3.25058
 Alpha virt. eigenvalues --    3.27488   3.29235   3.29931   3.31243   3.31627
 Alpha virt. eigenvalues --    3.33692   3.34346   3.35510   3.37354   3.39020
 Alpha virt. eigenvalues --    3.39666   3.41987   3.42437   3.43543   3.44779
 Alpha virt. eigenvalues --    3.45834   3.46527   3.49051   3.50722   3.51972
 Alpha virt. eigenvalues --    3.52981   3.54014   3.55387   3.56132   3.57606
 Alpha virt. eigenvalues --    3.58162   3.59787   3.61214   3.62103   3.64009
 Alpha virt. eigenvalues --    3.65062   3.67711   3.68744   3.69886   3.72432
 Alpha virt. eigenvalues --    3.73102   3.74467   3.74620   3.76805   3.77545
 Alpha virt. eigenvalues --    3.79909   3.81076   3.84849   3.85837   3.86618
 Alpha virt. eigenvalues --    3.88401   3.88771   3.90574   3.90971   3.92399
 Alpha virt. eigenvalues --    3.93831   3.95692   3.97008   3.98688   3.99043
 Alpha virt. eigenvalues --    4.00866   4.02304   4.03215   4.04391   4.07900
 Alpha virt. eigenvalues --    4.08586   4.08939   4.11555   4.12787   4.14620
 Alpha virt. eigenvalues --    4.15311   4.16862   4.17766   4.21145   4.21746
 Alpha virt. eigenvalues --    4.23783   4.24697   4.27070   4.27505   4.28488
 Alpha virt. eigenvalues --    4.32043   4.33123   4.37535   4.38188   4.40159
 Alpha virt. eigenvalues --    4.41974   4.42712   4.45633   4.46044   4.47042
 Alpha virt. eigenvalues --    4.47507   4.49156   4.50700   4.51111   4.51403
 Alpha virt. eigenvalues --    4.51840   4.55199   4.55969   4.58027   4.58448
 Alpha virt. eigenvalues --    4.61423   4.63152   4.66143   4.69529   4.70898
 Alpha virt. eigenvalues --    4.72986   4.73217   4.75064   4.76272   4.78041
 Alpha virt. eigenvalues --    4.79396   4.82121   4.83531   4.84763   4.85103
 Alpha virt. eigenvalues --    4.88003   4.89782   4.93502   4.96276   4.97691
 Alpha virt. eigenvalues --    4.98729   4.99466   5.01452   5.05561   5.06407
 Alpha virt. eigenvalues --    5.08181   5.08575   5.13340   5.14502   5.19379
 Alpha virt. eigenvalues --    5.20004   5.23160   5.23340   5.25437   5.27459
 Alpha virt. eigenvalues --    5.29940   5.32300   5.33669   5.36932   5.39806
 Alpha virt. eigenvalues --    5.42016   5.44216   5.49912   5.53088   5.56789
 Alpha virt. eigenvalues --    5.63191   5.64155   5.65689   5.68811   5.70542
 Alpha virt. eigenvalues --    5.70855   5.73570   5.75405   5.78294   5.79689
 Alpha virt. eigenvalues --    5.82669   5.87976   5.97535   6.05564   6.16163
 Alpha virt. eigenvalues --    6.23828   6.31397   6.34877   6.36816   6.38802
 Alpha virt. eigenvalues --    6.40039   6.50095   6.53904   6.58449   6.61771
 Alpha virt. eigenvalues --    6.64866   6.66936   6.69125   6.71816   6.74338
 Alpha virt. eigenvalues --    6.76849   6.80291   6.81580   6.85333   6.87128
 Alpha virt. eigenvalues --    6.90902   6.93348   7.01224   7.02236   7.04654
 Alpha virt. eigenvalues --    7.09730   7.15901   7.18032   7.23365   7.25386
 Alpha virt. eigenvalues --    7.27149   7.30250   7.43020   7.45197   7.51502
 Alpha virt. eigenvalues --    7.57821   7.62296   7.74551   7.79173   7.85279
 Alpha virt. eigenvalues --    7.98547   8.13248   8.37243  14.94686  15.20837
 Alpha virt. eigenvalues --   15.40532  16.46728  17.12951  17.62620  18.06969
          Condensed to atoms (all electrons):
               1          2          3          4          5          6
     1  C   14.150919  -1.408591  -0.212962  -0.081084  -0.064058   0.027671
     2  O   -1.408591   9.553964   0.013745  -0.115759   0.019941  -0.027013
     3  O   -0.212962   0.013745   8.991649  -0.239565   0.003182  -0.006230
     4  O   -0.081084  -0.115759  -0.239565   8.695531   0.057766   0.007780
     5  C   -0.064058   0.019941   0.003182   0.057766   5.380773   0.335602
     6  H    0.027671  -0.027013  -0.006230   0.007780   0.335602   0.377920
     7  H   -0.013155   0.008150   0.000912  -0.004015   0.384777  -0.013606
     8  H   -0.021581   0.001970  -0.004530  -0.025172   0.436083  -0.023563
     9  H   -0.223576   0.031004   0.120904   0.109299   0.020929  -0.011362
    10  H    0.181447   0.003097   0.055411  -0.010974  -0.045097   0.012960
    11  C   -7.044535   0.720810  -0.023203   0.063017   0.040902  -0.002122
    12  H   -0.859418   0.066854   0.048135   0.008516   0.001451   0.001827
    13  H    0.324961   0.053132  -0.057145  -0.008115   0.000690  -0.001610
    14  H    0.136955  -0.059402  -0.038058   0.001366   0.001525  -0.000236
    15  C    0.155706  -0.002985  -0.126278  -0.048126  -0.021295   0.005811
    16  H    0.109983  -0.028606  -0.192104  -0.005998  -0.007352  -0.000580
    17  H   -0.005555  -0.018429  -0.091749  -0.013362  -0.003529   0.007552
    18  H   -0.337104   0.124821   0.048722  -0.013979   0.012316  -0.010712
    19  F   -0.039816   0.046090  -0.061404  -0.027034  -0.002704  -0.001167
               7          8          9         10         11         12
     1  C   -0.013155  -0.021581  -0.223576   0.181447  -7.044535  -0.859418
     2  O    0.008150   0.001970   0.031004   0.003097   0.720810   0.066854
     3  O    0.000912  -0.004530   0.120904   0.055411  -0.023203   0.048135
     4  O   -0.004015  -0.025172   0.109299  -0.010974   0.063017   0.008516
     5  C    0.384777   0.436083   0.020929  -0.045097   0.040902   0.001451
     6  H   -0.013606  -0.023563  -0.011362   0.012960  -0.002122   0.001827
     7  H    0.383764  -0.017094   0.001429   0.008046   0.002400  -0.000383
     8  H   -0.017094   0.455843   0.004021  -0.038140   0.010058  -0.000198
     9  H    0.001429   0.004021   0.669959  -0.004324   0.143517   0.012103
    10  H    0.008046  -0.038140  -0.004324   0.707340  -0.105743  -0.007551
    11  C    0.002400   0.010058   0.143517  -0.105743  11.603471   1.018341
    12  H   -0.000383  -0.000198   0.012103  -0.007551   1.018341   0.768742
    13  H    0.000572   0.000492  -0.013457  -0.002899  -0.111010  -0.190132
    14  H    0.000219   0.001389  -0.001809  -0.005848   0.262657  -0.069425
    15  C   -0.001510   0.000133  -0.090674   0.026837  -0.125518  -0.017561
    16  H   -0.000469  -0.001026  -0.013555   0.008376  -0.043455  -0.014194
    17  H   -0.010700   0.002064  -0.017443  -0.003291   0.045394  -0.000197
    18  H    0.003092  -0.001192   0.026294  -0.009378   0.165699   0.006945
    19  F    0.000320   0.000149  -0.008625   0.013704   0.390274   0.043058
              13         14         15         16         17         18
     1  C    0.324961   0.136955   0.155706   0.109983  -0.005555  -0.337104
     2  O    0.053132  -0.059402  -0.002985  -0.028606  -0.018429   0.124821
     3  O   -0.057145  -0.038058  -0.126278  -0.192104  -0.091749   0.048722
     4  O   -0.008115   0.001366  -0.048126  -0.005998  -0.013362  -0.013979
     5  C    0.000690   0.001525  -0.021295  -0.007352  -0.003529   0.012316
     6  H   -0.001610  -0.000236   0.005811  -0.000580   0.007552  -0.010712
     7  H    0.000572   0.000219  -0.001510  -0.000469  -0.010700   0.003092
     8  H    0.000492   0.001389   0.000133  -0.001026   0.002064  -0.001192
     9  H   -0.013457  -0.001809  -0.090674  -0.013555  -0.017443   0.026294
    10  H   -0.002899  -0.005848   0.026837   0.008376  -0.003291  -0.009378
    11  C   -0.111010   0.262657  -0.125518  -0.043455   0.045394   0.165699
    12  H   -0.190132  -0.069425  -0.017561  -0.014194  -0.000197   0.006945
    13  H    0.747009  -0.026565   0.038957   0.016800   0.000640   0.007720
    14  H   -0.026565   0.610871   0.000169  -0.003325   0.010559  -0.011921
    15  C    0.038957   0.000169   5.653584   0.458169   0.376571   0.268571
    16  H    0.016800  -0.003325   0.458169   0.514434   0.009646  -0.035088
    17  H    0.000640   0.010559   0.376571   0.009646   0.559239  -0.062839
    18  H    0.007720  -0.011921   0.268571  -0.035088  -0.062839   0.525748
    19  F   -0.035908  -0.003132   0.012365   0.005493   0.000613   0.005090
              19
     1  C   -0.039816
     2  O    0.046090
     3  O   -0.061404
     4  O   -0.027034
     5  C   -0.002704
     6  H   -0.001167
     7  H    0.000320
     8  H    0.000149
     9  H   -0.008625
    10  H    0.013704
    11  C    0.390274
    12  H    0.043058
    13  H   -0.035908
    14  H   -0.003132
    15  C    0.012365
    16  H    0.005493
    17  H    0.000613
    18  H    0.005090
    19  F    8.826175
 Mulliken charges:
               1
     1  C    1.223793
     2  O   -0.982792
     3  O   -0.229432
     4  O   -0.350092
     5  C   -0.551903
     6  H    0.321077
     7  H    0.267252
     8  H    0.220294
     9  H    0.245367
    10  H    0.216026
    11  C   -1.010955
    12  H    0.183088
    13  H    0.255868
    14  H    0.194009
    15  C   -0.562923
    16  H    0.222852
    17  H    0.214817
    18  H    0.287194
    19  F   -0.163541
 Sum of Mulliken charges =   0.00000
 Mulliken charges with hydrogens summed into heavy atoms:
               1
     1  C    1.223793
     2  O   -0.982792
     3  O    0.015934
     4  O   -0.134066
     5  C    0.256720
    11  C   -0.377990
    15  C    0.161940
    19  F   -0.163541
 APT charges:
               1
     1  C    0.819234
     2  O   -0.883541
     3  O   -0.223262
     4  O   -0.363805
     5  C   -1.527084
     6  H    0.224775
     7  H    0.642152
     8  H    0.842969
     9  H    0.391999
    10  H    0.368581
    11  C   -2.059130
    12  H    0.571804
    13  H    0.654455
    14  H    0.602148
    15  C   -1.489736
    16  H    0.610248
    17  H    0.607562
    18  H    0.374658
    19  F   -0.164029
 Sum of APT charges =   0.00000
 APT charges with hydrogens summed into heavy atoms:
               1
     1  C    0.819234
     2  O   -0.883541
     3  O    0.168737
     4  O    0.004776
     5  C    0.182812
    11  C   -0.230722
    15  C    0.102732
    19  F   -0.164029
 Electronic spatial extent (au):  <R**2>=           1147.1219
 Charge=              0.0000 electrons
 Dipole moment (field-independent basis, Debye):
    X=             -1.1969    Y=              3.6609    Z=              1.0765  Tot=              3.9993
 Quadrupole moment (field-independent basis, Debye-Ang):
   XX=            -40.8537   YY=            -49.0807   ZZ=            -54.2091
   XY=              0.9139   XZ=              0.3433   YZ=             -0.4066
 Traceless Quadrupole moment (field-independent basis, Debye-Ang):
   XX=              7.1941   YY=             -1.0329   ZZ=             -6.1613
   XY=              0.9139   XZ=              0.3433   YZ=             -0.4066
 Octapole moment (field-independent basis, Debye-Ang**2):
  XXX=             -6.0891  YYY=             -1.2857  ZZZ=             -8.0162  XYY=             -2.2516
  XXY=             -0.8686  XXZ=              7.1213  XZZ=             -1.0951  YZZ=              1.6799
  YYZ=             -3.2424  XYZ=              1.8556
 Hexadecapole moment (field-independent basis, Debye-Ang**3):
 XXXX=           -832.1889 YYYY=           -367.3629 ZZZZ=           -190.2593 XXXY=             -6.5026
 XXXZ=            -10.4191 YYYX=              1.2580 YYYZ=             -0.2947 ZZZX=             -3.9028
 ZZZY=             10.1019 XXYY=           -206.8268 XXZZ=           -181.1207 YYZZ=            -95.6329
 XXYZ=            -13.9920 YYXZ=             -1.5452 ZZXY=             -2.1876
[...]
 064304,0.00004870,0.00903976,-0.00697933,-0.01167101,-0.03967031,-0.14
 603132,-0.11349378,0.03722527,0.15521136,-0.00032721,-0.00088354,0.000
 73271,0.00190623,0.00023767,0.00030025,0.00097247,0.00144027,-0.000172
 92,0.01003169,-0.01024239,-0.00895919,-0.04847217,-0.11410076,-0.19422
 240,0.04572959,0.13252154,0.20963366,0.00092148,0.00117553,-0.00206443
 ,-0.00397892,-0.00076972,-0.00121208,-0.00036672,-0.00104842,0.0005493
 7,-0.02911897,0.02135283,-0.01786382,-0.10509007,0.05589186,-0.0884342
 0,-0.00222328,0.00303192,-0.00699173,0.12484369,-0.00049842,-0.0001714
 0,0.00072573,0.00190186,0.00021613,0.00072551,0.00054360,0.00035272,0.
 00002395,0.01406582,-0.00663137,0.00642009,0.05902386,-0.11316948,0.09
 270936,-0.01042045,0.01187047,-0.01450188,-0.07315525,0.11895105,0.000
 01181,-0.00016373,0.00041020,0.00138274,0.00018550,0.00085460,-0.00036
 445,-0.00016506,-0.00012893,0.01281661,-0.01196577,0.01614994,-0.09663
 120,0.09822117,-0.19568298,-0.01007180,0.01232645,-0.01567151,0.097234
 45,-0.10171159,0.20259433,0.00069764,-0.00106535,0.00073252,-0.0004736
 4,0.00049023,-0.00083261,-0.00360151,-0.00236345,-0.00044186,-0.031596
 39,-0.01749575,0.01833025,-0.12216561,-0.10782927,0.04143429,-0.002580
 19,-0.00755580,0.00157594,0.01113292,0.01180261,-0.00464653,0.14433921
 ,0.00003760,0.00010836,-0.00019494,-0.00022714,-0.00011058,0.00002200,
 0.00155195,0.00131726,0.00004551,0.01374137,0.01713012,-0.00879604,-0.
 11611549,-0.21329089,0.06941037,-0.00925996,-0.01369443,0.00673935,-0.
 00806616,-0.01093425,0.00355857,0.11842661,0.22146131,-0.00038562,0.00
 032195,-0.00005063,0.00043789,0.00003344,0.00015541,0.00188677,0.00146
 612,0.00002447,0.01620874,0.00841894,-0.00585232,0.04287534,0.06438521
 ,-0.07779902,-0.01390056,-0.01926248,0.00978207,0.01270537,0.01903186,
 -0.00655512,-0.05673091,-0.07075589,0.08042453,-0.01637869,0.04058813,
 -0.03577795,-0.02903097,-0.01337423,0.00941959,0.00344419,0.01404747,0
 .01131356,-0.02415548,0.02015357,-0.01846832,-0.02203552,0.00561404,0.
 00837748,0.00254896,-0.00220336,-0.00204783,0.00117192,-0.00142789,0.0
 0010656,0.00420110,-0.00030385,-0.00227991,0.02178314,0.00959230,0.035
 66447,-0.01875229,-0.02035748,-0.00907584,0.00514960,0.04423668,-0.027
 39366,0.00732774,-0.00326634,-0.06559897,0.00271296,-0.00034328,0.0227
 3553,-0.00373517,0.00175975,-0.00133970,-0.00213463,0.00115307,-0.0004
 3981,0.00053377,0.00653697,-0.00233255,-0.00323384,-0.04748229,0.09017
 432,-0.01310067,-0.00824199,0.01056457,0.00958028,0.00142030,-0.002202
 41,0.00160694,-0.00037928,-0.03247476,0.00155232,0.00021325,-0.0291369
 0,0.00760681,0.00066721,-0.00603906,0.00012501,0.00099338,0.00022577,-
 0.00124217,0.00012415,0.00059990,-0.00073329,-0.00043475,0.00046673,0.
 00774349,-0.01346776,0.07961900,-0.03568287,-0.03441266,0.05636641,0.0
 4137240,0.01414036,0.00111218,-0.02653767,0.00730043,-0.01159617,-0.05
 434316,-0.00376905,-0.00026004,-0.02497798,0.00983209,0.00030274,0.002
 74453,-0.00154991,-0.00259996,0.00302516,-0.00206722,0.00021471,0.0008
 3527,0.00008984,-0.00112966,0.04313231,0.01671691,-0.00193537,0.044150
 96,-0.00696347,0.00402901,-0.00941613,-0.00824894,-0.02602391,0.001753
 14,0.00484057,0.00100900,-0.00006103,0.01570667,-0.03800064,0.01465105
 ,0.00952509,-0.00626673,0.00288983,-0.00032938,0.00045185,0.00110160,0
 .00032719,0.00010468,-0.00087596,-0.00133876,0.00057483,0.00000872,-0.
 00323124,-0.01653340,0.02238392,-0.00777729,0.08212007,0.00397160,-0.0
 1597976,0.04675545,0.03439312,0.00986217,-0.03663227,-0.01628342,0.004
 89467,-0.00824098,-0.03445663,0.02102647,-0.09908156,0.00222480,-0.006
 06441,0.02276406,0.00163998,-0.00206444,-0.00147712,0.00664456,-0.0032
 1549,-0.00241204,0.00125798,0.00040379,-0.00039933,0.01868266,0.027036
 74,-0.01634063,-0.02109052,-0.03700146,0.11002511,-0.17361487,-0.04639
 960,-0.02977604,-0.02965041,-0.01502084,0.00612775,-0.01572626,0.00452
 236,-0.00867950,-0.00176675,0.00044832,-0.00117371,0.00044980,-0.00017
 317,-0.00032365,-0.00004241,0.00002853,0.00006156,-0.00009056,0.000075
 02,-0.00000310,-0.00005484,-0.00001721,0.00004662,0.00060669,0.0015714
 7,-0.00039028,0.00344059,-0.00141075,0.00266643,0.49068327,-0.04018276
 ,-0.08705685,-0.01271759,-0.02377184,0.00154738,0.00262642,0.02693066,
 -0.00263301,0.01373564,-0.00081896,0.00343554,-0.00376581,0.00004714,0
 .00024596,-0.00028172,-0.00003166,-0.00002618,0.00009418,-0.00015953,0
 .00002670,0.00003597,0.00012153,-0.00003272,-0.00003990,-0.00418920,-0
 .00562455,0.00251417,0.00457500,-0.00037870,0.00363862,-0.01597914,0.5
 7365206,-0.02736006,-0.01384452,-0.08019105,0.03695049,0.01410876,0.00
 566590,-0.01498896,0.00336012,-0.00413027,0.00228496,-0.00307889,0.004
 13234,-0.00026656,-0.00002182,0.00055922,-0.00004161,0.00004073,-0.000
 10406,0.00020741,-0.00008981,-0.00006781,-0.00004311,0.00000704,-0.000
 02123,0.00247632,0.00271423,-0.00128409,-0.00532802,0.00253168,-0.0055
 4389,-0.03294435,-0.00183334,0.58966977,-0.01841811,0.02725644,-0.0098
 6961,0.00224802,-0.00248997,0.00075823,-0.00582530,-0.00013089,-0.0022
 4064,-0.00000895,-0.00092790,0.00090064,0.00009017,-0.00009775,0.00003
 158,-0.00000010,0.00001947,-0.00001885,0.00002952,-0.00000337,-0.00000
 451,-0.00004711,0.00000815,0.00001661,0.00140005,0.00161950,-0.0007236
 6,-0.00096017,0.00008570,-0.00064183,-0.12328352,0.11097266,-0.0458124
 7,0.13408746,-0.00529582,0.00720584,-0.00294561,0.00009904,0.00007175,
 -0.00017865,-0.00264807,0.00128258,-0.00175324,0.00001576,-0.00008912,
 0.00009307,0.00003562,-0.00000596,-0.00002961,0.00000086,-0.00000389,0
 .00000370,-0.00000685,0.00000235,-0.00000236,0.00000362,0.00000514,0.0
 0000386,-0.00002940,0.00017610,-0.00014244,0.00004142,0.00007915,-0.00
 005998,0.11332155,-0.20901153,0.06757119,-0.12269515,0.22505410,-0.005
 08119,0.00742615,-0.00391807,0.00148249,0.00004376,-0.00013724,-0.0032
 5910,-0.00022846,-0.00037666,-0.00021782,-0.00049142,0.00037021,0.0000
 3225,-0.00003836,0.00000112,-0.00000243,0.00000785,-0.00000668,0.00001
 138,0.00000039,-0.00000770,-0.00002331,0.00000804,0.00001616,0.0007600
 2,0.00090496,-0.00029877,-0.00043310,-0.00000310,-0.00022733,-0.046194
 70,0.06692144,-0.07142287,0.05183624,-0.07325221,0.07445151,-0.0108049
 1,-0.01094962,0.02909165,-0.00941280,-0.00357543,-0.00167143,0.0022054
 1,0.00093688,-0.00059126,-0.00080038,0.00136948,-0.00159756,0.00017223
 ,0.00001705,-0.00024159,0.00000765,-0.00000936,0.00004836,-0.00010184,
 0.00004435,0.00003019,0.00002214,-0.00000872,0.00000973,-0.00131130,-0
 .00119859,0.00039253,0.00250612,-0.00098300,0.00212811,-0.10112252,-0.
 05015291,0.09243617,0.00927427,0.00632434,-0.01453535,0.10981991,-0.00
 116544,-0.00557276,0.01076294,-0.00387115,0.00044247,-0.00053045,0.000
 88662,-0.00001933,-0.00049481,-0.00068237,0.00036850,-0.00072181,0.000
 13844,-0.00004978,-0.00013467,0.00000811,0.00000143,0.00001849,-0.0000
 4903,0.00003199,0.00002154,-0.00001137,-0.00000659,0.00001118,-0.00020
 311,-0.00017554,0.00012924,0.00113910,-0.00005691,0.00097616,-0.051770
 98,-0.09278310,0.08510208,-0.01247114,-0.00947230,0.01874488,0.0559929
 7,0.09631697,-0.00308516,-0.00368270,0.00537196,-0.00278961,-0.0007850
 4,0.00155187,0.00000679,-0.00053918,0.00072029,-0.00003503,-0.00002387
 ,-0.00010178,0.00002558,-0.00002738,0.00004083,-0.00000127,0.00000179,
 -0.00001444,0.00001243,0.00000521,-0.00000134,-0.00000414,-0.00000255,
 0.00000085,0.00007695,0.00008475,0.00002545,-0.00008097,-0.00001536,0.
 00024424,0.09837177,0.08742649,-0.21913546,0.00390698,0.00285686,-0.00
 730297,-0.10534240,-0.09601396,0.23371625,0.00646777,-0.02035224,-0.02
 181843,0.00106049,0.00219576,0.00080932,0.00077373,0.00084757,0.001230
 02,0.00018926,0.00002964,0.00006907,0.00000644,-0.00002419,-0.00000123
 ,-0.00001230,0.00001585,0.00001305,0.00000859,-0.00000092,0.00000080,0
 .00001132,0.00000749,-0.00000003,-0.00023379,-0.00032860,0.00003539,-0
 .00020210,0.00018873,-0.00020890,-0.05073234,0.01410817,0.01833995,-0.
 00132674,0.01062871,0.01428220,-0.00151998,0.01103074,0.00919458,0.052
 02006,0.00523715,-0.00876847,-0.00767527,-0.00045373,0.00103025,0.0016
 5675,-0.00044094,-0.00012286,-0.00009560,-0.00004791,-0.00014966,0.000
 14979,0.00008148,-0.00005476,-0.00001937,-0.00001555,0.00002044,0.0000
 0621,0.00000032,0.00000687,0.00000422,-0.00001874,-0.00000066,0.000003
 78,0.00021545,0.00015304,-0.00014478,-0.00019616,0.00012083,-0.0001023
 5,0.01027088,-0.16540433,-0.13317224,0.00079695,-0.01572807,-0.0186730
 1,0.00013329,0.01097838,0.01056818,-0.01428263,0.17839868,0.00337655,-
 0.00535645,-0.00852019,0.00052590,0.00125944,0.00088982,-0.00046237,0.
 00114804,0.00018428,0.00007013,0.00009912,-0.00002720,0.00002142,-0.00
 001329,-0.00003186,-0.00001783,-0.00000085,0.00003219,-0.00000936,-0.0
 0000403,-0.00000688,0.00000588,0.00001398,0.00000266,-0.00022025,-0.00
 019758,0.00002894,-0.00008472,-0.00000481,-0.00004046,0.01417164,-0.13
 366765,-0.19730086,0.00009060,0.00724568,0.00897921,0.00056039,-0.0166
 0706,-0.01603285,-0.01563189,0.14781028,0.21134788,0.00210453,0.002720
 68,0.01290733,0.00163249,0.00018877,-0.00131421,-0.08319955,0.00602234
 ,-0.01111808,-0.00658471,-0.00201322,0.00436289,-0.00037897,-0.0017331
 7,0.00050897,-0.00006891,-0.00003783,0.00004621,-0.00008086,0.00000253
 ,-0.00009482,-0.00059123,0.00017108,0.00016428,0.01357551,-0.00935959,
 -0.01078359,-0.00166389,0.00022947,-0.00136603,-0.00131968,0.00113399,
 -0.00141703,0.00005944,-0.00026800,0.00016759,-0.00058680,0.00052338,0
 .00020785,-0.00035561,0.00061662,-0.00043347,0.58848358,0.01117803,-0.
 03274606,0.00510687,0.00180395,0.00612954,-0.00659304,0.00394665,-0.17
 090489,-0.05172084,0.01009450,0.00789279,-0.00285082,-0.00396526,0.002
 05876,0.00204902,0.00023056,-0.00043465,-0.00085124,0.00054884,-0.0001
 3016,0.00016015,0.00051354,-0.00049329,-0.00047055,-0.01449631,-0.0190
 1243,-0.00289118,-0.00088738,-0.00156878,0.00016455,-0.00016649,0.0023
 6063,0.00071771,-0.00172322,-0.00073811,-0.00084411,0.00005435,0.00050
 523,0.00039275,0.00050220,-0.00038191,-0.00110096,0.00865680,0.4738556
 0,0.01058615,-0.01078025,0.02116780,0.00358509,0.00551423,-0.00951453,
 -0.01004569,-0.06089394,-0.11299946,0.00651287,0.00299018,-0.00118203,
 -0.00160412,0.00159511,0.00166848,0.00050079,-0.00026684,-0.00053383,0
 .00006919,-0.00022519,-0.00015532,0.00023592,-0.00025504,-0.00044959,-
 0.00725075,-0.00538007,-0.00011925,-0.00204810,0.00006206,-0.00050939,
 -0.00156550,0.00223375,-0.00092736,-0.00034793,-0.00002165,-0.00027880
 ,0.00032412,-0.00024366,-0.00013502,-0.00118109,0.00044185,-0.00015418
 ,0.01379353,-0.06229514,0.54204499,-0.00083881,0.00132854,-0.00109174,
 0.00020712,-0.00024362,0.00027190,0.00892232,-0.00267403,-0.00284564,-
 0.00005782,-0.00004600,0.00011099,-0.00001443,-0.00000629,0.00015869,0
 .00000469,-0.00001971,-0.00015938,0.00005053,0.00002676,0.00002963,-0.
 00002430,-0.00007338,-0.00003334,0.00119921,0.00129709,0.00021334,-0.0
 0016247,0.00018743,-0.00014217,-0.00012420,0.00045623,-0.00070379,0.00
 023863,0.00027568,0.00028248,-0.00012196,0.00000706,-0.00005228,-0.000
 32510,0.00057007,0.00030751,-0.26147743,-0.10229479,0.02157910,0.27724
 617,-0.00401988,0.00207061,-0.00195043,0.00092146,-0.00055573,0.001097
 93,-0.02883384,-0.03035357,-0.00682633,-0.00347002,-0.00183258,0.00185
 483,0.00043750,-0.00083495,-0.00012007,-0.00004751,0.00004102,0.000152
 01,-0.00009849,0.00002191,-0.00005529,-0.00028718,0.00014107,0.0001083
 1,0.00703713,0.00143156,-0.00209980,-0.00050370,0.00044423,-0.00057033
 ,0.00010266,-0.00033324,0.00018806,0.00019185,0.00031722,-0.00001721,0
 .00047233,-0.00027381,-0.00034424,0.00027639,-0.00024753,0.00055856,-0
 .09521030,-0.09312211,0.01270895,0.11216987,0.11367534,0.00053692,0.00
 139036,-0.00086905,-0.00058361,0.00010909,0.00067650,-0.01791524,-0.01
 577654,0.00048096,-0.00204805,-0.00085034,0.00075487,0.00023206,-0.000
 54693,-0.00036848,-0.00013441,0.00008474,0.00019514,0.00000721,0.00003
 929,0.00003634,-0.00010014,0.00011047,0.00017423,0.00354208,0.00038625
 ,-0.00118012,-0.00005776,-0.00000873,-0.00025478,-0.00013821,-0.000161
 99,0.00056688,0.00007054,-0.00011014,-0.00017675,0.00008619,0.00003782
 ,0.00006069,-0.00017382,0.00036848,-0.00048879,0.02454676,0.01354890,-
 0.05322843,-0.02131928,-0.00488672,0.05245403,0.00006070,-0.00184485,0
 .00058114,0.00031080,0.00018117,-0.00026017,0.00368863,0.00341885,0.00
 285662,0.00060858,0.00060381,-0.00038357,-0.00015599,0.00010808,0.0001
 1594,-0.00002262,-0.00008749,-0.00000046,0.00000825,-0.00003434,-0.000
 03104,0.00002299,-0.00000192,-0.00001101,-0.00064062,-0.00081824,0.000
 49544,0.00003315,0.00000348,0.00005135,0.00004974,-0.00004326,-0.00026
 647,0.00014422,0.00019690,0.00013648,0.00009495,-0.00015283,-0.0001559
 3,-0.00013824,0.00011065,0.00035830,-0.17773252,0.09705742,-0.08684825
 ,-0.01922099,0.01516759,-0.01479914,0.18573328,-0.00347177,0.00563659,
 -0.00797086,-0.00169570,-0.00119720,0.00238168,0.02365983,-0.03489222,
 0.01050503,-0.00169001,-0.00009616,-0.00047088,0.00045357,-0.00028661,
 -0.00023352,-0.00006135,-0.00001898,0.00025453,-0.00023525,-0.00001393
 ,-0.00008211,-0.00007489,0.00014418,0.00004085,0.00203182,0.00035065,0
 .00034149,0.00167008,-0.00008988,0.00093339,-0.00006404,-0.00018132,0.
 00021029,0.00021315,0.00022273,0.00017608,0.00007722,-0.00010821,-0.00
 012619,0.00014100,0.00004489,0.00033147,0.09216121,-0.11765518,0.06581
 705,-0.00880059,0.00970007,-0.00655793,-0.10834316,0.14226180,-0.00082
 875,0.00211099,-0.00413713,-0.00088936,-0.00058218,0.00179557,0.015177
 25,-0.01684417,0.01023325,0.00038761,0.00016073,-0.00031176,-0.0001654
 9,0.00015726,0.00027901,-0.00006657,0.00001093,-0.00024020,0.00005514,
 0.00005069,0.00006626,0.00002298,-0.00010834,-0.00006904,-0.00041092,0
 .00001027,0.00075841,0.00011778,0.00004621,0.00001088,-0.00000936,-0.0
 0035586,-0.00015152,0.00006561,0.00012264,0.00015232,-0.00000316,0.000
 06991,0.00004212,0.00023497,0.00017306,0.00029451,-0.08957521,0.071211
 65,-0.11027866,0.00307302,-0.00192061,0.00212417,0.09417235,-0.0684153
 5,0.11235581,0.00082071,-0.00002800,0.00155439,-0.00072232,-0.00020074
 ,-0.00045317,0.00298048,0.00432684,0.00146921,-0.00004694,0.00055174,-
 0.00018339,-0.00007902,-0.00019510,-0.00035119,-0.00024002,-0.00010602
 ,0.00013816,-0.00000727,0.00003236,0.00003275,0.00002233,0.00005365,0.
 00004742,-0.00052555,-0.00038567,-0.00057868,0.00071962,-0.00029941,0.
 00046072,-0.00018912,0.00010112,0.00061017,0.00005109,-0.00010390,-0.0
 0023494,0.00013099,-0.00003479,-0.00012451,-0.00061062,0.00004240,-0.0
 0027584,-0.06915520,-0.01058282,0.05741394,-0.00574352,-0.00502612,0.0
 2832995,0.00703832,0.00270514,-0.02206551,0.06576024,0.00053903,0.0027
 8199,-0.00440351,-0.00104559,0.00054812,0.00163067,0.00856747,-0.00908
 578,-0.03911525,-0.00044172,-0.00068715,0.00065584,-0.00001326,-0.0001
 6605,0.00002704,-0.00022705,0.00003494,-0.00000601,0.00001392,0.000023
 60,0.00002379,-0.00004081,0.00001121,0.00001713,0.00229022,0.00157237,
 -0.00082719,-0.00066052,-0.00013730,-0.00063159,0.00007286,-0.00054511
 ,0.00017424,0.00010093,0.00001948,0.00006363,-0.00009792,-0.00002359,-
 0.00003323,0.00021787,0.00004819,0.00001874,-0.01096065,-0.05608179,0.
 04205540,-0.00180845,-0.00021463,0.01291656,-0.00563299,-0.00100582,0.
 01564678,0.00920349,0.06284219,-0.00199079,0.00473203,-0.00396436,-0.0
 0152980,-0.00100607,0.00253049,0.00323190,-0.01540666,-0.01588281,-0.0
 0197656,-0.00084355,0.00049239,0.00054905,-0.00054836,-0.00072162,-0.0
 0016920,0.00010024,0.00043375,-0.00004040,0.00004100,0.00001088,-0.000
 04296,0.00018930,0.00022539,0.00317425,0.00148784,-0.00082682,0.000622
 97,-0.00013676,0.00016486,0.00015633,-0.00045174,0.00001794,0.00010700
 ,0.00008510,0.00014497,-0.00009711,0.00006541,0.00004276,0.00011364,0.
 00012736,0.00025939,0.05861857,0.03591067,-0.27676372,0.00034899,0.001
 98525,-0.00089249,0.00390725,0.00353617,-0.01267028,-0.06544107,-0.029
 39263,0.30695334,-0.07073552,-0.01357828,0.00011071,0.00320397,0.01793
 808,0.03955575,0.00008282,0.02643366,0.00792667,-0.00278846,0.00068821
 ,-0.00002170,0.00124802,-0.00018894,-0.00016132,-0.00014761,0.00004296
 ,0.00009434,-0.00013357,0.00008909,-0.00001282,-0.00015009,-0.00001391
 ,0.00007226,0.00124885,-0.00094368,0.00013616,0.00257019,-0.00051210,0
 .00006820,0.00248738,-0.02311720,-0.02413303,0.00224713,0.00010368,0.0
 0099079,0.00154880,0.00068579,-0.00013163,-0.00508083,-0.00261960,-0.0
 0235261,-0.00266019,-0.00047055,-0.00370926,0.00024235,0.00072026,-0.0
 0008206,0.00011737,0.00132374,0.00070762,-0.00020422,-0.00007684,0.000
 45796,0.06690365,-0.02225560,-0.09676483,-0.04326605,0.01484902,0.0194
 6482,-0.01191195,0.01459579,-0.04764290,-0.01750533,0.00493478,0.00196
 100,0.00087523,-0.00014217,0.00021863,0.00039485,-0.00011454,-0.000009
 62,0.00015090,0.00009323,-0.00011806,-0.00004927,0.00018627,0.00000249
 ,-0.00008866,-0.00503696,-0.00473158,-0.00015795,-0.00368135,0.0001226
 5,-0.00324676,0.00058857,-0.01725769,-0.02468550,-0.00072540,0.0006125
 4,-0.00074928,0.00155329,-0.00010306,0.00025766,-0.00520156,0.00005665
 ,-0.00153264,0.00715587,0.00046681,0.00694319,-0.00035186,-0.00007488,
 -0.00009263,0.00011114,-0.00281538,-0.00154461,-0.00005416,0.00006514,
 -0.00047459,-0.00650437,0.14654732,-0.01955202,-0.04098025,-0.10729286
 ,0.04652371,-0.02066783,-0.06617468,0.00293865,-0.00694022,0.00904690,
 0.00556755,-0.00180274,0.00538975,-0.00030537,-0.00006707,0.00064830,-
 0.00033166,0.00029429,0.00006681,0.00036167,-0.00014925,-0.00003282,0.
 00000310,0.00003913,-0.00007621,0.00078297,-0.00144776,-0.00238598,-0.
 01209241,0.00209511,-0.00880480,-0.00040371,-0.02595108,-0.02033160,0.
 00187547,0.00051378,0.00003834,-0.00102757,-0.00119323,0.00090654,-0.0
 0530759,-0.00142737,0.00058439,0.00077848,0.00035561,0.00234830,-0.000
 02802,0.00013713,-0.00006490,0.00008118,-0.00067121,-0.00025372,-0.000
 34840,0.00117958,0.00044593,-0.01951604,0.09668339,0.18594230\\0.00000
 099,-0.00000176,-0.00000606,-0.00000425,-0.00000472,-0.00000739,-0.000
 00291,0.00000232,0.00000205,0.00000576,0.00000355,0.00000390,-0.000001
 46,0.00000334,0.00000220,0.00000200,-0.00000140,0.00000602,-0.00000121
 ,0.00000699,0.00000672,-0.00000067,0.00000189,0.00000062,-0.00000306,0
 .00000592,0.00000024,-0.00000289,0.00000021,-0.00000507,0.00000030,-0.
 00000392,-0.00000581,-0.00000005,-0.00000673,-0.00001060,-0.00000062,-
 0.00000124,-0.00000475,0.00000250,-0.00000768,-0.00000233,0.00000184,0
 .00000120,0.00000622,0.00000203,-0.00000036,0.00000706,0.00000114,0.00
 000360,0.00001092,0.00000344,-0.00000383,0.00000675,-0.00000290,0.0000
 0264,-0.00001070\\\@


 NOBODY LOSES ALL THE TIME
 I HAD AN UNCLE NAMED
 SOL WHO WAS A BORN FAILURE AND
 NEARLY EVERYBODY SAID HE SHOULD HAVE GONE
 INTO VAUDEVILLE PERHAPS BECAUSE MY UNCLE SOL COULD
 SING MCCANN HE WAS A DIVER ON XMAS EVE LIKE HELL ITSELF WHICH
 MAY OR MAY NOT ACCOUNT FOR THE FACT THAT MY UNCLE
 SOL INDULGED IN THAT POSSIBLY MOST INEXCUSABLE
 OF ALL TO USE A HIGHFALOOTIN PHRASE
 LUXURIES THAT IS OR TO
 WIT FARMING AND BE
 IT NEEDLESSLY
 ADDED
 MY UNCLE SOL'S FARM     
 FAILED BECAUSE THE CHICKENS
 ATE THE VEGETABLES SO
 MY UNCLE SOL HAD A
 CHICKEN FARM TILL THE
 SKUNKS ATE THE CHICKENS WHEN 
 MY UNCLE SOL
 HAD A SKUNK FARM BUT
 THE SKUNKS CAUGHT COLD AND
 DIED AND SO
 MY UNCLE SOL IMITATED THE
 SKUNKS IN A SUBTLE MANNER
 OR BY DROWNING HIMSELF IN THE WATERTANK
 BUT SOMEBODY WHO'D GIVEN MY UNCLE SOL A VICTOR     
 VICTROLA AND RECORDS WHILE HE LIVED PRESENTED TO
 HIM UPON THE AUSPICIOUS OCCASION OF HIS DECEASE A
 SCRUMPTIOUS NOT TO MENTION SPLENDIFEROUS FUNERAL WITH
 TALL BOYS IN BLACK GLOVES AND FLOWERS AND EVERYTHING AND
 I REMEMBER WE ALL CRIED LIKE THE MISSOURI
 WHEN MY UNCLE SOL'S COFFIN LURCHED BECAUSE     
 SOMEBODY PRESSED A BUTTON
 (AND DOWN WENT
 MY UNCLE
 SOL
 AND STARTED A WORM FARM)
           E. E. CUMMINGS
 Job cpu time:       1 days 11 hours 46 minutes 22.9 seconds.
 File lengths (MBytes):  RWF=    369 Int=      0 D2E=      0 Chk=     25 Scr=      1
 Normal termination of Gaussian 09 at Fri Mar 27 06:43:49 2015.
