 Entering Gaussian System, Link 0=g09
 Initial command:
 /opt/gridware/applications/gaussian/g09/l1.exe "/lustre/SCRATCH5/gau/mlawal/954764.sched01/Gau-8048.inp" -scrdir="/lustre/SCRATCH5/gau/mlawal/954764.sched01/"
 Entering Link 1 = /opt/gridware/applications/gaussian/g09/l1.exe PID=      8049.
  
 Copyright (c) 1988,1990,1992,1993,1995,1998,2003,2009,2013,
            Gaussian, Inc.  All Rights Reserved.
  
 This is part of the Gaussian(R) 09 program.  It is based on
 the Gaussian(R) 03 system (copyright 2003, Gaussian, Inc.),
 the Gaussian(R) 98 system (copyright 1998, Gaussian, Inc.),
 the Gaussian(R) 94 system (copyright 1995, Gaussian, Inc.),
 the Gaussian 92(TM) system (copyright 1992, Gaussian, Inc.),
 the Gaussian 90(TM) system (copyright 1990, Gaussian, Inc.),
 the Gaussian 88(TM) system (copyright 1988, Gaussian, Inc.),
 the Gaussian 86(TM) system (copyright 1986, Carnegie Mellon
 University), and the Gaussian 82(TM) system (copyright 1983,
 Carnegie Mellon University). Gaussian is a federally registered
 trademark of Gaussian, Inc.
  
 This software contains proprietary and confidential information,
 including trade secrets, belonging to Gaussian, Inc.
  
 This software is provided under written license and may be
 used, copied, transmitted, or stored only in accord with that
 written license.
  
 The following legend is applicable only to US Government
 contracts under FAR:
  
                    RESTRICTED RIGHTS LEGEND
  
 Use, reproduction and disclosure by the US Government is
 subject to restrictions as set forth in subparagraphs (a)
 and (c) of the Commercial Computer Software - Restricted
 Rights clause in FAR 52.227-19.
  
 Gaussian, Inc.
 340 Quinnipiac St., Bldg. 40, Wallingford CT 06492
  
  
 ---------------------------------------------------------------
 Warning -- This program may not be used in any manner that
 competes with the business of Gaussian, Inc. or will provide
 assistance to any competitor of Gaussian, Inc.  The licensee
 of this program is prohibited from giving any competitor of
 Gaussian, Inc. access to this program.  By using this program,
 the user acknowledges that Gaussian, Inc. is engaged in the
 business of creating and licensing software in the field of
 computational chemistry and represents and warrants to the
 licensee that it is not a competitor of Gaussian, Inc. and that
 it will not use this program in any manner prohibited above.
 ---------------------------------------------------------------
  

 Cite this work as:
 Gaussian 09, Revision D.01,
 M. J. Frisch, G. W. Trucks, H. B. Schlegel, G. E. Scuseria, 
 M. A. Robb, J. R. Cheeseman, G. Scalmani, V. Barone, B. Mennucci, 
 G. A. Petersson, H. Nakatsuji, M. Caricato, X. Li, H. P. Hratchian, 
 A. F. Izmaylov, J. Bloino, G. Zheng, J. L. Sonnenberg, M. Hada, 
 M. Ehara, K. Toyota, R. Fukuda, J. Hasegawa, M. Ishida, T. Nakajima, 
 Y. Honda, O. Kitao, H. Nakai, T. Vreven, J. A. Montgomery, Jr., 
 J. E. Peralta, F. Ogliaro, M. Bearpark, J. J. Heyd, E. Brothers, 
 K. N. Kudin, V. N. Staroverov, T. Keith, R. Kobayashi, J. Normand, 
 K. Raghavachari, A. Rendell, J. C. Burant, S. S. Iyengar, J. Tomasi, 
 M. Cossi, N. Rega, J. M. Millam, M. Klene, J. E. Knox, J. B. Cross, 
 V. Bakken, C. Adamo, J. Jaramillo, R. Gomperts, R. E. Stratmann, 
 O. Yazyev, A. J. Austin, R. Cammi, C. Pomelli, J. W. Ochterski, 
 R. L. Martin, K. Morokuma, V. G. Zakrzewski, G. A. Voth, 
 P. Salvador, J. J. Dannenberg, S. Dapprich, A. D. Daniels, 
 O. Farkas, J. B. Foresman, J. V. Ortiz, J. Cioslowski, 
 and D. J. Fox, Gaussian, Inc., Wallingford CT, 2013.
 
 ******************************************
 Gaussian 09:  EM64L-G09RevD.01 24-Apr-2013
                30-Jul-2015 
 ******************************************
 %mem=600MB
 %nprocshared=8
 Will use up to    8 processors via shared memory.
 ----------------------------------------------------------------------
 # opt=(calcfc,ts,noeigentest) freq=noraman b3lyp/aug-cc-pvtz geom=conn
 ectivity
 ----------------------------------------------------------------------
 1/5=1,10=4,11=1,14=-1,18=20,26=3,38=1,57=2/1,3;
 2/9=110,12=2,17=6,18=5,40=1/2;
 3/5=16,6=1,7=10,11=2,16=1,25=1,30=1,71=2,74=-5,140=1/1,2,3;
 4//1;
 5/5=2,38=5/2;
 8/6=4,10=90,11=11/1;
 11/6=1,8=1,9=11,15=111,16=1/1,2,10;
 10/6=1,13=1/2;
 6/7=2,8=2,9=2,10=2,28=1/1;
 7/10=1,18=20,25=1/1,2,3,16;
 1/5=1,10=4,11=1,14=-1,18=20,26=3/3(2);
 2/9=110/2;
 99//99;
 2/9=110/2;
 3/5=16,6=1,7=10,11=2,16=1,25=1,30=1,71=1,74=-5/1,2,3;
 4/5=5,16=3,69=1/1;
 5/5=2,38=5/2;
 7//1,2,3,16;
 1/5=1,11=1,14=-1,18=20,26=3/3(-5);
 2/9=110/2;
 6/7=2,8=2,9=2,10=2,19=2,28=1/1;
 99/9=1/99;
 ------------
 ts624-ccpvtz
 ------------
 Symbolic Z-matrix:
 Charge =  0 Multiplicity = 1
 C                     1.03864  -0.44423   0.15046 
 O                     0.14066  -0.92438   0.90514 
 O                     0.23413   0.69407  -0.72018 
 O                    -1.87108  -0.6155   -0.42045 
 C                    -2.86906   0.02124   0.41467 
 H                    -2.40055   0.51502   1.27139 
 H                    -3.38905   0.73373  -0.23411 
 H                    -3.55655  -0.76608   0.74698 
 H                    -0.92912   0.23641  -0.72989 
 H                    -1.18981  -1.20177   0.23529 
 C                     2.3178    0.14147   0.67281 
 H                     3.00343  -0.66652   0.98211 
 H                     2.84725   0.74589  -0.07611 
 H                     2.13892   0.75634   1.56506 
 C                     0.16568   2.00624  -0.11717 
 H                     1.15585   2.46142  -0.22981 
 H                    -0.5738    2.57023  -0.69535 
 H                    -0.11844   1.92899   0.93699 
 F                     1.22932  -1.21061  -0.95703 
 
 Add virtual bond connecting atoms H10        and O4         Dist= 2.10D+00.
 Add virtual bond connecting atoms H9         and O3         Dist= 2.36D+00.
 Add virtual bond connecting atoms H9         and O4         Dist= 2.47D+00.
 Add virtual bond connecting atoms O3         and C1         Dist= 3.11D+00.
 Add virtual bond connecting atoms H10        and O2         Dist= 2.86D+00.

 GradGradGradGradGradGradGradGradGradGradGradGradGradGradGradGradGradGrad
 Berny optimization.
 Initialization pass.
                           ----------------------------
                           !    Initial Parameters    !
                           ! (Angstroms and Degrees)  !
 --------------------------                            --------------------------
 ! Name  Definition              Value          Derivative Info.                !
 --------------------------------------------------------------------------------
 ! R1    R(1,2)                  1.2675         calculate D2E/DX2 analytically  !
 ! R2    R(1,3)                  1.6435         calculate D2E/DX2 analytically  !
 ! R3    R(1,11)                 1.5007         calculate D2E/DX2 analytically  !
 ! R4    R(1,19)                 1.3602         calculate D2E/DX2 analytically  !
 ! R5    R(2,10)                 1.5152         calculate D2E/DX2 analytically  !
 ! R6    R(3,9)                  1.2501         calculate D2E/DX2 analytically  !
 ! R7    R(3,15)                 1.4457         calculate D2E/DX2 analytically  !
 ! R8    R(4,5)                  1.4487         calculate D2E/DX2 analytically  !
 ! R9    R(4,9)                  1.3072         calculate D2E/DX2 analytically  !
 ! R10   R(4,10)                 1.1126         calculate D2E/DX2 analytically  !
 ! R11   R(5,6)                  1.0942         calculate D2E/DX2 analytically  !
 ! R12   R(5,7)                  1.095          calculate D2E/DX2 analytically  !
 ! R13   R(5,8)                  1.0968         calculate D2E/DX2 analytically  !
 ! R14   R(11,12)                1.1039         calculate D2E/DX2 analytically  !
 ! R15   R(11,13)                1.0984         calculate D2E/DX2 analytically  !
 ! R16   R(11,14)                1.0983         calculate D2E/DX2 analytically  !
 ! R17   R(15,16)                1.0956         calculate D2E/DX2 analytically  !
 ! R18   R(15,17)                1.0951         calculate D2E/DX2 analytically  !
 ! R19   R(15,18)                1.0945         calculate D2E/DX2 analytically  !
 ! A1    A(2,1,3)              103.3558         calculate D2E/DX2 analytically  !
 ! A2    A(2,1,11)             122.9901         calculate D2E/DX2 analytically  !
 ! A3    A(2,1,19)             111.7568         calculate D2E/DX2 analytically  !
 ! A4    A(3,1,11)             109.3495         calculate D2E/DX2 analytically  !
 ! A5    A(3,1,19)              91.5779         calculate D2E/DX2 analytically  !
 ! A6    A(11,1,19)            112.569          calculate D2E/DX2 analytically  !
 ! A7    A(1,2,10)             115.3559         calculate D2E/DX2 analytically  !
 ! A8    A(1,3,9)              101.8916         calculate D2E/DX2 analytically  !
 ! A9    A(1,3,15)             115.5219         calculate D2E/DX2 analytically  !
 ! A10   A(9,3,15)             106.946          calculate D2E/DX2 analytically  !
 ! A11   A(5,4,9)              110.2684         calculate D2E/DX2 analytically  !
 ! A12   A(5,4,10)             108.2803         calculate D2E/DX2 analytically  !
 ! A13   A(9,4,10)              92.3898         calculate D2E/DX2 analytically  !
 ! A14   A(4,5,6)              110.7762         calculate D2E/DX2 analytically  !
 ! A15   A(4,5,7)              105.7583         calculate D2E/DX2 analytically  !
 ! A16   A(4,5,8)              106.9153         calculate D2E/DX2 analytically  !
 ! A17   A(6,5,7)              111.9383         calculate D2E/DX2 analytically  !
 ! A18   A(6,5,8)              110.7995         calculate D2E/DX2 analytically  !
 ! A19   A(7,5,8)              110.4227         calculate D2E/DX2 analytically  !
 ! A20   A(3,9,4)              155.1338         calculate D2E/DX2 analytically  !
 ! A21   A(2,10,4)             134.5691         calculate D2E/DX2 analytically  !
 ! A22   A(1,11,12)            109.9543         calculate D2E/DX2 analytically  !
 ! A23   A(1,11,13)            112.848          calculate D2E/DX2 analytically  !
 ! A24   A(1,11,14)            111.2506         calculate D2E/DX2 analytically  !
 ! A25   A(12,11,13)           107.1229         calculate D2E/DX2 analytically  !
 ! A26   A(12,11,14)           106.4581         calculate D2E/DX2 analytically  !
 ! A27   A(13,11,14)           108.9267         calculate D2E/DX2 analytically  !
 ! A28   A(3,15,16)            106.9428         calculate D2E/DX2 analytically  !
 ! A29   A(3,15,17)            106.2125         calculate D2E/DX2 analytically  !
 ! A30   A(3,15,18)            110.4844         calculate D2E/DX2 analytically  !
 ! A31   A(16,15,17)           110.0007         calculate D2E/DX2 analytically  !
 ! A32   A(16,15,18)           111.2818         calculate D2E/DX2 analytically  !
 ! A33   A(17,15,18)           111.6898         calculate D2E/DX2 analytically  !
 ! D1    D(3,1,2,10)            43.6513         calculate D2E/DX2 analytically  !
 ! D2    D(11,1,2,10)          167.7157         calculate D2E/DX2 analytically  !
 ! D3    D(19,1,2,10)          -53.5425         calculate D2E/DX2 analytically  !
 ! D4    D(2,1,3,9)            -27.9597         calculate D2E/DX2 analytically  !
 ! D5    D(2,1,3,15)            87.5466         calculate D2E/DX2 analytically  !
 ! D6    D(11,1,3,9)          -160.5309         calculate D2E/DX2 analytically  !
 ! D7    D(11,1,3,15)          -45.0246         calculate D2E/DX2 analytically  !
 ! D8    D(19,1,3,9)            84.849          calculate D2E/DX2 analytically  !
 ! D9    D(19,1,3,15)         -159.6447         calculate D2E/DX2 analytically  !
 ! D10   D(2,1,11,12)           76.0629         calculate D2E/DX2 analytically  !
 ! D11   D(2,1,11,13)         -164.4075         calculate D2E/DX2 analytically  !
 ! D12   D(2,1,11,14)          -41.6209         calculate D2E/DX2 analytically  !
 ! D13   D(3,1,11,12)         -162.6147         calculate D2E/DX2 analytically  !
 ! D14   D(3,1,11,13)          -43.0851         calculate D2E/DX2 analytically  !
 ! D15   D(3,1,11,14)           79.7015         calculate D2E/DX2 analytically  !
 ! D16   D(19,1,11,12)         -62.3871         calculate D2E/DX2 analytically  !
 ! D17   D(19,1,11,13)          57.1425         calculate D2E/DX2 analytically  !
 ! D18   D(19,1,11,14)         179.929          calculate D2E/DX2 analytically  !
 ! D19   D(1,2,10,4)           -49.5979         calculate D2E/DX2 analytically  !
 ! D20   D(1,3,9,4)              2.7636         calculate D2E/DX2 analytically  !
 ! D21   D(15,3,9,4)          -118.8679         calculate D2E/DX2 analytically  !
 ! D22   D(1,3,15,16)           74.8403         calculate D2E/DX2 analytically  !
 ! D23   D(1,3,15,17)         -167.7123         calculate D2E/DX2 analytically  !
 ! D24   D(1,3,15,18)          -46.4143         calculate D2E/DX2 analytically  !
 ! D25   D(9,3,15,16)         -172.5666         calculate D2E/DX2 analytically  !
 ! D26   D(9,3,15,17)          -55.1191         calculate D2E/DX2 analytically  !
 ! D27   D(9,3,15,18)           66.1789         calculate D2E/DX2 analytically  !
 ! D28   D(9,4,5,6)            -51.9849         calculate D2E/DX2 analytically  !
 ! D29   D(9,4,5,7)             69.4987         calculate D2E/DX2 analytically  !
 ! D30   D(9,4,5,8)           -172.8052         calculate D2E/DX2 analytically  !
 ! D31   D(10,4,5,6)            47.7332         calculate D2E/DX2 analytically  !
 ! D32   D(10,4,5,7)           169.2168         calculate D2E/DX2 analytically  !
 ! D33   D(10,4,5,8)           -73.0871         calculate D2E/DX2 analytically  !
 ! D34   D(5,4,9,3)            114.1418         calculate D2E/DX2 analytically  !
 ! D35   D(10,4,9,3)             3.65           calculate D2E/DX2 analytically  !
 ! D36   D(5,4,10,2)           -94.1936         calculate D2E/DX2 analytically  !
 ! D37   D(9,4,10,2)            18.0741         calculate D2E/DX2 analytically  !
 --------------------------------------------------------------------------------
 Trust Radius=3.00D-01 FncErr=1.00D-07 GrdErr=1.00D-06
 Number of steps in this run=     99 maximum allowed number of steps=    114.
 Search for a saddle point of order  1.
 GradGradGradGradGradGradGradGradGradGradGradGradGradGradGradGradGradGrad

                          Input orientation:                          
 ---------------------------------------------------------------------
 Center     Atomic      Atomic             Coordinates (Angstroms)
 Number     Number       Type             X           Y           Z
 ---------------------------------------------------------------------
      1          6           0        1.038638   -0.444228    0.150458
      2          8           0        0.140657   -0.924384    0.905138
      3          8           0        0.234125    0.694069   -0.720178
      4          8           0       -1.871075   -0.615496   -0.420445
      5          6           0       -2.869059    0.021236    0.414667
      6          1           0       -2.400549    0.515022    1.271394
      7          1           0       -3.389051    0.733726   -0.234110
      8          1           0       -3.556552   -0.766079    0.746980
      9          1           0       -0.929120    0.236408   -0.729885
     10          1           0       -1.189813   -1.201772    0.235293
     11          6           0        2.317801    0.141469    0.672809
     12          1           0        3.003432   -0.666516    0.982111
     13          1           0        2.847250    0.745892   -0.076114
     14          1           0        2.138920    0.756342    1.565055
     15          6           0        0.165676    2.006238   -0.117169
     16          1           0        1.155848    2.461422   -0.229811
     17          1           0       -0.573795    2.570231   -0.695350
     18          1           0       -0.118440    1.928985    0.936989
     19          9           0        1.229320   -1.210607   -0.957029
 ---------------------------------------------------------------------
                    Distance matrix (angstroms):
                    1          2          3          4          5
     1  C    0.000000
     2  O    1.267463   0.000000
     3  O    1.643462   2.295600   0.000000
     4  O    2.970133   2.428919   2.497332   0.000000
     5  C    3.944180   3.192671   3.371992   1.448728   0.000000
     6  H    3.742281   2.943427   3.307556   2.102554   1.094215
     7  H    4.597814   4.062764   3.655850   2.039454   1.094964
     8  H    4.644911   3.703975   4.319006   2.055818   1.096788
     9  H    2.260606   2.272699   1.250075   1.307200   2.262667
    10  H    2.355221   1.515185   2.556313   1.112578   2.085136
    11  C    1.500716   2.435154   2.566610   4.394870   5.194671
    12  H    2.145105   2.875396   3.523924   5.072532   5.939793
    13  H    2.176878   3.328411   2.691826   4.922858   5.782921
    14  H    2.157098   2.693211   2.975636   4.680193   5.190725
    15  C    2.615047   3.103914   1.445715   3.333740   3.665065
    16  H    2.932771   3.712466   2.052698   4.320420   4.750762
    17  H    3.521689   3.909519   2.042874   3.450705   3.605239
    18  H    2.754923   2.865285   2.096550   3.374721   3.387954
    19  F    1.360229   2.175954   2.162013   3.202269   4.493962
                    6          7          8          9         10
     6  H    0.000000
     7  H    1.814252   0.000000
     8  H    1.803489   1.800003   0.000000
     9  H    2.499569   2.558198   3.176399   0.000000
    10  H    2.342385   2.967009   2.460306   1.751540   0.000000
    11  C    4.770815   5.808737   5.944507   3.538228   3.781411
    12  H    5.539199   6.656103   6.564952   4.383055   4.292731
    13  H    5.422958   6.238314   6.631155   3.866259   4.493133
    14  H    4.555354   5.813430   5.951925   3.866517   4.084476
    15  C    3.276789   3.777439   4.720961   2.169400   3.500415
    16  H    4.323199   4.862207   5.794618   3.089960   4.374636
    17  H    3.380680   3.392810   4.701927   2.360970   3.933647
    18  H    2.705391   3.673828   4.372652   2.510077   3.382581
    19  F    4.595608   5.062844   5.099590   2.608507   2.697020
                   11         12         13         14         15
    11  C    0.000000
    12  H    1.103901   0.000000
    13  H    1.098421   1.771759   0.000000
    14  H    1.098258   1.764010   1.787534   0.000000
    15  C    2.955177   4.050295   2.963275   2.878508   0.000000
    16  H    2.747188   3.829663   2.414023   2.663695   1.095592
    17  H    4.016475   5.107539   3.926221   3.969691   1.095079
    18  H    3.033195   4.060141   3.349836   2.620159   1.094504
    19  F    2.381023   2.683984   2.687303   3.325232   3.490673
                   16         17         18         19
    16  H    0.000000
    17  H    1.794500   0.000000
    18  H    1.807961   1.811926   0.000000
    19  F    3.744067   4.196956   3.906507   0.000000
 Stoichiometry    C4H11FO3
 Framework group  C1[X(C4H11FO3)]
 Deg. of freedom    51
 Full point group                 C1      NOp   1
 Largest Abelian subgroup         C1      NOp   1
 Largest concise Abelian subgroup C1      NOp   1
                         Standard orientation:                         
 ---------------------------------------------------------------------
 Center     Atomic      Atomic             Coordinates (Angstroms)
 Number     Number       Type             X           Y           Z
 ---------------------------------------------------------------------
      1          6           0        1.038638   -0.444228    0.150458
      2          8           0        0.140657   -0.924384    0.905138
      3          8           0        0.234125    0.694069   -0.720178
      4          8           0       -1.871075   -0.615496   -0.420445
      5          6           0       -2.869059    0.021236    0.414667
      6          1           0       -2.400549    0.515022    1.271394
      7          1           0       -3.389051    0.733726   -0.234110
      8          1           0       -3.556552   -0.766079    0.746980
      9          1           0       -0.929120    0.236408   -0.729885
     10          1           0       -1.189813   -1.201772    0.235293
     11          6           0        2.317801    0.141469    0.672809
     12          1           0        3.003432   -0.666516    0.982111
     13          1           0        2.847250    0.745892   -0.076114
     14          1           0        2.138920    0.756342    1.565055
     15          6           0        0.165676    2.006238   -0.117169
     16          1           0        1.155848    2.461422   -0.229811
     17          1           0       -0.573795    2.570231   -0.695350
     18          1           0       -0.118440    1.928985    0.936989
     19          9           0        1.229320   -1.210607   -0.957029
 ---------------------------------------------------------------------
 Rotational constants (GHZ):      2.7524908      1.3461166      1.1357869
 Standard basis: Aug-CC-pVTZ (5D, 7F)
 There are   715 symmetry adapted cartesian basis functions of A   symmetry.
 There are   621 symmetry adapted basis functions of A   symmetry.
   621 basis functions,   873 primitive gaussians,   715 cartesian basis functions
    34 alpha electrons       34 beta electrons
       nuclear repulsion energy       452.3329082244 Hartrees.
 NAtoms=   19 NActive=   19 NUniq=   19 SFac= 1.00D+00 NAtFMM=   60 NAOKFM=F Big=F
 Integral buffers will be    131072 words long.
 Raffenetti 2 integral format.
 Two-electron integral symmetry is turned on.
 One-electron integrals computed using PRISM.
 NBasis=   621 RedAO= T EigKep=  7.37D-06  NBF=   621
 NBsUse=   621 1.00D-06 EigRej= -1.00D+00 NBFU=   621
 ExpMin= 2.53D-02 ExpMax= 1.95D+04 ExpMxC= 6.65D+02 IAcc=3 IRadAn=         5 AccDes= 0.00D+00
 Harris functional with IExCor=  402 and IRadAn=       5 diagonalized for initial guess.
 HarFok:  IExCor=  402 AccDes= 0.00D+00 IRadAn=         5 IDoV= 1 UseB2=F ITyADJ=14
 ICtDFT=  3500011 ScaDFX=  1.000000  1.000000  1.000000  1.000000
 FoFCou: FMM=F IPFlag=           0 FMFlag=      100000 FMFlg1=           0
         NFxFlg=           0 DoJE=T BraDBF=F KetDBF=T FulRan=T
         wScrn=  0.000000 ICntrl=     500 IOpCl=  0 I1Cent=   200000004 NGrid=           0
         NMat0=    1 NMatS0=      1 NMatT0=    0 NMatD0=    1 NMtDS0=    0 NMtDT0=    0
 Petite list used in FoFCou.
 Requested convergence on RMS density matrix=1.00D-08 within 128 cycles.
 Requested convergence on MAX density matrix=1.00D-06.
 Requested convergence on             energy=1.00D-06.
 No special actions if energy rises.
 SCF Done:  E(RB3LYP) =  -484.708360833     A.U. after   12 cycles
            NFock= 12  Conv=0.35D-08     -V/T= 2.0062
 DoSCS=F DFT=T ScalE2(SS,OS)=  1.000000  1.000000
 Range of M.O.s used for correlation:     1   621
 NBasis=   621 NAE=    34 NBE=    34 NFC=     0 NFV=     0
 NROrb=    621 NOA=    34 NOB=    34 NVA=   587 NVB=   587

 **** Warning!!: The largest alpha MO coefficient is  0.53106365D+02

 PrsmSu:  requested number of processors reduced to:   3 ShMem   1 Linda.
 Symmetrizing basis deriv contribution to polar:
 IMax=3 JMax=2 DiffMx= 0.00D+00
 G2DrvN: will do     5 centers at a time, making    4 passes.
 Calling FoFCou, ICntrl=  3107 FMM=F I1Cent=   0 AccDes= 0.00D+00.
 Calling FoFCou, ICntrl=  3107 FMM=F I1Cent=   0 AccDes= 0.00D+00.
 Calling FoFCou, ICntrl=  3107 FMM=F I1Cent=   0 AccDes= 0.00D+00.
 Calling FoFCou, ICntrl=  3107 FMM=F I1Cent=   0 AccDes= 0.00D+00.
 End of G2Drv F.D. properties file   721 does not exist.
 End of G2Drv F.D. properties file   722 does not exist.
 End of G2Drv F.D. properties file   788 does not exist.
          IDoAtm=1111111111111111111
          Differentiating once with respect to nuclear coordinates.
 PrRfSu:  requested number of processors reduced to:   6 ShMem   1 Linda.
 PrRfSu:  requested number of processors reduced to:   6 ShMem   1 Linda.
          There are    60 degrees of freedom in the 1st order CPHF.  IDoFFX=6 NUNeed=     0.
     57 vectors produced by pass  0 Test12= 3.33D-14 1.67D-09 XBig12= 1.86D-01 5.17D-02.
 AX will form    24 AO Fock derivatives at one time.
 PrRfSu:  requested number of processors reduced to:   6 ShMem   1 Linda.
 PrRfSu:  requested number of processors reduced to:   6 ShMem   1 Linda.
     54 vectors produced by pass  1 Test12= 3.33D-14 1.67D-09 XBig12= 5.15D-02 3.05D-02.
 PrRfSu:  requested number of processors reduced to:   6 ShMem   1 Linda.
 PrRfSu:  requested number of processors reduced to:   6 ShMem   1 Linda.
     54 vectors produced by pass  2 Test12= 3.33D-14 1.67D-09 XBig12= 5.85D-04 2.40D-03.
 PrRfSu:  requested number of processors reduced to:   6 ShMem   1 Linda.
 PrRfSu:  requested number of processors reduced to:   6 ShMem   1 Linda.
     54 vectors produced by pass  3 Test12= 3.33D-14 1.67D-09 XBig12= 2.44D-06 1.81D-04.
 PrRfSu:  requested number of processors reduced to:   6 ShMem   1 Linda.
 PrRfSu:  requested number of processors reduced to:   6 ShMem   1 Linda.
     54 vectors produced by pass  4 Test12= 3.33D-14 1.67D-09 XBig12= 6.87D-09 6.85D-06.
 PrRfSu:  requested number of processors reduced to:   6 ShMem   1 Linda.
 PrRfSu:  requested number of processors reduced to:   6 ShMem   1 Linda.
     54 vectors produced by pass  5 Test12= 3.33D-14 1.67D-09 XBig12= 1.37D-11 2.61D-07.
 PrRfSu:  requested number of processors reduced to:   6 ShMem   1 Linda.
 PrRfSu:  requested number of processors reduced to:   6 ShMem   1 Linda.
     26 vectors produced by pass  6 Test12= 3.33D-14 1.67D-09 XBig12= 1.41D-13 2.58D-08.
      1 vectors produced by pass  7 Test12= 3.33D-14 1.67D-09 XBig12= 2.09D-15 3.59D-09.
 InvSVY:  IOpt=1 It=  1 EMax= 7.22D-16
 Solved reduced A of dimension   354 with    60 vectors.
 End of Minotr F.D. properties file   721 does not exist.
 End of Minotr F.D. properties file   722 does not exist.
 End of Minotr F.D. properties file   788 does not exist.

 **********************************************************************

            Population analysis using the SCF density.

 **********************************************************************

 Orbital symmetries:
       Occupied  (A) (A) (A) (A) (A) (A) (A) (A) (A) (A) (A) (A)
                 (A) (A) (A) (A) (A) (A) (A) (A) (A) (A) (A) (A)
                 (A) (A) (A) (A) (A) (A) (A) (A) (A) (A)
       Virtual   (A) (A) (A) (A) (A) (A) (A) (A) (A) (A) (A) (A)
                 (A) (A) (A) (A) (A) (A) (A) (A) (A) (A) (A) (A)
                 (A) (A) (A) (A) (A) (A) (A) (A) (A) (A) (A) (A)
                 (A) (A) (A) (A) (A) (A) (A) (A) (A) (A) (A) (A)
                 (A) (A) (A) (A) (A) (A) (A) (A) (A) (A) (A) (A)
                 (A) (A) (A) (A) (A) (A) (A) (A) (A) (A) (A) (A)
                 (A) (A) (A) (A) (A) (A) (A) (A) (A) (A) (A) (A)
                 (A) (A) (A) (A) (A) (A) (A) (A) (A) (A) (A) (A)
                 (A) (A) (A) (A) (A) (A) (A) (A) (A) (A) (A) (A)
                 (A) (A) (A) (A) (A) (A) (A) (A) (A) (A) (A) (A)
                 (A) (A) (A) (A) (A) (A) (A) (A) (A) (A) (A) (A)
                 (A) (A) (A) (A) (A) (A) (A) (A) (A) (A) (A) (A)
                 (A) (A) (A) (A) (A) (A) (A) (A) (A) (A) (A) (A)
                 (A) (A) (A) (A) (A) (A) (A) (A) (A) (A) (A) (A)
                 (A) (A) (A) (A) (A) (A) (A) (A) (A) (A) (A) (A)
                 (A) (A) (A) (A) (A) (A) (A) (A) (A) (A) (A) (A)
                 (A) (A) (A) (A) (A) (A) (A) (A) (A) (A) (A) (A)
                 (A) (A) (A) (A) (A) (A) (A) (A) (A) (A) (A) (A)
                 (A) (A) (A) (A) (A) (A) (A) (A) (A) (A) (A) (A)
                 (A) (A) (A) (A) (A) (A) (A) (A) (A) (A) (A) (A)
                 (A) (A) (A) (A) (A) (A) (A) (A) (A) (A) (A) (A)
                 (A) (A) (A) (A) (A) (A) (A) (A) (A) (A) (A) (A)
                 (A) (A) (A) (A) (A) (A) (A) (A) (A) (A) (A) (A)
                 (A) (A) (A) (A) (A) (A) (A) (A) (A) (A) (A) (A)
                 (A) (A) (A) (A) (A) (A) (A) (A) (A) (A) (A) (A)
                 (A) (A) (A) (A) (A) (A) (A) (A) (A) (A) (A) (A)
                 (A) (A) (A) (A) (A) (A) (A) (A) (A) (A) (A) (A)
                 (A) (A) (A) (A) (A) (A) (A) (A) (A) (A) (A) (A)
                 (A) (A) (A) (A) (A) (A) (A) (A) (A) (A) (A) (A)
                 (A) (A) (A) (A) (A) (A) (A) (A) (A) (A) (A) (A)
                 (A) (A) (A) (A) (A) (A) (A) (A) (A) (A) (A) (A)
                 (A) (A) (A) (A) (A) (A) (A) (A) (A) (A) (A) (A)
                 (A) (A) (A) (A) (A) (A) (A) (A) (A) (A) (A) (A)
                 (A) (A) (A) (A) (A) (A) (A) (A) (A) (A) (A) (A)
                 (A) (A) (A) (A) (A) (A) (A) (A) (A) (A) (A) (A)
                 (A) (A) (A) (A) (A) (A) (A) (A) (A) (A) (A) (A)
                 (A) (A) (A) (A) (A) (A) (A) (A) (A) (A) (A) (A)
                 (A) (A) (A) (A) (A) (A) (A) (A) (A) (A) (A) (A)
                 (A) (A) (A) (A) (A) (A) (A) (A) (A) (A) (A) (A)
                 (A) (A) (A) (A) (A) (A) (A) (A) (A) (A) (A) (A)
                 (A) (A) (A) (A) (A) (A) (A) (A) (A) (A) (A) (A)
                 (A) (A) (A) (A) (A) (A) (A) (A) (A) (A) (A) (A)
                 (A) (A) (A) (A) (A) (A) (A) (A) (A) (A) (A) (A)
                 (A) (A) (A) (A) (A) (A) (A) (A) (A) (A) (A) (A)
                 (A) (A) (A) (A) (A) (A) (A) (A) (A) (A) (A) (A)
                 (A) (A) (A) (A) (A) (A) (A) (A) (A) (A) (A) (A)
                 (A) (A) (A) (A) (A) (A) (A) (A) (A) (A) (A) (A)
                 (A) (A) (A) (A) (A) (A) (A) (A) (A) (A) (A) (A)
                 (A) (A) (A) (A) (A) (A) (A) (A) (A) (A) (A)
 The electronic state is 1-A.
 Alpha  occ. eigenvalues --  -24.66166 -19.16598 -19.16304 -19.07797 -10.33793
 Alpha  occ. eigenvalues --  -10.23757 -10.23710 -10.18445  -1.21375  -1.05845
 Alpha  occ. eigenvalues --   -1.02488  -0.98800  -0.75503  -0.71107  -0.69725
 Alpha  occ. eigenvalues --   -0.59541  -0.54390  -0.53582  -0.52211  -0.49228
 Alpha  occ. eigenvalues --   -0.47242  -0.46068  -0.45439  -0.45145  -0.41619
 Alpha  occ. eigenvalues --   -0.41088  -0.40325  -0.38477  -0.37098  -0.36164
 Alpha  occ. eigenvalues --   -0.34792  -0.30210  -0.27421  -0.26064
 Alpha virt. eigenvalues --   -0.01960  -0.00385   0.00399   0.00610   0.01967
 Alpha virt. eigenvalues --    0.02050   0.02888   0.03342   0.04099   0.04918
 Alpha virt. eigenvalues --    0.05153   0.05373   0.06153   0.06445   0.06704
 Alpha virt. eigenvalues --    0.07713   0.08174   0.08398   0.08503   0.09384
 Alpha virt. eigenvalues --    0.09425   0.09709   0.10004   0.10381   0.10594
 Alpha virt. eigenvalues --    0.10855   0.11638   0.11702   0.12606   0.13635
 Alpha virt. eigenvalues --    0.14183   0.14558   0.15098   0.15504   0.15805
 Alpha virt. eigenvalues --    0.16299   0.17284   0.18073   0.18465   0.18646
 Alpha virt. eigenvalues --    0.19993   0.20396   0.20716   0.21461   0.21897
 Alpha virt. eigenvalues --    0.22402   0.23240   0.23859   0.23962   0.24484
 Alpha virt. eigenvalues --    0.25333   0.25533   0.25822   0.26463   0.26655
 Alpha virt. eigenvalues --    0.27204   0.27626   0.28067   0.28861   0.29067
 Alpha virt. eigenvalues --    0.29291   0.29974   0.30363   0.30572   0.31061
 Alpha virt. eigenvalues --    0.31500   0.31941   0.32625   0.33180   0.33504
 Alpha virt. eigenvalues --    0.33719   0.34375   0.34987   0.35078   0.35857
 Alpha virt. eigenvalues --    0.36058   0.36721   0.37241   0.37747   0.38067
 Alpha virt. eigenvalues --    0.38703   0.39420   0.39838   0.40279   0.40827
 Alpha virt. eigenvalues --    0.41338   0.41706   0.41883   0.42571   0.43555
 Alpha virt. eigenvalues --    0.44181   0.44485   0.45655   0.45731   0.46398
 Alpha virt. eigenvalues --    0.46676   0.47130   0.48092   0.48799   0.49871
 Alpha virt. eigenvalues --    0.50013   0.50271   0.50977   0.51664   0.52656
 Alpha virt. eigenvalues --    0.53722   0.54070   0.54607   0.55884   0.56588
 Alpha virt. eigenvalues --    0.57035   0.57935   0.58964   0.59922   0.60105
 Alpha virt. eigenvalues --    0.61266   0.61686   0.63397   0.64238   0.64880
 Alpha virt. eigenvalues --    0.65719   0.66399   0.67257   0.67966   0.68417
 Alpha virt. eigenvalues --    0.69171   0.69842   0.70857   0.71177   0.72065
 Alpha virt. eigenvalues --    0.72471   0.73402   0.74285   0.74920   0.75307
 Alpha virt. eigenvalues --    0.76253   0.77437   0.78093   0.78852   0.79141
 Alpha virt. eigenvalues --    0.79702   0.79958   0.80826   0.81504   0.81973
 Alpha virt. eigenvalues --    0.82455   0.83496   0.83843   0.84805   0.85293
 Alpha virt. eigenvalues --    0.85486   0.86885   0.87517   0.87944   0.88937
 Alpha virt. eigenvalues --    0.89588   0.90075   0.90926   0.91257   0.92249
 Alpha virt. eigenvalues --    0.92589   0.92820   0.93203   0.94428   0.95189
 Alpha virt. eigenvalues --    0.95766   0.96815   0.97912   0.98572   0.99258
 Alpha virt. eigenvalues --    1.00092   1.00523   1.01143   1.01368   1.02064
 Alpha virt. eigenvalues --    1.02953   1.03269   1.04337   1.04974   1.05708
 Alpha virt. eigenvalues --    1.06115   1.07171   1.07956   1.08587   1.09054
 Alpha virt. eigenvalues --    1.10326   1.11759   1.11881   1.12751   1.13490
 Alpha virt. eigenvalues --    1.14316   1.15043   1.15824   1.16492   1.17319
 Alpha virt. eigenvalues --    1.18147   1.18858   1.20034   1.20705   1.21689
 Alpha virt. eigenvalues --    1.22075   1.23270   1.23476   1.24896   1.25310
 Alpha virt. eigenvalues --    1.26174   1.26933   1.27805   1.28480   1.28810
 Alpha virt. eigenvalues --    1.30695   1.31114   1.32138   1.33882   1.34484
 Alpha virt. eigenvalues --    1.34833   1.35789   1.36236   1.37995   1.38469
 Alpha virt. eigenvalues --    1.39204   1.39881   1.40344   1.41600   1.42386
 Alpha virt. eigenvalues --    1.42992   1.43466   1.44302   1.45312   1.45891
 Alpha virt. eigenvalues --    1.47762   1.48565   1.48902   1.50101   1.50944
 Alpha virt. eigenvalues --    1.51068   1.52132   1.52625   1.53231   1.54425
 Alpha virt. eigenvalues --    1.54781   1.56589   1.56867   1.57804   1.58489
 Alpha virt. eigenvalues --    1.59155   1.59325   1.60310   1.60793   1.61361
 Alpha virt. eigenvalues --    1.61558   1.63474   1.64205   1.65454   1.67138
 Alpha virt. eigenvalues --    1.68322   1.68880   1.69699   1.71021   1.71565
 Alpha virt. eigenvalues --    1.72252   1.72820   1.74170   1.74774   1.75368
 Alpha virt. eigenvalues --    1.76638   1.78247   1.78755   1.80881   1.82367
 Alpha virt. eigenvalues --    1.82967   1.83404   1.85204   1.86455   1.87242
 Alpha virt. eigenvalues --    1.88444   1.89019   1.90272   1.91080   1.91893
 Alpha virt. eigenvalues --    1.93333   1.94233   1.95751   1.96283   1.98594
 Alpha virt. eigenvalues --    2.00085   2.00236   2.00534   2.01468   2.03021
 Alpha virt. eigenvalues --    2.03424   2.05372   2.05566   2.06059   2.07359
 Alpha virt. eigenvalues --    2.08678   2.09783   2.10391   2.12665   2.13725
 Alpha virt. eigenvalues --    2.15770   2.16613   2.21045   2.22587   2.23886
 Alpha virt. eigenvalues --    2.26526   2.28203   2.33852   2.35674   2.36946
 Alpha virt. eigenvalues --    2.40407   2.42210   2.43692   2.44375   2.45682
 Alpha virt. eigenvalues --    2.47678   2.49304   2.51182   2.51845   2.54074
 Alpha virt. eigenvalues --    2.55573   2.56144   2.57857   2.58345   2.62537
 Alpha virt. eigenvalues --    2.64077   2.67968   2.68844   2.70229   2.72284
 Alpha virt. eigenvalues --    2.73826   2.74778   2.78191   2.79600   2.80326
 Alpha virt. eigenvalues --    2.81973   2.83172   2.85416   2.86454   2.88069
 Alpha virt. eigenvalues --    2.90515   2.91330   2.93000   2.94091   2.96081
 Alpha virt. eigenvalues --    2.97402   3.00246   3.00766   3.03521   3.05346
 Alpha virt. eigenvalues --    3.07329   3.08176   3.10787   3.12647   3.15119
 Alpha virt. eigenvalues --    3.17978   3.19684   3.20339   3.21557   3.23780
 Alpha virt. eigenvalues --    3.25391   3.27203   3.28381   3.29056   3.30736
 Alpha virt. eigenvalues --    3.32075   3.33530   3.34049   3.34636   3.35996
 Alpha virt. eigenvalues --    3.36290   3.38466   3.40224   3.41881   3.42309
 Alpha virt. eigenvalues --    3.43219   3.45355   3.46100   3.48205   3.49414
 Alpha virt. eigenvalues --    3.50661   3.51197   3.51970   3.53182   3.54488
 Alpha virt. eigenvalues --    3.55280   3.56059   3.57416   3.58583   3.58907
 Alpha virt. eigenvalues --    3.60312   3.62518   3.63967   3.65505   3.66797
 Alpha virt. eigenvalues --    3.68000   3.69463   3.71183   3.72431   3.74275
 Alpha virt. eigenvalues --    3.75521   3.77126   3.77750   3.79909   3.81206
 Alpha virt. eigenvalues --    3.81889   3.83123   3.87084   3.87335   3.88729
 Alpha virt. eigenvalues --    3.89928   3.91491   3.92169   3.93103   3.94644
 Alpha virt. eigenvalues --    3.96036   3.97453   3.99500   4.00158   4.00973
 Alpha virt. eigenvalues --    4.01513   4.03364   4.04109   4.06096   4.08620
 Alpha virt. eigenvalues --    4.09797   4.12421   4.13512   4.14397   4.15015
 Alpha virt. eigenvalues --    4.16871   4.18454   4.21888   4.23310   4.24198
 Alpha virt. eigenvalues --    4.26535   4.27618   4.28697   4.29494   4.31991
 Alpha virt. eigenvalues --    4.32896   4.34381   4.36397   4.39662   4.40465
 Alpha virt. eigenvalues --    4.41658   4.42187   4.45507   4.45890   4.47009
 Alpha virt. eigenvalues --    4.47825   4.49076   4.49761   4.50939   4.54454
 Alpha virt. eigenvalues --    4.55663   4.56644   4.57557   4.58321   4.61452
 Alpha virt. eigenvalues --    4.61696   4.63400   4.65578   4.67657   4.68344
 Alpha virt. eigenvalues --    4.73019   4.73183   4.73717   4.74457   4.76832
 Alpha virt. eigenvalues --    4.77044   4.79893   4.82711   4.83885   4.84674
 Alpha virt. eigenvalues --    4.87388   4.88861   4.90802   4.93951   4.95519
 Alpha virt. eigenvalues --    4.98634   4.99218   5.00972   5.01886   5.03903
 Alpha virt. eigenvalues --    5.07385   5.09348   5.11372   5.12406   5.13950
 Alpha virt. eigenvalues --    5.14984   5.21073   5.22287   5.22491   5.24906
 Alpha virt. eigenvalues --    5.25715   5.30276   5.30719   5.34007   5.35321
 Alpha virt. eigenvalues --    5.39478   5.40689   5.43999   5.45604   5.50781
 Alpha virt. eigenvalues --    5.53561   5.55895   5.59992   5.64140   5.66037
 Alpha virt. eigenvalues --    5.67831   5.69949   5.71199   5.71632   5.77194
 Alpha virt. eigenvalues --    5.78354   5.80653   5.83468   5.88782   5.89431
 Alpha virt. eigenvalues --    5.99838   6.07760   6.18661   6.25037   6.31905
 Alpha virt. eigenvalues --    6.35991   6.37477   6.39630   6.41043   6.51377
 Alpha virt. eigenvalues --    6.57339   6.59536   6.62244   6.65404   6.67311
 Alpha virt. eigenvalues --    6.71459   6.73798   6.74222   6.77572   6.83053
 Alpha virt. eigenvalues --    6.83186   6.85612   6.87459   6.91622   6.95328
 Alpha virt. eigenvalues --    6.96712   7.03256   7.07109   7.10653   7.15769
 Alpha virt. eigenvalues --    7.17989   7.22187   7.25513   7.28696   7.30788
 Alpha virt. eigenvalues --    7.33185   7.47619   7.49058   7.53382   7.59180
 Alpha virt. eigenvalues --    7.63972   7.76993   7.79712   7.87060   8.01528
 Alpha virt. eigenvalues --    8.14393   8.39208   8.56711   8.57709   8.87399
 Alpha virt. eigenvalues --    8.89107   8.98048   8.99071   9.00731   9.05118
 Alpha virt. eigenvalues --    9.09580   9.36670   9.38841   9.39380  15.02766
 Alpha virt. eigenvalues --   15.37198  15.69167  16.04846  17.14262  17.25607
 Alpha virt. eigenvalues --   17.74658  19.09881
          Condensed to atoms (all electrons):
               1          2          3          4          5          6
     1  C    5.058489   0.101187  -0.004314  -0.017874  -0.000719  -0.004695
     2  O    0.101187   8.876467  -0.065603  -0.058629   0.008077   0.002626
     3  O   -0.004314  -0.065603   8.512534  -0.237499   0.013060  -0.009096
     4  O   -0.017874  -0.058629  -0.237499   8.577895   0.016740   0.004592
     5  C   -0.000719   0.008077   0.013060   0.016740   5.312790   0.357043
     6  H   -0.004695   0.002626  -0.009096   0.004592   0.357043   0.335728
     7  H    0.000516   0.000831  -0.003374  -0.000318   0.389779   0.004693
     8  H    0.002127  -0.001941   0.008130  -0.039322   0.421537  -0.005093
     9  H   -0.001300   0.003803   0.087131   0.067358   0.008269  -0.006246
    10  H    0.005115   0.084525   0.029773   0.059957   0.014395   0.003535
    11  C   -0.500770   0.050851   0.012163  -0.010361   0.003861  -0.000169
    12  H   -0.054371  -0.005731   0.005882   0.000579  -0.000244  -0.000014
    13  H   -0.099566   0.004728  -0.015285  -0.001397   0.000361   0.000047
    14  H   -0.004656   0.005792  -0.002714  -0.000405  -0.000399   0.000194
    15  C   -0.016042   0.028019   0.013392   0.023796  -0.000628   0.004436
    16  H    0.027889   0.003479  -0.041840   0.009483  -0.000933   0.000769
    17  H   -0.005194   0.004358   0.018399  -0.010098   0.001130   0.000553
    18  H   -0.021153   0.007761   0.004112  -0.007279   0.008243  -0.002673
    19  F   -0.154437  -0.070841  -0.044850   0.008106  -0.001680   0.000033
               7          8          9         10         11         12
     1  C    0.000516   0.002127  -0.001300   0.005115  -0.500770  -0.054371
     2  O    0.000831  -0.001941   0.003803   0.084525   0.050851  -0.005731
     3  O   -0.003374   0.008130   0.087131   0.029773   0.012163   0.005882
     4  O   -0.000318  -0.039322   0.067358   0.059957  -0.010361   0.000579
     5  C    0.389779   0.421537   0.008269   0.014395   0.003861  -0.000244
     6  H    0.004693  -0.005093  -0.006246   0.003535  -0.000169  -0.000014
     7  H    0.347298  -0.001339  -0.003507  -0.000983   0.000138  -0.000005
     8  H   -0.001339   0.372200   0.003597   0.015639   0.001328  -0.000007
     9  H   -0.003507   0.003597   0.597660   0.034919  -0.027660  -0.000037
    10  H   -0.000983   0.015639   0.034919   0.566068  -0.021735  -0.001039
    11  C    0.000138   0.001328  -0.027660  -0.021735   5.993638   0.419069
    12  H   -0.000005  -0.000007  -0.000037  -0.001039   0.419069   0.512725
    13  H    0.000013   0.000118  -0.002067  -0.001779   0.492721  -0.020072
    14  H   -0.000128   0.000098  -0.003971  -0.002172   0.398359  -0.040036
    15  C    0.001449  -0.000700  -0.007870   0.004069  -0.026265   0.001058
    16  H    0.000257  -0.000512   0.011627   0.001078  -0.014490   0.003014
    17  H   -0.001368   0.001069  -0.018345   0.000122   0.004794  -0.000605
    18  H    0.000898   0.000391   0.003927  -0.002299   0.018486   0.000809
    19  F   -0.000081  -0.000723   0.018355   0.011040   0.090535  -0.008538
              13         14         15         16         17         18
     1  C   -0.099566  -0.004656  -0.016042   0.027889  -0.005194  -0.021153
     2  O    0.004728   0.005792   0.028019   0.003479   0.004358   0.007761
     3  O   -0.015285  -0.002714   0.013392  -0.041840   0.018399   0.004112
     4  O   -0.001397  -0.000405   0.023796   0.009483  -0.010098  -0.007279
     5  C    0.000361  -0.000399  -0.000628  -0.000933   0.001130   0.008243
     6  H    0.000047   0.000194   0.004436   0.000769   0.000553  -0.002673
     7  H    0.000013  -0.000128   0.001449   0.000257  -0.001368   0.000898
     8  H    0.000118   0.000098  -0.000700  -0.000512   0.001069   0.000391
     9  H   -0.002067  -0.003971  -0.007870   0.011627  -0.018345   0.003927
    10  H   -0.001779  -0.002172   0.004069   0.001078   0.000122  -0.002299
    11  C    0.492721   0.398359  -0.026265  -0.014490   0.004794   0.018486
    12  H   -0.020072  -0.040036   0.001058   0.003014  -0.000605   0.000809
    13  H    0.459230  -0.007661   0.002980  -0.006955   0.001434   0.000368
    14  H   -0.007661   0.449451   0.000640  -0.007044   0.004690  -0.003564
    15  C    0.002980   0.000640   5.416889   0.418894   0.398089   0.342693
    16  H   -0.006955  -0.007044   0.418894   0.397055  -0.021890   0.001486
    17  H    0.001434   0.004690   0.398089  -0.021890   0.427827  -0.011026
    18  H    0.000368  -0.003564   0.342693   0.001486  -0.011026   0.359579
    19  F    0.013139   0.012227   0.008455  -0.005444  -0.000796   0.002902
              19
     1  C   -0.154437
     2  O   -0.070841
     3  O   -0.044850
     4  O    0.008106
     5  C   -0.001680
     6  H    0.000033
     7  H   -0.000081
     8  H   -0.000723
     9  H    0.018355
    10  H    0.011040
    11  C    0.090535
    12  H   -0.008538
    13  H    0.013139
    14  H    0.012227
    15  C    0.008455
    16  H   -0.005444
    17  H   -0.000796
    18  H    0.002902
    19  F    9.651026
 Mulliken charges:
               1
     1  C    1.689767
     2  O   -0.979760
     3  O   -0.280003
     4  O   -0.385323
     5  C   -0.550681
     6  H    0.313739
     7  H    0.265231
     8  H    0.223402
     9  H    0.234356
    10  H    0.199771
    11  C   -0.884493
    12  H    0.187561
    13  H    0.179643
    14  H    0.201300
    15  C   -0.613353
    16  H    0.224078
    17  H    0.206857
    18  H    0.296336
    19  F   -0.528427
 Sum of Mulliken charges =   0.00000
 Mulliken charges with hydrogens summed into heavy atoms:
               1
     1  C    1.689767
     2  O   -0.979760
     3  O   -0.045646
     4  O   -0.185552
     5  C    0.251691
    11  C   -0.315989
    15  C    0.113918
    19  F   -0.528427
 APT charges:
               1
     1  C    1.362578
     2  O   -0.949694
     3  O   -0.296807
     4  O   -0.404645
     5  C   -1.533398
     6  H    0.220062
     7  H    0.645734
     8  H    0.850875
     9  H    0.326822
    10  H    0.379232
    11  C   -1.998272
    12  H    0.609322
    13  H    0.585003
    14  H    0.519056
    15  C   -1.493414
    16  H    0.609049
    17  H    0.585775
    18  H    0.373472
    19  F   -0.390749
 Sum of APT charges =   0.00000
 APT charges with hydrogens summed into heavy atoms:
               1
     1  C    1.362578
     2  O   -0.949694
     3  O    0.030015
     4  O   -0.025413
     5  C    0.183273
    11  C   -0.284891
    15  C    0.074881
    19  F   -0.390749
 Electronic spatial extent (au):  <R**2>=           1147.0070
 Charge=              0.0000 electrons
 Dipole moment (field-independent basis, Debye):
    X=             -1.1979    Y=              3.6646    Z=              1.0795  Tot=              4.0037
 Quadrupole moment (field-independent basis, Debye-Ang):
   XX=            -40.7921   YY=            -49.0305   ZZ=            -54.1663
   XY=              0.9327   XZ=              0.3586   YZ=             -0.4494
 Traceless Quadrupole moment (field-independent basis, Debye-Ang):
   XX=              7.2042   YY=             -1.0342   ZZ=             -6.1700
   XY=              0.9327   XZ=              0.3586   YZ=             -0.4494
 Octapole moment (field-independent basis, Debye-Ang**2):
  XXX=             -5.8286  YYY=             -1.4480  ZZZ=             -8.0926  XYY=             -2.2318
  XXY=             -0.9024  XXZ=              7.0959  XZZ=             -1.0685  YZZ=              1.7321
  YYZ=             -3.1563  XYZ=              1.7621
 Hexadecapole moment (field-independent basis, Debye-Ang**3):
 XXXX=           -831.2380 YYYY=           -366.6365 ZZZZ=           -189.9013 XXXY=             -6.6761
 XXXZ=            -10.5621 YYYX=              1.1469 YYYZ=             -0.4708 ZZZX=             -3.9522
 ZZZY=              9.9714 XXYY=           -206.6850 XXZZ=           -180.9724 YYZZ=            -95.7431
 XXYZ=            -14.0998 YYXZ=             -1.3476 ZZXY=             -2.0480
 N-N= 4.523329082244D+02 E-N=-2.044595000018D+03  KE= 4.816979825339D+02
  Exact polarizability:   0.000   0.000   0.000   0.000   0.000   0.000
 Approx polarizability: 107.792   1.480 101.684  -0.744  -2.837  96.551
 Calling FoFJK, ICntrl=    100147 FMM=F ISym2X=0 I1Cent= 0 IOpClX= 0 NMat=1 NMatS=1 NMatT=0.
 ***** Axes restored to original set *****
 -------------------------------------------------------------------
 Center     Atomic                   Forces (Hartrees/Bohr)
 Number     Number              X              Y              Z
 -------------------------------------------------------------------
      1        6          -0.043969740   -0.010776324    0.004345763
      2        8           0.018773799   -0.010258885    0.026242591
      3        8          -0.027230600    0.031621989   -0.006322465
      4        8           0.017470737   -0.005175714    0.015798812
      5        6           0.000528482   -0.009196494   -0.010018724
      6        1          -0.002754453   -0.000615030   -0.001971007
      7        1          -0.000646032   -0.001430952    0.007097540
      8        1           0.000553813    0.007419578    0.000856490
      9        1           0.019458384   -0.014483825    0.008438887
     10        1          -0.006206214    0.034602909   -0.022906173
     11        6           0.014562363    0.004171312    0.007530515
     12        1          -0.008728033    0.003299229   -0.004002542
     13        1          -0.004808616   -0.004489887    0.002140589
     14        1          -0.001629714   -0.003808580   -0.006067742
     15        6           0.004125761   -0.007448600   -0.010845451
     16        1          -0.006550437    0.002469079    0.003104851
     17        1           0.003244187    0.001426920    0.005578235
     18        1           0.000185485    0.002735544   -0.002120705
     19        9           0.023620828   -0.020062270   -0.016879464
 -------------------------------------------------------------------
 Cartesian Forces:  Max     0.043969740 RMS     0.013471800
 FormGI is forming the generalized inverse of G from B-inverse, IUseBI=4.

 GradGradGradGradGradGradGradGradGradGradGradGradGradGradGradGradGradGrad
 Berny optimization.
 Internal  Forces:  Max     0.028359658 RMS     0.008117617
 Search for a saddle point.
 Step number   1 out of a maximum of   99
 All quantities printed in internal units (Hartrees-Bohrs-Radians)
 Swapping is turned off.
 Second derivative matrix not updated -- analytic derivatives used.
 ITU=  0
     Eigenvalues ---   -0.05320   0.00148   0.00167   0.00184   0.00239
     Eigenvalues ---    0.00318   0.00448   0.00704   0.01793   0.02408
     Eigenvalues ---    0.03126   0.04148   0.04290   0.05494   0.06192
     Eigenvalues ---    0.06266   0.06298   0.06348   0.06365   0.06681
     Eigenvalues ---    0.07692   0.09750   0.11381   0.11728   0.12807
     Eigenvalues ---    0.13175   0.13428   0.14089   0.15159   0.15628
     Eigenvalues ---    0.17665   0.18222   0.18306   0.18406   0.18674
     Eigenvalues ---    0.19124   0.20024   0.29560   0.31285   0.31652
     Eigenvalues ---    0.31999   0.32082   0.32267   0.32318   0.32418
     Eigenvalues ---    0.32502   0.32750   0.34291   0.35001   0.35297
     Eigenvalues ---    0.58135
 Eigenvectors required to have negative eigenvalues:
                          R9        R6        R5        R2        R10
   1                    0.59315  -0.53812   0.39003   0.29610  -0.22460
                          R1        A21       D17       D2        D16
   1                   -0.08678  -0.06998  -0.06995  -0.06934  -0.06636
 RFO step:  Lambda0=2.422889829D-03 Lambda=-3.11590326D-02.
 Linear search not attempted -- option 19 set.
 Maximum step size (   0.300) exceeded in Quadratic search.
    -- Step size scaled by   0.657
 Iteration  1 RMS(Cart)=  0.04706220 RMS(Int)=  0.00165153
 Iteration  2 RMS(Cart)=  0.00276728 RMS(Int)=  0.00067512
 Iteration  3 RMS(Cart)=  0.00000260 RMS(Int)=  0.00067512
 Iteration  4 RMS(Cart)=  0.00000000 RMS(Int)=  0.00067512
 Variable       Old X    -DE/DX   Delta X   Delta X   Delta X     New X
                                 (Linear)    (Quad)   (Total)
    R1        2.39516  -0.00654   0.00000  -0.00700  -0.00676   2.38839
    R2        3.10569   0.02149   0.00000   0.03752   0.03658   3.14227
    R3        2.83594  -0.00098   0.00000   0.00534   0.00534   2.84128
    R4        2.57046   0.02836   0.00000   0.03789   0.03789   2.60835
    R5        2.86329  -0.00204   0.00000  -0.08078  -0.07955   2.78374
    R6        2.36230  -0.02200   0.00000   0.00235   0.00144   2.36373
    R7        2.73201  -0.00256   0.00000  -0.02274  -0.02274   2.70926
    R8        2.73770  -0.00242   0.00000  -0.01174  -0.01174   2.72596
    R9        2.47025  -0.01153   0.00000  -0.16271  -0.16322   2.30703
   R10        2.10247  -0.02451   0.00000  -0.05063  -0.04949   2.05297
   R11        2.06777  -0.00300   0.00000  -0.00445  -0.00445   2.06332
   R12        2.06918  -0.00483   0.00000  -0.00879  -0.00879   2.06040
   R13        2.07263  -0.00541   0.00000  -0.01035  -0.01035   2.06228
   R14        2.08607  -0.00896   0.00000  -0.01733  -0.01733   2.06874
   R15        2.07572  -0.00625   0.00000  -0.01248  -0.01248   2.06323
   R16        2.07541  -0.00680   0.00000  -0.01295  -0.01295   2.06246
   R17        2.07037  -0.00521   0.00000  -0.00748  -0.00748   2.06288
   R18        2.06940  -0.00440   0.00000  -0.00617  -0.00617   2.06323
   R19        2.06831  -0.00228   0.00000  -0.00151  -0.00151   2.06680
    A1        1.80390   0.00812   0.00000   0.04355   0.04311   1.84701
    A2        2.14658  -0.00924   0.00000  -0.03008  -0.02950   2.11708
    A3        1.95052   0.01259   0.00000   0.02738   0.02512   1.97565
    A4        1.90851  -0.00451   0.00000  -0.01430  -0.01415   1.89436
    A5        1.59834   0.01060   0.00000   0.03041   0.02999   1.62833
    A6        1.96470  -0.01076   0.00000  -0.03279  -0.03289   1.93181
    A7        2.01334  -0.02313   0.00000  -0.11489  -0.11469   1.89865
    A8        1.77834  -0.01351   0.00000  -0.05037  -0.05154   1.72681
    A9        2.01624   0.00810   0.00000   0.01112   0.01223   2.02847
   A10        1.86656   0.00753   0.00000   0.04045   0.04044   1.90700
   A11        1.92455   0.00495   0.00000   0.04203   0.04099   1.96554
   A12        1.88985  -0.00026   0.00000   0.01823   0.01836   1.90820
   A13        1.61251  -0.00097   0.00000  -0.04038  -0.03985   1.57266
   A14        1.93341  -0.00024   0.00000   0.00071   0.00067   1.93408
   A15        1.84583   0.00703   0.00000   0.02468   0.02452   1.87035
   A16        1.86602   0.00681   0.00000   0.01754   0.01739   1.88342
   A17        1.95369  -0.00414   0.00000  -0.01611  -0.01616   1.93753
   A18        1.93382  -0.00367   0.00000  -0.01185  -0.01188   1.92193
   A19        1.92724  -0.00485   0.00000  -0.01185  -0.01215   1.91509
   A20        2.70759   0.00678   0.00000   0.03422   0.03341   2.74100
   A21        2.34867   0.01740   0.00000   0.12678   0.12947   2.47814
   A22        1.91906  -0.00581   0.00000  -0.02582  -0.02599   1.89308
   A23        1.96957  -0.00242   0.00000  -0.01139  -0.01150   1.95807
   A24        1.94169  -0.00194   0.00000  -0.00843  -0.00849   1.93320
   A25        1.86965   0.00384   0.00000   0.01596   0.01576   1.88541
   A26        1.85804   0.00405   0.00000   0.01845   0.01833   1.87637
   A27        1.90113   0.00291   0.00000   0.01402   0.01400   1.91513
   A28        1.86650   0.00747   0.00000   0.02917   0.02888   1.89538
   A29        1.85376   0.00583   0.00000   0.01910   0.01888   1.87263
   A30        1.92832   0.00113   0.00000   0.01086   0.01071   1.93902
   A31        1.91987  -0.00472   0.00000  -0.01483  -0.01521   1.90466
   A32        1.94223  -0.00423   0.00000  -0.01824  -0.01846   1.92377
   A33        1.94935  -0.00450   0.00000  -0.02208  -0.02217   1.92719
    D1        0.76186   0.00084   0.00000  -0.02692  -0.02575   0.73611
    D2        2.92719  -0.00449   0.00000  -0.02758  -0.02698   2.90021
    D3       -0.93449  -0.01814   0.00000  -0.08758  -0.08778  -1.02227
    D4       -0.48799  -0.01278   0.00000  -0.04864  -0.04766  -0.53565
    D5        1.52798  -0.00851   0.00000  -0.02667  -0.02636   1.50162
    D6       -2.80179  -0.00405   0.00000  -0.03236  -0.03161  -2.83340
    D7       -0.78583   0.00022   0.00000  -0.01039  -0.01030  -0.79613
    D8        1.48089   0.00418   0.00000  -0.00644  -0.00524   1.47566
    D9       -2.78633   0.00844   0.00000   0.01553   0.01607  -2.77026
   D10        1.32755  -0.00167   0.00000  -0.02438  -0.02425   1.30330
   D11       -2.86945  -0.00239   0.00000  -0.02943  -0.02923  -2.89868
   D12       -0.72642  -0.00182   0.00000  -0.02576  -0.02563  -0.75205
   D13       -2.83816  -0.00182   0.00000   0.00012   0.00013  -2.83803
   D14       -0.75198  -0.00254   0.00000  -0.00492  -0.00484  -0.75682
   D15        1.39105  -0.00197   0.00000  -0.00125  -0.00124   1.38981
   D16       -1.08886   0.00370   0.00000   0.01447   0.01426  -1.07460
   D17        0.99732   0.00297   0.00000   0.00942   0.00928   1.00661
   D18        3.14035   0.00355   0.00000   0.01310   0.01288  -3.12995
   D19       -0.86565  -0.00183   0.00000   0.02552   0.02329  -0.84236
   D20        0.04823   0.00391   0.00000   0.02103   0.02121   0.06945
   D21       -2.07464  -0.00195   0.00000   0.01540   0.01612  -2.05852
   D22        1.30621   0.00347   0.00000   0.01290   0.01325   1.31945
   D23       -2.92713   0.00454   0.00000   0.01941   0.01996  -2.90717
   D24       -0.81008   0.00332   0.00000   0.01062   0.01099  -0.79910
   D25       -3.01186  -0.00398   0.00000  -0.01702  -0.01752  -3.02937
   D26       -0.96201  -0.00292   0.00000  -0.01050  -0.01080  -0.97281
   D27        1.15504  -0.00414   0.00000  -0.01930  -0.01978   1.13526
   D28       -0.90731  -0.00031   0.00000   0.00882   0.00852  -0.89878
   D29        1.21298  -0.00110   0.00000   0.00499   0.00459   1.21757
   D30       -3.01602   0.00004   0.00000   0.01190   0.01172  -3.00430
   D31        0.83310   0.00045   0.00000  -0.01254  -0.01225   0.82085
   D32        2.95339  -0.00034   0.00000  -0.01637  -0.01619   2.93720
   D33       -1.27561   0.00080   0.00000  -0.00946  -0.00905  -1.28466
   D34        1.99215   0.00242   0.00000   0.02996   0.02936   2.02151
   D35        0.06370   0.00219   0.00000   0.01913   0.01939   0.08309
   D36       -1.64399  -0.00158   0.00000  -0.02745  -0.02817  -1.67215
   D37        0.31545   0.00330   0.00000   0.00564   0.00367   0.31912
         Item               Value     Threshold  Converged?
 Maximum Force            0.028360     0.000450     NO 
 RMS     Force            0.008118     0.000300     NO 
 Maximum Displacement     0.181692     0.001800     NO 
 RMS     Displacement     0.047176     0.001200     NO 
 Predicted change in Energy=-1.409193D-02
 GradGradGradGradGradGradGradGradGradGradGradGradGradGradGradGradGradGrad

                          Input orientation:                          
 ---------------------------------------------------------------------
 Center     Atomic      Atomic             Coordinates (Angstroms)
 Number     Number       Type             X           Y           Z
 ---------------------------------------------------------------------
      1          6           0        1.012613   -0.453437    0.165073
      2          8           0        0.160116   -0.931403    0.966446
      3          8           0        0.212129    0.716778   -0.703711
      4          8           0       -1.808563   -0.584699   -0.403249
      5          6           0       -2.862328    0.004874    0.385953
      6          1           0       -2.451588    0.534474    1.247913
      7          1           0       -3.410451    0.685364   -0.266182
      8          1           0       -3.522191   -0.798275    0.718362
      9          1           0       -0.934360    0.216748   -0.692854
     10          1           0       -1.116575   -1.105625    0.252514
     11          6           0        2.311488    0.121635    0.657874
     12          1           0        2.968027   -0.704462    0.949347
     13          1           0        2.822619    0.704249   -0.111129
     14          1           0        2.149881    0.740369    1.542304
     15          6           0        0.164289    2.022434   -0.113444
     16          1           0        1.141731    2.493932   -0.231574
     17          1           0       -0.580635    2.600420   -0.663971
     18          1           0       -0.102812    1.966142    0.945647
     19          9           0        1.220822   -1.247560   -0.944516
 ---------------------------------------------------------------------
                    Distance matrix (angstroms):
                    1          2          3          4          5
     1  C    0.000000
     2  O    1.263884   0.000000
     3  O    1.662818   2.347048   0.000000
     4  O    2.880843   2.423214   2.422255   0.000000
     5  C    3.908196   3.216947   3.338631   1.442517   0.000000
     6  H    3.761542   3.008157   3.307184   2.095797   1.091860
     7  H    4.587629   4.108802   3.649042   2.048875   1.090314
     8  H    4.581428   3.693054   4.273502   2.059161   1.091312
     9  H    2.230670   2.295518   1.250834   1.220827   2.219408
    10  H    2.228550   1.473089   2.449689   1.086387   2.073322
    11  C    1.503542   2.415059   2.572046   4.312739   5.182272
    12  H    2.121732   2.817120   3.513902   4.965852   5.900306
    13  H    2.166252   3.305367   2.676932   4.816074   5.749333
    14  H    2.148329   2.661879   2.966484   4.605460   5.196185
    15  C    2.631950   3.145049   1.433681   3.282267   3.671560
    16  H    2.976740   3.759221   2.060424   4.267514   4.754917
    17  H    3.542851   3.959892   2.044055   3.423561   3.611831
    18  H    2.776298   2.909524   2.092960   3.351999   3.431436
    19  F    1.380278   2.208355   2.221277   3.147941   4.473348
                    6          7          8          9         10
     6  H    0.000000
     7  H    1.798519   0.000000
     8  H    1.789646   1.784095   0.000000
     9  H    2.483849   2.555910   3.117477   0.000000
    10  H    2.337307   2.956104   2.469507   1.635723   0.000000
    11  C    4.817206   5.823423   5.906074   3.516966   3.663619
    12  H    5.567435   6.640340   6.495005   4.332907   4.162990
    13  H    5.449135   6.235026   6.572841   3.832878   4.350302
    14  H    4.615471   5.847302   5.934535   3.844822   3.967491
    15  C    3.303049   3.819666   4.715764   2.191632   3.399895
    16  H    4.352046   4.898416   5.787328   3.115847   4.276809
    17  H    3.379927   3.439991   4.702629   2.409948   3.855119
    18  H    2.767270   3.748252   4.402931   2.537033   3.308156
    19  F    4.633463   5.064091   5.046106   2.617698   2.629914
                   11         12         13         14         15
    11  C    0.000000
    12  H    1.094732   0.000000
    13  H    1.091815   1.769244   0.000000
    14  H    1.091405   1.763094   1.785420   0.000000
    15  C    2.969584   4.052954   2.967209   2.885787   0.000000
    16  H    2.790563   3.867772   2.458221   2.690352   1.091631
    17  H    4.031876   5.110582   3.934874   3.972802   1.091815
    18  H    3.051863   4.069668   3.356679   2.633087   1.093702
    19  F    2.373163   2.633325   2.658918   3.316517   3.535506
                   16         17         18         19
    16  H    0.000000
    17  H    1.779003   0.000000
    18  H    1.792568   1.794852   0.000000
    19  F    3.809632   4.258040   3.956336   0.000000
 Stoichiometry    C4H11FO3
 Framework group  C1[X(C4H11FO3)]
 Deg. of freedom    51
 Full point group                 C1      NOp   1
 Largest Abelian subgroup         C1      NOp   1
 Largest concise Abelian subgroup C1      NOp   1
                         Standard orientation:                         
 ---------------------------------------------------------------------
 Center     Atomic      Atomic             Coordinates (Angstroms)
 Number     Number       Type             X           Y           Z
 ---------------------------------------------------------------------
      1          6           0        1.016277   -0.439329    0.146295
      2          8           0        0.173017   -0.941528    0.942606
      3          8           0        0.196543    0.732023   -0.702783
      4          8           0       -1.804284   -0.602948   -0.416664
      5          6           0       -2.864250   -0.040574    0.384000
      6          1           0       -2.458802    0.481974    1.252743
      7          1           0       -3.423969    0.641576   -0.256447
      8          1           0       -3.511507   -0.858082    0.706029
      9          1           0       -0.942566    0.215324   -0.696471
     10          1           0       -1.103011   -1.123538    0.229432
     11          6           0        2.308077    0.147072    0.644316
     12          1           0        2.977297   -0.673691    0.921680
     13          1           0        2.808586    0.748466   -0.117180
     14          1           0        2.140015    0.750105    1.538336
     15          6           0        0.131488    2.027876   -0.092886
     16          1           0        1.101681    2.515202   -0.206452
     17          1           0       -0.623245    2.603174   -0.632766
     18          1           0       -0.131814    1.951889    0.965926
     19          9           0        1.232842   -1.213671   -0.975606
 ---------------------------------------------------------------------
 Rotational constants (GHZ):      2.7114234      1.3666794      1.1439710
 Standard basis: Aug-CC-pVTZ (5D, 7F)
 There are   715 symmetry adapted cartesian basis functions of A   symmetry.
 There are   621 symmetry adapted basis functions of A   symmetry.
   621 basis functions,   873 primitive gaussians,   715 cartesian basis functions
    34 alpha electrons       34 beta electrons
       nuclear repulsion energy       452.9464199942 Hartrees.
 NAtoms=   19 NActive=   19 NUniq=   19 SFac= 1.00D+00 NAtFMM=   60 NAOKFM=F Big=F
 Integral buffers will be    131072 words long.
 Raffenetti 2 integral format.
 Two-electron integral symmetry is turned on.
 One-electron integrals computed using PRISM.
 NBasis=   621 RedAO= T EigKep=  7.23D-06  NBF=   621
 NBsUse=   621 1.00D-06 EigRej= -1.00D+00 NBFU=   621
 Initial guess from the checkpoint file:  "/lustre/SCRATCH5/gau/mlawal/954764.sched01/Gau-8049.chk"
 B after Tr=     0.000000    0.000000    0.000000
         Rot=    0.999964   -0.005430   -0.000848   -0.006486 Ang=  -0.97 deg.
 ExpMin= 2.53D-02 ExpMax= 1.95D+04 ExpMxC= 6.65D+02 IAcc=3 IRadAn=         5 AccDes= 0.00D+00
 Harris functional with IExCor=  402 and IRadAn=       5 diagonalized for initial guess.
 HarFok:  IExCor=  402 AccDes= 0.00D+00 IRadAn=         5 IDoV= 1 UseB2=F ITyADJ=14
 ICtDFT=  3500011 ScaDFX=  1.000000  1.000000  1.000000  1.000000
 FoFCou: FMM=F IPFlag=           0 FMFlag=      100000 FMFlg1=           0
         NFxFlg=           0 DoJE=T BraDBF=F KetDBF=T FulRan=T
         wScrn=  0.000000 ICntrl=     500 IOpCl=  0 I1Cent=   200000004 NGrid=           0
         NMat0=    1 NMatS0=      1 NMatT0=    0 NMatD0=    1 NMtDS0=    0 NMtDT0=    0
 Petite list used in FoFCou.
 Requested convergence on RMS density matrix=1.00D-08 within 128 cycles.
 Requested convergence on MAX density matrix=1.00D-06.
 Requested convergence on             energy=1.00D-06.
 No special actions if energy rises.
 SCF Done:  E(RB3LYP) =  -484.722212024     A.U. after   10 cycles
            NFock= 10  Conv=0.47D-08     -V/T= 2.0060
 Calling FoFJK, ICntrl=      2127 FMM=F ISym2X=0 I1Cent= 0 IOpClX= 0 NMat=1 NMatS=1 NMatT=0.
 ***** Axes restored to original set *****
 -------------------------------------------------------------------
 Center     Atomic                   Forces (Hartrees/Bohr)
 Number     Number              X              Y              Z
 -------------------------------------------------------------------
      1        6          -0.020679441   -0.005844826    0.002956474
      2        8           0.008594518   -0.007100773    0.011250506
      3        8          -0.011560158    0.016496138   -0.004518689
      4        8           0.004664651   -0.003820358    0.006614978
      5        6           0.000434242   -0.004726038   -0.004959264
      6        1          -0.001230757   -0.000230538   -0.000745401
      7        1          -0.000354405   -0.000329705    0.003087813
      8        1          -0.000077980    0.003136677    0.000484571
      9        1           0.010421914   -0.005684123    0.003482626
     10        1          -0.002060370    0.017581628   -0.008417827
     11        6           0.006673387    0.002325960    0.002565716
     12        1          -0.003703941    0.001137187   -0.001478472
     13        1          -0.001837723   -0.002036108    0.000700866
     14        1          -0.000931071   -0.001326895   -0.002509356
     15        6           0.002164119   -0.004311112   -0.004666360
     16        1          -0.002648093    0.001336680    0.001559488
     17        1           0.001225633    0.000860171    0.002498869
     18        1          -0.000084624    0.001463411   -0.000760969
     19        9           0.010990098   -0.008927375   -0.007145569
 -------------------------------------------------------------------
 Cartesian Forces:  Max     0.020679441 RMS     0.006274075

 GradGradGradGradGradGradGradGradGradGradGradGradGradGradGradGradGradGrad
 Berny optimization.
 FormGI is forming the generalized inverse of G from B-inverse, IUseBI=4.
 Internal  Forces:  Max     0.012541281 RMS     0.003678456
 Search for a saddle point.
 Step number   2 out of a maximum of   99
 All quantities printed in internal units (Hartrees-Bohrs-Radians)
 Swapping is turned off.
 Update second derivatives using D2CorX and points    1    2
 ITU=  0  0
     Eigenvalues ---   -0.04981   0.00137   0.00149   0.00184   0.00224
     Eigenvalues ---    0.00318   0.00436   0.00725   0.01789   0.02407
     Eigenvalues ---    0.03134   0.04147   0.04289   0.05514   0.06191
     Eigenvalues ---    0.06277   0.06298   0.06343   0.06368   0.06714
     Eigenvalues ---    0.07865   0.09684   0.11535   0.11738   0.13027
     Eigenvalues ---    0.13230   0.13424   0.14079   0.15204   0.15467
     Eigenvalues ---    0.17606   0.18217   0.18323   0.18379   0.18671
     Eigenvalues ---    0.19117   0.20413   0.29538   0.31285   0.31650
     Eigenvalues ---    0.31996   0.32081   0.32266   0.32316   0.32416
     Eigenvalues ---    0.32502   0.32750   0.34200   0.34988   0.35301
     Eigenvalues ---    0.58181
 Eigenvectors required to have negative eigenvalues:
                          R9        R6        R5        R2        R10
   1                   -0.56554   0.55426  -0.39677  -0.29839   0.23995
                          R1        D2        D17       D16       D18
   1                    0.08737   0.07684   0.07142   0.06729   0.06393
 RFO step:  Lambda0=9.288406836D-04 Lambda=-8.98732278D-03.
 Linear search not attempted -- option 19 set.
 Maximum step size (   0.300) exceeded in Quadratic search.
    -- Step size scaled by   0.820
 Iteration  1 RMS(Cart)=  0.06541977 RMS(Int)=  0.00503046
 Iteration  2 RMS(Cart)=  0.00641870 RMS(Int)=  0.00130092
 Iteration  3 RMS(Cart)=  0.00012751 RMS(Int)=  0.00129868
 Iteration  4 RMS(Cart)=  0.00000030 RMS(Int)=  0.00129868
 Variable       Old X    -DE/DX   Delta X   Delta X   Delta X     New X
                                 (Linear)    (Quad)   (Total)
    R1        2.38839  -0.00177   0.00000   0.00203   0.00203   2.39043
    R2        3.14227   0.01117   0.00000   0.03762   0.03608   3.17836
    R3        2.84128  -0.00003   0.00000   0.00330   0.00330   2.84459
    R4        2.60835   0.01254   0.00000   0.01656   0.01656   2.62491
    R5        2.78374  -0.00056   0.00000  -0.19046  -0.18945   2.59429
    R6        2.36373  -0.00874   0.00000  -0.01559  -0.01603   2.34770
    R7        2.70926  -0.00117   0.00000  -0.01271  -0.01271   2.69655
    R8        2.72596  -0.00115   0.00000  -0.01655  -0.01655   2.70941
    R9        2.30703  -0.00245   0.00000  -0.04513  -0.04497   2.26206
   R10        2.05297  -0.00966   0.00000   0.02547   0.02685   2.07983
   R11        2.06332  -0.00116   0.00000   0.00007   0.00007   2.06338
   R12        2.06040  -0.00187   0.00000  -0.00322  -0.00322   2.05717
   R13        2.06228  -0.00211   0.00000  -0.00414  -0.00414   2.05814
   R14        2.06874  -0.00347   0.00000  -0.00868  -0.00868   2.06006
   R15        2.06323  -0.00244   0.00000  -0.00703  -0.00703   2.05620
   R16        2.06246  -0.00265   0.00000  -0.00709  -0.00709   2.05537
   R17        2.06288  -0.00196   0.00000  -0.00379  -0.00379   2.05910
   R18        2.06323  -0.00164   0.00000  -0.00290  -0.00290   2.06033
   R19        2.06680  -0.00079   0.00000  -0.00044  -0.00044   2.06636
    A1        1.84701   0.00405   0.00000   0.03013   0.02752   1.87452
    A2        2.11708  -0.00362   0.00000  -0.01700  -0.01523   2.10185
    A3        1.97565   0.00503   0.00000   0.01463   0.01324   1.98889
    A4        1.89436  -0.00277   0.00000  -0.01569  -0.01488   1.87948
    A5        1.62833   0.00491   0.00000   0.02220   0.02262   1.65095
    A6        1.93181  -0.00516   0.00000  -0.02193  -0.02232   1.90949
    A7        1.89865  -0.01052   0.00000  -0.07127  -0.07553   1.82311
    A8        1.72681  -0.00670   0.00000  -0.03814  -0.03962   1.68719
    A9        2.02847   0.00334   0.00000  -0.00530  -0.00599   2.02248
   A10        1.90700   0.00401   0.00000   0.02083   0.02078   1.92778
   A11        1.96554   0.00274   0.00000   0.04488   0.04305   2.00859
   A12        1.90820   0.00035   0.00000   0.03299   0.03562   1.94383
   A13        1.57266  -0.00118   0.00000  -0.06174  -0.06150   1.51116
   A14        1.93408  -0.00002   0.00000   0.00808   0.00802   1.94209
   A15        1.87035   0.00310   0.00000   0.02105   0.02091   1.89126
   A16        1.88342   0.00303   0.00000   0.01409   0.01396   1.89737
   A17        1.93753  -0.00198   0.00000  -0.01876  -0.01883   1.91870
   A18        1.92193  -0.00172   0.00000  -0.01347  -0.01353   1.90841
   A19        1.91509  -0.00217   0.00000  -0.00934  -0.00956   1.90553
   A20        2.74100   0.00281   0.00000  -0.00055  -0.00185   2.73915
   A21        2.47814   0.00958   0.00000   0.16726   0.16964   2.64779
   A22        1.89308  -0.00283   0.00000  -0.01916  -0.01927   1.87381
   A23        1.95807  -0.00110   0.00000  -0.01163  -0.01171   1.94636
   A24        1.93320  -0.00094   0.00000  -0.00325  -0.00327   1.92993
   A25        1.88541   0.00172   0.00000   0.01088   0.01072   1.89613
   A26        1.87637   0.00192   0.00000   0.01269   0.01265   1.88903
   A27        1.91513   0.00138   0.00000   0.01149   0.01148   1.92661
   A28        1.89538   0.00348   0.00000   0.01854   0.01841   1.91380
   A29        1.87263   0.00266   0.00000   0.01236   0.01227   1.88490
   A30        1.93902   0.00070   0.00000   0.00705   0.00699   1.94601
   A31        1.90466  -0.00225   0.00000  -0.00856  -0.00872   1.89593
   A32        1.92377  -0.00212   0.00000  -0.01123  -0.01132   1.91246
   A33        1.92719  -0.00231   0.00000  -0.01726  -0.01728   1.90991
    D1        0.73611   0.00033   0.00000  -0.02938  -0.02814   0.70796
    D2        2.90021  -0.00251   0.00000  -0.03613  -0.03511   2.86510
    D3       -1.02227  -0.00916   0.00000  -0.07506  -0.07373  -1.09600
    D4       -0.53565  -0.00579   0.00000  -0.04705  -0.04545  -0.58111
    D5        1.50162  -0.00382   0.00000  -0.04852  -0.04766   1.45396
    D6       -2.83340  -0.00221   0.00000  -0.03623  -0.03534  -2.86874
    D7       -0.79613  -0.00024   0.00000  -0.03769  -0.03756  -0.83368
    D8        1.47566   0.00200   0.00000  -0.01807  -0.01692   1.45874
    D9       -2.77026   0.00397   0.00000  -0.01954  -0.01913  -2.78938
   D10        1.30330  -0.00100   0.00000  -0.02979  -0.02914   1.27416
   D11       -2.89868  -0.00139   0.00000  -0.03594  -0.03520  -2.93388
   D12       -0.75205  -0.00108   0.00000  -0.03176  -0.03108  -0.78313
   D13       -2.83803  -0.00074   0.00000  -0.01540  -0.01623  -2.85426
   D14       -0.75682  -0.00114   0.00000  -0.02154  -0.02229  -0.77911
   D15        1.38981  -0.00082   0.00000  -0.01737  -0.01817   1.37164
   D16       -1.07460   0.00149   0.00000  -0.00611  -0.00604  -1.08064
   D17        1.00661   0.00110   0.00000  -0.01225  -0.01211   0.99450
   D18       -3.12995   0.00141   0.00000  -0.00808  -0.00798  -3.13794
   D19       -0.84236  -0.00066   0.00000   0.09610   0.09443  -0.74792
   D20        0.06945   0.00195   0.00000   0.03745   0.03368   0.10313
   D21       -2.05852  -0.00003   0.00000   0.05451   0.05260  -2.00592
   D22        1.31945   0.00174   0.00000   0.01326   0.01442   1.33387
   D23       -2.90717   0.00237   0.00000   0.01971   0.02096  -2.88621
   D24       -0.79910   0.00165   0.00000   0.01060   0.01176  -0.78734
   D25       -3.02937  -0.00210   0.00000  -0.02357  -0.02479  -3.05416
   D26       -0.97281  -0.00147   0.00000  -0.01712  -0.01825  -0.99106
   D27        1.13526  -0.00219   0.00000  -0.02624  -0.02745   1.10781
   D28       -0.89878   0.00005   0.00000   0.01275   0.01212  -0.88666
   D29        1.21757  -0.00043   0.00000   0.00791   0.00723   1.22480
   D30       -3.00430   0.00025   0.00000   0.01550   0.01495  -2.98935
   D31        0.82085  -0.00001   0.00000  -0.02457  -0.02396   0.79689
   D32        2.93720  -0.00049   0.00000  -0.02941  -0.02885   2.90836
   D33       -1.28466   0.00019   0.00000  -0.02182  -0.02113  -1.30580
   D34        2.02151   0.00160   0.00000   0.06247   0.05909   2.08060
   D35        0.08309   0.00130   0.00000   0.04665   0.04215   0.12524
   D36       -1.67215  -0.00169   0.00000  -0.10535  -0.10666  -1.77881
   D37        0.31912   0.00085   0.00000  -0.07579  -0.07966   0.23946
         Item               Value     Threshold  Converged?
 Maximum Force            0.012541     0.000450     NO 
 RMS     Force            0.003678     0.000300     NO 
 Maximum Displacement     0.225925     0.001800     NO 
 RMS     Displacement     0.067103     0.001200     NO 
 Predicted change in Energy=-4.517944D-03
 GradGradGradGradGradGradGradGradGradGradGradGradGradGradGradGradGradGrad

                          Input orientation:                          
 ---------------------------------------------------------------------
 Center     Atomic      Atomic             Coordinates (Angstroms)
 Number     Number       Type             X           Y           Z
 ---------------------------------------------------------------------
      1          6           0        0.994364   -0.456193    0.172549
      2          8           0        0.170853   -0.916090    1.015429
      3          8           0        0.204944    0.748090   -0.696560
      4          8           0       -1.762784   -0.566720   -0.361474
      5          6           0       -2.885144   -0.023074    0.345931
      6          1           0       -2.562413    0.587762    1.191484
      7          1           0       -3.467599    0.581089   -0.347468
      8          1           0       -3.500856   -0.844914    0.708787
      9          1           0       -0.923488    0.229078   -0.669968
     10          1           0       -1.017108   -0.986070    0.330933
     11          6           0        2.318175    0.099418    0.625008
     12          1           0        2.941642   -0.744840    0.919828
     13          1           0        2.819383    0.638873   -0.176071
     14          1           0        2.186306    0.743923    1.491157
     15          6           0        0.174976    2.038059   -0.087231
     16          1           0        1.147352    2.517521   -0.196263
     17          1           0       -0.570295    2.639515   -0.608312
     18          1           0       -0.085379    1.974536    0.972893
     19          9           0        1.191285   -1.278007   -0.929848
 ---------------------------------------------------------------------
                    Distance matrix (angstroms):
                    1          2          3          4          5
     1  C    0.000000
     2  O    1.264960   0.000000
     3  O    1.681913   2.387795   0.000000
     4  O    2.810563   2.399349   2.390181   0.000000
[...]
 364639,-0.00207853,-0.02929891,-0.05714288,-0.04935400,0.01813394,0.43
 257284,-0.00084093,-0.01683750,0.02151974,0.02473753,0.01684331,-0.001
 36785,-0.05884657,-0.01165565,0.00685499,-0.05794447,0.20303397,0.0020
 4328,0.01905047,-0.04056877,-0.06780880,-0.00645058,0.00485766,0.04521
 253,0.01533868,0.01232527,-0.02889560,-0.00808593,0.24454019,-0.003554
 40,-0.00011625,0.00230261,0.00861389,0.00015563,-0.00023958,0.00846568
 ,0.00385947,-0.00110243,-0.16025579,0.04656817,0.03774173,0.49204105,0
 .00187520,-0.00141994,0.00069684,-0.00356012,0.00077067,-0.00130809,-0
 .01122600,-0.00943118,0.00105993,0.05488103,-0.10355599,-0.01178230,0.
 04913372,0.55736164,0.00212318,0.00169013,-0.00520112,-0.01253604,-0.0
 0240843,-0.00437088,-0.00124921,-0.00081549,0.00164157,0.04919166,-0.0
 1575640,-0.10642990,0.04684480,-0.03410919,0.56915121,0.00072709,-0.00
 093983,0.00084886,-0.00049870,0.00039321,-0.00086105,-0.00355317,-0.00
 242125,0.00003326,-0.03024093,-0.01504552,0.02171628,-0.11536932,-0.09
 683991,0.05574335,0.13623393,-0.00002486,0.00010787,-0.00021077,-0.000
 18247,-0.00009396,0.00004329,0.00174765,0.00148509,-0.00024144,0.01485
 083,0.01663552,-0.01229948,-0.10462666,-0.19432373,0.09013403,0.105123
 68,0.20142509,-0.00042281,0.00034240,-0.00008565,0.00048625,0.00005861
 ,0.00015702,0.00179675,0.00137334,-0.00023804,0.01515631,0.00603208,-0
 .00678875,0.05831897,0.08488137,-0.10326415,-0.07302320,-0.09235496,0.
 10835524,-0.00005895,0.00012747,0.00069860,0.00011958,-0.00047071,-0.0
 0042000,-0.00073931,-0.00045035,-0.00027560,-0.00341070,0.02920255,0.0
 2653050,-0.07085056,-0.05383309,-0.04918853,-0.00274781,-0.01055692,-0
 .01175356,0.07569987,-0.00024862,0.00012593,-0.00057744,0.00087665,0.0
 0010921,0.00103889,0.00156847,0.00081963,-0.00018518,0.01000379,-0.009
 60106,-0.01163970,-0.04927450,-0.17900307,-0.11403183,-0.00778266,-0.0
 1517922,-0.01566068,0.04705361,0.19341461,-0.00023807,-0.00084590,0.00
 092848,0.00182421,0.00034110,0.00006736,0.00079073,0.00131984,-0.00037
 147,0.00876030,-0.01117024,-0.00732356,-0.04477548,-0.11446152,-0.1581
 9610,0.00305772,0.01066037,0.01138990,0.04231872,0.13329037,0.16878688
 ,0.00087980,0.00092743,-0.00227583,-0.00408261,-0.00095613,-0.00093116
 ,-0.00033555,-0.00098675,0.00072816,-0.02989118,0.01813837,-0.01886138
 ,-0.11409489,0.04607635,-0.10026447,0.01131846,-0.00587995,0.01264304,
 -0.00274917,0.00225920,-0.00765031,0.13472630,-0.00046010,-0.00010832,
 0.00081328,0.00211602,0.00037330,0.00072264,0.00046813,0.00031656,-0.0
 0005744,0.01592855,-0.00662043,0.00877942,0.04778672,-0.08755681,0.074
 74936,0.01198713,-0.00768485,0.01890646,-0.01255342,0.01090884,-0.0178
 4998,-0.06192530,0.09133750,0.00005766,-0.00014045,0.00041400,0.001312
 84,0.00028978,0.00071599,-0.00043623,-0.00019621,-0.00011337,0.0126280
 9,-0.00930678,0.01680331,-0.10881980,0.08014313,-0.21190404,-0.0071260
 2,0.00391947,-0.01001232,-0.00908638,0.00840732,-0.01421446,0.11100085
 ,-0.08267249,0.21999043,-0.01833757,0.03426622,-0.03972425,-0.02825271
 ,-0.01232650,0.01186306,0.00224251,0.01572956,0.00765083,-0.02497982,0
 .01815128,-0.02134624,-0.02136655,0.00637037,0.00810408,0.00405071,-0.
 00057225,-0.00233994,0.00252428,-0.00236749,-0.00184433,0.00112960,-0.
 00137896,0.00030231,0.02364581,0.00593495,0.03156286,-0.02287498,-0.01
 899213,-0.00849418,0.00670133,0.04455528,-0.02613698,0.00505539,-0.002
 25064,-0.06437943,0.00744368,0.00005016,0.02175668,-0.00752497,0.00629
 747,-0.00269349,-0.00304969,0.00169162,-0.00145566,-0.00197502,0.00097
 422,-0.00032083,0.00063045,-0.04697272,0.08635423,-0.01300699,-0.01325
 538,0.01690078,0.01350108,0.00299798,-0.00415233,-0.00635255,-0.001585
 08,-0.03356691,0.00200947,0.00452151,-0.02916906,0.00815666,-0.0034667
 8,-0.00568805,-0.00176407,0.00006041,0.00106710,-0.00019031,0.00129609
 ,0.00042353,-0.00141621,0.00027358,0.00051580,0.01674356,-0.01252359,0
 .08164670,-0.03315869,-0.02824011,0.06395556,0.04232720,0.01498398,-0.
 00446523,-0.02818864,0.00559769,-0.01198507,-0.05312702,-0.00466906,0.
 00101308,-0.02495418,0.00944175,0.00125005,0.00086161,-0.00004339,-0.0
 0120847,0.00271378,-0.00200725,-0.00253383,0.00344166,-0.00217578,0.00
 025558,0.04386743,0.01812626,-0.00738420,0.03959623,-0.00722460,0.0005
 3627,-0.00254288,-0.00305679,-0.02426674,0.00037243,0.00224948,0.00159
 801,-0.00168177,0.01017137,-0.03379349,0.00460770,0.00962259,-0.005958
 56,0.00630055,-0.00117423,0.00058464,-0.00010201,0.00008235,0.00020080
 ,0.00082952,0.00117528,-0.00047165,-0.00114231,0.00051335,-0.00945262,
 0.02123852,-0.01044081,0.07208081,0.00758260,-0.00932949,0.04640215,0.
 03178979,0.00798860,-0.03990188,-0.01599708,0.00307394,-0.00766523,-0.
 03578299,0.01090026,-0.09848190,0.00267509,-0.00226961,0.02249068,0.00
 136167,0.00028542,-0.00044543,0.00151582,-0.00220642,-0.00128372,0.006
 34030,-0.00333176,-0.00207449,0.01627759,0.02539804,-0.02327401,-0.018
 71914,-0.03038679,0.11901437,-0.16824953,-0.05254274,-0.02040824,-0.02
 789156,-0.01475440,0.00829643,-0.01686819,0.00275784,-0.00938757,-0.00
 183697,0.00020190,-0.00091362,0.00048692,-0.00021039,-0.00028192,-0.00
 006006,-0.00000646,0.00004954,-0.00001709,0.00002373,0.00003232,-0.000
 08708,0.00007132,-0.00000527,0.00078281,0.00149977,-0.00089137,0.00346
 093,-0.00109805,0.00244966,0.49117092,-0.04689805,-0.09369026,-0.01117
 342,-0.01973574,0.00245656,0.00379497,0.02404315,0.00053335,0.01218358
 ,-0.00072396,0.00254646,-0.00361834,-0.00000366,0.00020790,-0.00024672
 ,0.00011096,-0.00003319,-0.00004000,0.00000188,-0.00003166,0.00007882,
 -0.00013860,0.00002620,0.00003075,-0.00369245,-0.00467952,0.00316191,0
 .00419332,0.00019427,0.00286316,-0.02523066,0.56979458,-0.01942682,-0.
 01203716,-0.07554269,0.03960814,0.01585894,0.00266428,-0.01881753,0.00
 209581,-0.00605267,0.00267538,-0.00289123,0.00492002,-0.00027450,0.000
 03191,0.00059599,-0.00005999,0.00000910,-0.00001358,-0.00000086,0.0000
 0343,-0.00011723,0.00024719,-0.00010060,-0.00007872,0.00300918,0.00313
 975,-0.00228436,-0.00634945,0.00194526,-0.00590351,-0.03143504,-0.0006
 9668,0.58958103,-0.01882679,0.02394894,-0.01395360,0.00250855,-0.00224
 738,0.00111049,-0.00571149,-0.00068965,-0.00197217,0.00001904,-0.00082
 150,0.00103534,0.00009366,-0.00009155,0.00004405,-0.00004961,0.0000088
 4,0.00001926,-0.00000413,0.00001753,-0.00001624,0.00002932,-0.00000209
 ,-0.00000699,0.00137907,0.00152544,-0.00100101,-0.00104303,0.00001636,
 -0.00065118,-0.13202605,0.10441854,-0.06654512,0.14335721,-0.00694670,
 0.00819870,-0.00554036,0.00046323,-0.00002577,-0.00023348,-0.00341241,
 0.00078501,-0.00195112,-0.00003937,-0.00019156,0.00021045,0.00004116,-
 0.00002713,-0.00002932,-0.00000403,0.00000858,0.00000551,-0.00000607,0
 .00000173,0.00001191,-0.00000426,0.00000239,-0.00000361,0.00013527,0.0
 0037243,-0.00026859,-0.00006229,0.00008993,-0.00014571,0.10624605,-0.1
 7585788,0.08305400,-0.11477657,0.18899876,-0.00453277,0.00552947,-0.00
 457302,0.00148980,0.00004912,-0.00015821,-0.00263680,-0.00049347,0.000
 12131,-0.00014958,-0.00041358,0.00043279,0.00002699,-0.00004911,0.0000
 1977,-0.00002296,0.00001003,0.00001356,-0.00000572,0.00000588,-0.00000
 605,0.00001164,0.00000065,-0.00000465,0.00070623,0.00081622,-0.0004112
 8,-0.00043914,-0.00006507,-0.00024712,-0.06676881,0.08227343,-0.096391
 45,0.07465464,-0.09003999,0.10172402,-0.01022048,-0.00654015,0.0295856
 5,-0.00905884,-0.00416384,-0.00090686,0.00217562,0.00090303,-0.0007670
 4,-0.00087273,0.00109634,-0.00168917,0.00017070,-0.00000290,-0.0002435
 3,0.00002243,-0.00000731,0.00000840,-0.00000272,-0.00000520,0.00005024
 ,-0.00010450,0.00004255,0.00002390,-0.00121736,-0.00107898,0.00063580,
 0.00257254,-0.00072021,0.00203894,-0.09871518,-0.03614570,0.09696878,0
 .00965803,0.00458390,-0.01622865,0.10670533,-0.00181478,-0.00460666,0.
 01359269,-0.00478680,-0.00007293,-0.00032905,0.00090196,-0.00011274,-0
 .00045548,-0.00080677,0.00030629,-0.00081216,0.00014678,-0.00006947,-0
 .00014973,-0.00001075,-0.00000613,0.00001238,0.00000358,0.00001129,0.0
 0002045,-0.00005080,0.00003471,0.00002003,-0.00021990,-0.00021667,0.00
 017802,0.00133152,0.00004807,0.00106917,-0.03645559,-0.07182645,0.0648
 5297,-0.01116016,-0.00631609,0.01791471,0.04017407,0.07309056,-0.00258
 773,-0.00231629,0.00383952,-0.00215333,-0.00073249,0.00178790,0.000043
 61,-0.00041718,0.00085643,0.00006537,-0.00008530,-0.00000163,0.0000021
 8,-0.00000029,0.00005235,-0.00000117,-0.00000212,-0.00000079,-0.000006
 36,-0.00000248,-0.00001302,0.00001987,-0.00000181,-0.00000770,0.000122
 36,0.00010138,0.00000456,-0.00027324,-0.00001051,0.00008973,0.10255556
 ,0.06767174,-0.24279818,0.00579734,0.00283004,-0.01073227,-0.10991418,
 -0.07423716,0.26011289,0.00712632,-0.02276381,-0.01818681,0.00081770,0
 .00221787,0.00042891,0.00083980,0.00105144,0.00111960,0.00016547,0.000
 04812,0.00000212,0.00000175,-0.00001690,-0.00001627,0.00001090,0.00000
 893,-0.00000022,-0.00002165,0.00001114,0.00002135,0.00000334,-0.000000
 99,0.00000084,-0.00025086,-0.00031203,0.00011846,-0.00015562,0.0001773
 0,-0.00014383,-0.05195652,0.02325462,0.02187357,-0.00183244,0.01343052
 ,0.01282333,-0.00191327,0.01183156,0.00703474,0.05336676,0.00625691,-0
 .01114541,-0.00794121,-0.00042815,0.00153194,0.00160225,-0.00046739,0.
 00005842,-0.00001859,-0.00006395,-0.00009760,0.00013455,0.00008342,-0.
 00005855,-0.00002066,-0.00001510,0.00000159,0.00000408,-0.00001373,0.0
 0002223,0.00001076,0.00000117,0.00000645,0.00000024,0.00019225,0.00007
 586,-0.00015149,-0.00018103,0.00011721,-0.00007892,0.01905073,-0.20604
 051,-0.13101075,0.00138829,-0.01638278,-0.01408205,-0.00020333,0.00977
 147,0.00688240,-0.02393793,0.22317383,0.00244776,-0.00484204,-0.006403
 96,0.00050060,0.00122169,0.00043822,-0.00036450,0.00112578,0.00002210,
 0.00006667,0.00010544,-0.00008704,0.00000395,-0.00000365,-0.00002199,0
 .00001174,0.00001368,0.00000054,-0.00001321,0.00000241,0.00003151,-0.0
 0001112,-0.00000520,-0.00000522,-0.00027019,-0.00021067,0.00008575,-0.
 00002885,-0.00004014,-0.00000775,0.01837244,-0.13156597,-0.15441498,-0
 .00047612,0.01147521,0.01012212,0.00132228,-0.02054409,-0.01438077,-0.
 01946284,0.14475539,0.16390938,0.00281352,0.00462042,0.01283341,0.0017
 8107,0.00006730,-0.00177029,-0.08409428,0.00403663,-0.01198459,-0.0063
 7246,-0.00145643,0.00484586,-0.00023571,-0.00162421,0.00077992,-0.0006
 0346,0.00018313,0.00016024,-0.00011576,-0.00004368,0.00004024,-0.00011
 207,-0.00002305,-0.00009606,0.01335716,-0.01073185,-0.00949767,-0.0018
 0665,0.00012552,-0.00139719,-0.00149227,0.00087458,-0.00167534,0.00010
 469,-0.00019332,0.00021987,-0.00060324,0.00053319,0.00013515,-0.000458
 75,0.00065893,-0.00045188,0.58922442,0.01407931,-0.03146520,0.01306080
 ,0.00183087,0.00589450,-0.00864371,0.00252541,-0.18761762,-0.03922314,
 0.01076813,0.00782933,-0.00456435,-0.00407293,0.00256111,0.00208933,0.
 00053701,-0.00058151,-0.00047398,0.00023208,-0.00062187,-0.00085228,0.
 00056512,-0.00014801,0.00013200,-0.01523393,-0.02028925,0.00062380,-0.
 00122192,-0.00144732,0.00029114,-0.00062572,0.00269718,0.00005141,-0.0
 0176280,-0.00096473,-0.00070559,0.00004380,0.00050178,0.00033559,0.000
 38984,-0.00046168,-0.00107398,0.01178251,0.45473389,0.00976524,-0.0024
 8019,0.01935034,0.00283762,0.00335805,-0.00896159,-0.01066591,-0.04814
 397,-0.09485429,0.00492649,0.00154884,-0.00113068,-0.00088779,0.001463
 37,0.00119812,0.00014818,-0.00024259,-0.00035800,0.00040603,-0.0002383
 3,-0.00043245,-0.00002693,-0.00022122,-0.00014317,-0.00506642,-0.00174
 308,0.00117688,-0.00202056,0.00022653,-0.00060862,-0.00147823,0.001591
 58,-0.00121280,-0.00007590,0.00006218,-0.00019006,0.00028159,-0.000337
 64,-0.00017591,-0.00135885,0.00050637,-0.00001318,0.01207709,-0.047028
 79,0.55912002,-0.00082177,0.00114360,-0.00130117,0.00019410,-0.0001839
 3,0.00028959,0.00887827,-0.00283809,-0.00245680,-0.00005793,-0.0000379
 1,0.00010161,-0.00001914,0.00000464,0.00013457,-0.00001763,-0.00007350
 ,-0.00001505,0.00000081,-0.00003213,-0.00014121,0.00005855,0.00003560,
 0.00002679,0.00118003,0.00133288,-0.00002664,-0.00016348,0.00015412,-0
 .00014723,-0.00013434,0.00042838,-0.00073570,0.00021338,0.00032270,0.0
 0021916,-0.00017123,0.00002554,-0.00008145,-0.00035766,0.00060131,0.00
 019591,-0.25676324,-0.09908484,0.04375872,0.27215961,-0.00399704,0.001
 84205,-0.00219821,0.00089019,-0.00034339,0.00122995,-0.03087866,-0.033
 57855,-0.00036984,-0.00369330,-0.00168037,0.00233590,0.00046155,-0.000
 93085,-0.00005369,-0.00030120,0.00016880,0.00012409,-0.00005434,0.0000
 8338,0.00016525,-0.00009889,0.00002096,-0.00004594,0.00746970,0.001176
 81,-0.00267582,-0.00052295,0.00034449,-0.00064585,0.00007011,-0.000310
 24,0.00036066,0.00020483,0.00029798,-0.00009205,0.00053650,-0.00029269
 ,-0.00028539,0.00023855,-0.00010657,0.00050361,-0.09155913,-0.09032998
 ,0.02173901,0.10881174,0.11325442,0.00119609,0.00093293,-0.00065706,-0
 .00071076,0.00022172,0.00045407,-0.01283948,-0.01006135,0.00376160,-0.
 00143742,-0.00048675,0.00053817,0.00014384,-0.00044559,-0.00030611,-0.
 00004197,0.00011005,0.00014636,-0.00010902,0.00010127,0.00017990,0.000
 02565,0.00003658,0.00003313,0.00226246,0.00002345,-0.00085960,0.000049
 05,-0.00010888,-0.00012225,-0.00013051,-0.00001898,0.00053382,0.000035
 66,-0.00020798,-0.00013964,0.00001270,0.00009131,0.00011784,-0.0002142
 4,0.00030725,-0.00066523,0.04542313,0.02273454,-0.06099799,-0.04571630
 ,-0.01840324,0.05829023,0.00019115,-0.00171688,0.00093557,0.00029083,0
 .00019644,-0.00026732,0.00367351,0.00407222,0.00211400,0.00060503,0.00
 053718,-0.00046468,-0.00019087,0.00011514,0.00012303,0.00002748,-0.000
 00746,-0.00001159,0.00000029,-0.00007196,0.00000896,0.00001729,-0.0000
 3697,-0.00002776,-0.00063941,-0.00073955,0.00066855,-0.00000899,-0.000
 01393,0.00000754,0.00006016,-0.00005734,-0.00025369,0.00013784,0.00022
 752,0.00010412,0.00009889,-0.00018245,-0.00014415,-0.00016562,0.000159
 98,0.00034243,-0.18547279,0.08148632,-0.10126195,-0.01955250,0.0120170
 9,-0.01638844,0.19427785,-0.00411682,0.00465754,-0.00918207,-0.0017635
 9,-0.00102960,0.00295620,0.02698515,-0.03449580,0.01714380,-0.00162985
 ,-0.00012449,-0.00047541,0.00039537,-0.00027931,-0.00012969,-0.0000692
 9,0.00011918,0.00001118,-0.00003504,0.00001801,0.00019600,-0.00022887,
 -0.00001409,-0.00006077,0.00194826,0.00040886,0.00035421,0.00176553,0.
 00004090,0.00087214,-0.00005780,-0.00020574,0.00018940,0.00020264,0.00
 028170,0.00016061,0.00007578,-0.00010867,-0.00011583,0.00015499,0.0001
 4190,0.00036710,0.07623711,-0.09250374,0.05971346,-0.00874502,0.008135
 63,-0.00758590,-0.09174585,0.11624214,-0.00049532,0.00076147,-0.002788
 34,-0.00053154,-0.00026964,0.00139682,0.01124509,-0.00913413,0.0096224
 7,0.00061258,0.00013214,-0.00027861,-0.00022281,0.00022199,0.00024663,
 0.00003875,-0.00013412,-0.00004806,-0.00005411,-0.00001637,-0.00026683
 ,0.00010065,0.00007408,0.00007977,-0.00068812,0.00007088,0.00066213,-0
 .00012213,0.00003242,-0.00009366,-0.00000871,-0.00037639,-0.00019470,0
 .00002020,0.00011003,0.00011476,-0.00001251,0.00010029,0.00006020,0.00
 019998,0.00021981,0.00021587,-0.10318830,0.06473318,-0.12739776,0.0052
 1488,-0.00322200,0.00406796,0.11028418,-0.06529772,0.12975154,0.000865
 30,0.00030342,0.00145063,-0.00077316,-0.00023018,-0.00032344,0.0029240
 9,0.00430101,0.00092028,-0.00008322,0.00051555,-0.00022933,-0.00008831
 ,-0.00024896,-0.00032867,0.00002119,0.00006743,0.00004396,-0.00021188,
 -0.00008926,0.00018800,-0.00000768,0.00003462,0.00002751,-0.00049885,-
 0.00048084,-0.00049970,0.00075751,-0.00024315,0.00046611,-0.00021721,0
 .00019456,0.00060728,0.00006259,-0.00013954,-0.00020965,0.00013265,-0.
 00006308,-0.00011644,-0.00052296,-0.00009358,-0.00034174,-0.06589458,-
 0.00093566,0.05234104,-0.00490356,-0.00026005,0.02863221,0.00658017,-0
 .00095498,-0.02299244,0.06208809,0.00005080,0.00270502,-0.00524514,-0.
 00126379,0.00079902,0.00178824,0.00800105,-0.01811176,-0.03904351,-0.0
 0080441,-0.00071306,0.00084839,0.00008319,-0.00029158,-0.00007441,-0.0
 0005027,0.00005247,0.00005617,-0.00024571,0.00006600,0.00006961,0.0000
 0666,0.00003775,0.00002486,0.00280033,0.00166576,-0.00129578,-0.000458
 41,-0.00026108,-0.00048818,0.00013950,-0.00050878,0.00031576,0.0001148
 4,0.00005963,0.00004954,-0.00008456,-0.00001971,-0.00002894,0.00019031
 ,0.00018836,0.00006797,-0.00096158,-0.04963643,0.00368745,-0.00147780,
 0.00223389,0.01286782,-0.00443684,0.00180049,0.01303089,-0.00163496,0.
 05989198,-0.00231484,0.00355147,-0.00371905,-0.00118095,-0.00100429,0.
 00236303,0.00156935,-0.01513512,-0.00649394,-0.00190320,-0.00070417,0.
 00056682,0.00054636,-0.00058446,-0.00065744,-0.00003574,0.00021269,0.0
 0019265,-0.00009778,0.00015360,0.00041405,-0.00004797,0.00002868,-0.00
 000276,0.00278594,0.00116384,-0.00092499,0.00073747,-0.00004390,0.0002
 4706,0.00014136,-0.00034498,-0.00002087,0.00009435,0.00011840,0.000149
 68,-0.00009292,0.00008929,0.00004650,0.00008403,0.00019978,0.00026035,
 0.05357462,-0.00207786,-0.28594419,0.00066755,0.00145886,-0.00429883,0
 .00422954,0.00115671,-0.01515358,-0.05929046,0.01226208,0.31263610,-0.
 07057842,-0.01290017,0.00349377,0.00221600,0.02263215,0.03695298,-0.00
 159585,0.03021820,0.00454053,-0.00292391,0.00046542,-0.00003352,0.0011
 0607,-0.00024416,-0.00023004,-0.00013311,-0.00000926,0.00009214,-0.000
 12887,0.00010864,0.00010668,-0.00013959,0.00008601,-0.00003187,0.00138
 373,-0.00042930,0.00019713,0.00300742,-0.00031598,0.00033355,0.0035903
 2,-0.02489381,-0.01941550,0.00193018,0.00013420,0.00073830,0.00134335,
 0.00060289,-0.00049815,-0.00469668,-0.00298881,-0.00184335,-0.00325559
 ,-0.00130260,-0.00369947,0.00027774,0.00066533,-0.00019265,0.00006970,
 0.00158230,0.00059968,-0.00023018,0.00003167,0.00053331,0.06875767,-0.
 02332016,-0.11496222,-0.04537164,0.02079775,0.01587902,-0.02262484,0.0
 1722762,-0.04918313,-0.00862934,0.00569564,0.00205571,0.00097902,-0.00
 029392,0.00024815,0.00038711,0.00020459,0.00000725,-0.00012634,-0.0001
 7575,0.00011088,0.00016092,0.00014574,-0.00013966,-0.00002946,-0.00481
 239,-0.00525485,0.00051649,-0.00541703,-0.00018395,-0.00385914,0.00092
 089,-0.02527227,-0.02517199,-0.00029456,0.00066912,-0.00086875,0.00149
 619,-0.00011595,0.00041464,-0.00597353,-0.00079616,-0.00135253,0.00747
 394,0.00184955,0.00653896,-0.00038729,0.00001422,-0.00010827,0.0001973
 4,-0.00308492,-0.00103680,-0.00004233,0.00004204,-0.00050060,-0.013442
 73,0.17811718,-0.01433227,-0.04504847,-0.09956381,0.04489491,-0.029626
 11,-0.06146710,0.00068635,0.00120685,0.01114196,0.00509600,-0.00134677
 ,0.00527567,-0.00044078,-0.00001794,0.00064344,-0.00002364,0.00002694,
 -0.00006758,-0.00026823,0.00025918,0.00000327,0.00036800,-0.00014425,0
 .00000846,0.00145189,-0.00064241,-0.00215262,-0.01173149,0.00057132,-0
 .00813442,-0.00018800,-0.02556847,-0.01326940,0.00188700,0.00054243,0.
 00015575,-0.00107343,-0.00107600,0.00114235,-0.00432386,-0.00131923,0.
 00091428,-0.00002820,0.00059190,0.00157534,0.00001276,0.00007470,-0.00
 007636,0.00000167,-0.00027342,0.00000338,-0.00034516,0.00110717,0.0003
 3942,-0.02164351,0.10068257,0.16352798\\-0.00000046,0.00000101,-0.0000
 1116,-0.00000370,-0.00000891,0.00000242,-0.00000530,0.00000841,0.00000
 235,0.00000182,0.00001081,0.00000972,-0.00000834,0.00000295,0.00000807
 ,-0.00000250,0.00000527,0.00000184,0.00000202,0.00000210,0.00000639,-0
 .00000001,0.00000961,0.00000663,0.00000242,-0.00000237,-0.00000458,0.0
 0000171,-0.00000482,-0.00001327,0.00000047,-0.00000614,-0.00000786,0.0
 0000018,-0.00000978,-0.00001105,-0.00000067,-0.00000308,-0.00000607,0.
 00000384,-0.00000920,-0.00000258,0.00000354,0.00000313,0.00000656,0.00
 000294,0.00000032,0.00000672,0.00000178,0.00000570,0.00000986,0.000004
 71,-0.00000246,0.00000697,-0.00000446,-0.00000254,-0.00001095\\\@


 HE THAT RISETH LATE MUST TROT ALL DAY.

                  -- BENJAMIN FRANKLIN
 Job cpu time:       1 days  2 hours 39 minutes 38.8 seconds.
 File lengths (MBytes):  RWF=    415 Int=      0 D2E=      0 Chk=     28 Scr=      1
 Normal termination of Gaussian 09 at Fri Jul 31 15:54:32 2015.
