 Entering Gaussian System, Link 0=g09
 Initial command:
 /opt/gridware/applications/gaussian/g09/l1.exe "/lustre/SCRATCH5/gau/mlawal/847717.sched01/Gau-22552.inp" -scrdir="/lustre/SCRATCH5/gau/mlawal/847717.sched01/"
 Entering Link 1 = /opt/gridware/applications/gaussian/g09/l1.exe PID=     22553.
  
 Copyright (c) 1988,1990,1992,1993,1995,1998,2003,2009,2013,
            Gaussian, Inc.  All Rights Reserved.
  
 This is part of the Gaussian(R) 09 program.  It is based on
 the Gaussian(R) 03 system (copyright 2003, Gaussian, Inc.),
 the Gaussian(R) 98 system (copyright 1998, Gaussian, Inc.),
 the Gaussian(R) 94 system (copyright 1995, Gaussian, Inc.),
 the Gaussian 92(TM) system (copyright 1992, Gaussian, Inc.),
 the Gaussian 90(TM) system (copyright 1990, Gaussian, Inc.),
 the Gaussian 88(TM) system (copyright 1988, Gaussian, Inc.),
 the Gaussian 86(TM) system (copyright 1986, Carnegie Mellon
 University), and the Gaussian 82(TM) system (copyright 1983,
 Carnegie Mellon University). Gaussian is a federally registered
 trademark of Gaussian, Inc.
  
 This software contains proprietary and confidential information,
 including trade secrets, belonging to Gaussian, Inc.
  
 This software is provided under written license and may be
 used, copied, transmitted, or stored only in accord with that
 written license.
  
 The following legend is applicable only to US Government
 contracts under FAR:
  
                    RESTRICTED RIGHTS LEGEND
  
 Use, reproduction and disclosure by the US Government is
 subject to restrictions as set forth in subparagraphs (a)
 and (c) of the Commercial Computer Software - Restricted
 Rights clause in FAR 52.227-19.
  
 Gaussian, Inc.
 340 Quinnipiac St., Bldg. 40, Wallingford CT 06492
  
  
 ---------------------------------------------------------------
 Warning -- This program may not be used in any manner that
 competes with the business of Gaussian, Inc. or will provide
 assistance to any competitor of Gaussian, Inc.  The licensee
 of this program is prohibited from giving any competitor of
 Gaussian, Inc. access to this program.  By using this program,
 the user acknowledges that Gaussian, Inc. is engaged in the
 business of creating and licensing software in the field of
 computational chemistry and represents and warrants to the
 licensee that it is not a competitor of Gaussian, Inc. and that
 it will not use this program in any manner prohibited above.
 ---------------------------------------------------------------
  

 Cite this work as:
 Gaussian 09, Revision D.01,
 M. J. Frisch, G. W. Trucks, H. B. Schlegel, G. E. Scuseria, 
 M. A. Robb, J. R. Cheeseman, G. Scalmani, V. Barone, B. Mennucci, 
 G. A. Petersson, H. Nakatsuji, M. Caricato, X. Li, H. P. Hratchian, 
 A. F. Izmaylov, J. Bloino, G. Zheng, J. L. Sonnenberg, M. Hada, 
 M. Ehara, K. Toyota, R. Fukuda, J. Hasegawa, M. Ishida, T. Nakajima, 
 Y. Honda, O. Kitao, H. Nakai, T. Vreven, J. A. Montgomery, Jr., 
 J. E. Peralta, F. Ogliaro, M. Bearpark, J. J. Heyd, E. Brothers, 
 K. N. Kudin, V. N. Staroverov, T. Keith, R. Kobayashi, J. Normand, 
 K. Raghavachari, A. Rendell, J. C. Burant, S. S. Iyengar, J. Tomasi, 
 M. Cossi, N. Rega, J. M. Millam, M. Klene, J. E. Knox, J. B. Cross, 
 V. Bakken, C. Adamo, J. Jaramillo, R. Gomperts, R. E. Stratmann, 
 O. Yazyev, A. J. Austin, R. Cammi, C. Pomelli, J. W. Ochterski, 
 R. L. Martin, K. Morokuma, V. G. Zakrzewski, G. A. Voth, 
 P. Salvador, J. J. Dannenberg, S. Dapprich, A. D. Daniels, 
 O. Farkas, J. B. Foresman, J. V. Ortiz, J. Cioslowski, 
 and D. J. Fox, Gaussian, Inc., Wallingford CT, 2013.
 
 ******************************************
 Gaussian 09:  EM64L-G09RevD.01 24-Apr-2013
                25-Mar-2015 
 ******************************************
 %nprocshared=8
 Will use up to    8 processors via shared memory.
 %nprocl=1
 Will use up to    1 processors via Linda.
 ----------------------------------------------------------------------
 # opt=(calcfc,ts,noeigentest) freq=noraman b3lyp/aug-cc-pvtz geom=conn
 ectivity
 ----------------------------------------------------------------------
 1/5=1,10=4,11=1,14=-1,18=20,26=3,38=1,57=2/1,3;
 2/9=110,12=2,17=6,18=5,40=1/2;
 3/5=16,6=1,7=10,11=2,16=1,25=1,30=1,71=2,74=-5,140=1/1,2,3;
 4//1;
 5/5=2,38=5/2;
 8/6=4,10=90,11=11/1;
 11/6=1,8=1,9=11,15=111,16=1/1,2,10;
 10/6=1,13=1/2;
 6/7=2,8=2,9=2,10=2,28=1/1;
 7/10=1,18=20,25=1/1,2,3,16;
 1/5=1,10=4,11=1,14=-1,18=20,26=3/3(2);
 2/9=110/2;
 99//99;
 2/9=110/2;
 3/5=16,6=1,7=10,11=2,16=1,25=1,30=1,71=1,74=-5/1,2,3;
 4/5=5,16=3,69=1/1;
 5/5=2,38=5/2;
 7//1,2,3,16;
 1/5=1,11=1,14=-1,18=20,26=3/3(-5);
 2/9=110/2;
 6/7=2,8=2,9=2,10=2,19=2,28=1/1;
 99/9=1/99;
 -------------------
 Title Card Required
 -------------------
 Symbolic Z-matrix:
 Charge =  0 Multiplicity = 1
 C                     0.33038   0.69926   0.5392 
 O                    -0.46974   0.30491   1.42788 
 O                    -0.49919   0.73618  -0.80576 
 O                    -1.76908  -1.22886   0.03526 
 C                    -3.19964  -1.02694   0.19232 
 H                    -3.41452  -0.02289   0.56854 
 H                    -3.63223  -1.19421  -0.80062 
 H                    -3.54919  -1.79415   0.8948 
 H                    -1.27435  -0.30214  -0.66393 
 H                    -1.09993  -0.66443   1.07102 
 C                     1.15357   1.93757   0.68818 
 H                     1.98117   1.76351   1.399 
 H                     1.6099    2.25755  -0.26041 
 H                     0.55782   2.76744   1.09489 
 C                    -1.3556    1.89806  -0.97338 
 H                    -0.70379   2.74558  -1.21125 
 H                    -1.99979   1.66881  -1.82754 
 H                    -1.93096   2.08522  -0.06265 
 Br                    1.54154  -0.81716  -0.22985 
 
 Add virtual bond connecting atoms H10        and O2         Dist= 2.29D+00.
 Add virtual bond connecting atoms H9         and O4         Dist= 2.38D+00.
 Add virtual bond connecting atoms H9         and O3         Dist= 2.46D+00.
 Add virtual bond connecting atoms H10        and O4         Dist= 2.56D+00.
 Add virtual bond connecting atoms Br19       and C1         Dist= 3.94D+00.

 GradGradGradGradGradGradGradGradGradGradGradGradGradGradGradGradGradGrad
 Berny optimization.
 Initialization pass.
                           ----------------------------
                           !    Initial Parameters    !
                           ! (Angstroms and Degrees)  !
 --------------------------                            --------------------------
 ! Name  Definition              Value          Derivative Info.                !
 --------------------------------------------------------------------------------
 ! R1    R(1,2)                  1.2592         calculate D2E/DX2 analytically  !
 ! R2    R(1,11)                 1.4944         calculate D2E/DX2 analytically  !
 ! R3    R(1,19)                 2.0876         calculate D2E/DX2 analytically  !
 ! R4    R(2,10)                 1.21           calculate D2E/DX2 analytically  !
 ! R5    R(3,9)                  1.3035         calculate D2E/DX2 analytically  !
 ! R6    R(3,15)                 1.4531         calculate D2E/DX2 analytically  !
 ! R7    R(4,5)                  1.4532         calculate D2E/DX2 analytically  !
 ! R8    R(4,9)                  1.2619         calculate D2E/DX2 analytically  !
 ! R9    R(4,10)                 1.3561         calculate D2E/DX2 analytically  !
 ! R10   R(5,6)                  1.0935         calculate D2E/DX2 analytically  !
 ! R11   R(5,7)                  1.0959         calculate D2E/DX2 analytically  !
 ! R12   R(5,8)                  1.0974         calculate D2E/DX2 analytically  !
 ! R13   R(11,12)                1.1048         calculate D2E/DX2 analytically  !
 ! R14   R(11,13)                1.1002         calculate D2E/DX2 analytically  !
 ! R15   R(11,14)                1.0996         calculate D2E/DX2 analytically  !
 ! R16   R(15,16)                1.0953         calculate D2E/DX2 analytically  !
 ! R17   R(15,17)                1.0941         calculate D2E/DX2 analytically  !
 ! R18   R(15,18)                1.0934         calculate D2E/DX2 analytically  !
 ! A1    A(2,1,11)             122.6289         calculate D2E/DX2 analytically  !
 ! A2    A(2,1,19)             113.6518         calculate D2E/DX2 analytically  !
 ! A3    A(11,1,19)            108.6058         calculate D2E/DX2 analytically  !
 ! A4    A(1,2,10)             111.9436         calculate D2E/DX2 analytically  !
 ! A5    A(9,3,15)             107.3964         calculate D2E/DX2 analytically  !
 ! A6    A(5,4,9)              110.1066         calculate D2E/DX2 analytically  !
 ! A7    A(5,4,10)             110.203          calculate D2E/DX2 analytically  !
 ! A8    A(9,4,10)              85.6459         calculate D2E/DX2 analytically  !
 ! A9    A(4,5,6)              110.9886         calculate D2E/DX2 analytically  !
 ! A10   A(4,5,7)              105.6308         calculate D2E/DX2 analytically  !
 ! A11   A(4,5,8)              106.5944         calculate D2E/DX2 analytically  !
 ! A12   A(6,5,7)              111.9805         calculate D2E/DX2 analytically  !
 ! A13   A(6,5,8)              111.0443         calculate D2E/DX2 analytically  !
 ! A14   A(7,5,8)              110.337          calculate D2E/DX2 analytically  !
 ! A15   A(3,9,4)              151.4504         calculate D2E/DX2 analytically  !
 ! A16   A(2,10,4)             144.652          calculate D2E/DX2 analytically  !
 ! A17   A(1,11,12)            110.258          calculate D2E/DX2 analytically  !
 ! A18   A(1,11,13)            112.552          calculate D2E/DX2 analytically  !
 ! A19   A(1,11,14)            111.3342         calculate D2E/DX2 analytically  !
 ! A20   A(12,11,13)           106.8499         calculate D2E/DX2 analytically  !
 ! A21   A(12,11,14)           106.6668         calculate D2E/DX2 analytically  !
 ! A22   A(13,11,14)           108.9128         calculate D2E/DX2 analytically  !
 ! A23   A(3,15,16)            107.0385         calculate D2E/DX2 analytically  !
 ! A24   A(3,15,17)            105.6361         calculate D2E/DX2 analytically  !
 ! A25   A(3,15,18)            110.5436         calculate D2E/DX2 analytically  !
 ! A26   A(16,15,17)           110.057          calculate D2E/DX2 analytically  !
 ! A27   A(16,15,18)           111.1976         calculate D2E/DX2 analytically  !
 ! A28   A(17,15,18)           112.1046         calculate D2E/DX2 analytically  !
 ! D1    D(11,1,2,10)          175.3698         calculate D2E/DX2 analytically  !
 ! D2    D(19,1,2,10)          -50.6836         calculate D2E/DX2 analytically  !
 ! D3    D(2,1,11,12)           74.2756         calculate D2E/DX2 analytically  !
 ! D4    D(2,1,11,13)         -166.5263         calculate D2E/DX2 analytically  !
 ! D5    D(2,1,11,14)          -43.9119         calculate D2E/DX2 analytically  !
 ! D6    D(19,1,11,12)         -61.6272         calculate D2E/DX2 analytically  !
 ! D7    D(19,1,11,13)          57.5709         calculate D2E/DX2 analytically  !
 ! D8    D(19,1,11,14)        -179.8147         calculate D2E/DX2 analytically  !
 ! D9    D(1,2,10,4)           -41.8152         calculate D2E/DX2 analytically  !
 ! D10   D(15,3,9,4)          -110.1928         calculate D2E/DX2 analytically  !
 ! D11   D(9,3,15,16)         -173.3643         calculate D2E/DX2 analytically  !
 ! D12   D(9,3,15,17)          -56.0896         calculate D2E/DX2 analytically  !
 ! D13   D(9,3,15,18)           65.3894         calculate D2E/DX2 analytically  !
 ! D14   D(9,4,5,6)            -52.8271         calculate D2E/DX2 analytically  !
 ! D15   D(9,4,5,7)             68.7482         calculate D2E/DX2 analytically  !
 ! D16   D(9,4,5,8)           -173.8679         calculate D2E/DX2 analytically  !
 ! D17   D(10,4,5,6)            39.9565         calculate D2E/DX2 analytically  !
 ! D18   D(10,4,5,7)           161.5319         calculate D2E/DX2 analytically  !
 ! D19   D(10,4,5,8)           -81.0843         calculate D2E/DX2 analytically  !
 ! D20   D(5,4,9,3)            114.2759         calculate D2E/DX2 analytically  !
 ! D21   D(10,4,9,3)             4.3411         calculate D2E/DX2 analytically  !
 ! D22   D(5,4,10,2)           -99.308          calculate D2E/DX2 analytically  !
 ! D23   D(9,4,10,2)            10.5291         calculate D2E/DX2 analytically  !
 --------------------------------------------------------------------------------
 Trust Radius=3.00D-01 FncErr=1.00D-07 GrdErr=1.00D-06
 Number of steps in this run=     79 maximum allowed number of steps=    114.
 Search for a saddle point of order  1.
 GradGradGradGradGradGradGradGradGradGradGradGradGradGradGradGradGradGrad

                          Input orientation:                          
 ---------------------------------------------------------------------
 Center     Atomic      Atomic             Coordinates (Angstroms)
 Number     Number       Type             X           Y           Z
 ---------------------------------------------------------------------
      1          6           0        0.330379    0.699264    0.539201
      2          8           0       -0.469744    0.304911    1.427881
      3          8           0       -0.499185    0.736182   -0.805759
      4          8           0       -1.769083   -1.228857    0.035261
      5          6           0       -3.199641   -1.026938    0.192321
      6          1           0       -3.414516   -0.022893    0.568539
      7          1           0       -3.632232   -1.194213   -0.800617
      8          1           0       -3.549185   -1.794145    0.894796
      9          1           0       -1.274353   -0.302135   -0.663933
     10          1           0       -1.099930   -0.664426    1.071017
     11          6           0        1.153574    1.937566    0.688178
     12          1           0        1.981174    1.763510    1.399000
     13          1           0        1.609898    2.257549   -0.260406
     14          1           0        0.557820    2.767438    1.094885
     15          6           0       -1.355602    1.898060   -0.973382
     16          1           0       -0.703793    2.745578   -1.211252
     17          1           0       -1.999794    1.668812   -1.827537
     18          1           0       -1.930964    2.085221   -0.062646
     19         35           0        1.541536   -0.817156   -0.229851
 ---------------------------------------------------------------------
                    Distance matrix (angstroms):
                    1          2          3          4          5
     1  C    0.000000
     2  O    1.259152   0.000000
     3  O    1.580651   2.275084   0.000000
     4  O    2.894710   2.445428   2.486229   0.000000
     5  C    3.944761   3.279141   3.375977   1.453250   0.000000
     6  H    3.814002   3.085062   3.311200   2.108598   1.093534
     7  H    4.591585   4.149085   3.680005   2.042356   1.095921
     8  H    4.625425   3.764727   4.312417   2.055995   1.097387
     9  H    2.241762   2.321979   1.303496   1.261921   2.228283
    10  H    2.046524   1.210000   2.417620   1.356149   2.304845
    11  C    1.494402   2.418240   2.531162   4.358263   5.290051
    12  H    2.144061   2.852252   3.473981   4.987832   6.006956
    13  H    2.169053   3.314818   2.657103   4.864150   5.841616
    14  H    2.153569   2.689017   2.975854   4.744223   5.415757
    15  C    2.562723   3.014786   1.453103   3.311486   3.648967
    16  H    2.884614   3.602313   2.060088   4.299392   4.736154
    17  H    3.459939   3.846950   2.040994   3.452496   3.575825
    18  H    2.719700   2.743417   2.102882   3.319473   3.370472
    19  Br   2.087552   2.837668   2.628511   3.346637   4.764556
                    6          7          8          9         10
     6  H    0.000000
     7  H    1.814932   0.000000
     8  H    1.806077   1.800345   0.000000
     9  H    2.485410   2.524694   3.135377   0.000000
    10  H    2.453846   3.193156   2.702993   1.780935   0.000000
    11  C    4.972440   5.910033   6.007021   3.569215   3.463410
    12  H    5.744073   6.715413   6.595150   4.372761   3.936451
    13  H    5.579633   6.299716   6.660845   3.877334   4.201642
    14  H    4.882872   6.069938   6.141300   3.984040   3.811351
    15  C    3.210406   3.843832   4.683404   2.223335   3.288050
    16  H    4.263814   4.926087   5.756803   3.148595   4.122354
    17  H    3.256453   3.452004   4.669452   2.401015   3.828234
    18  H    2.653953   3.767440   4.311011   2.547970   3.088101
    19  Br   5.082394   5.218795   5.304223   2.895325   2.948377
                   11         12         13         14         15
    11  C    0.000000
    12  H    1.104756   0.000000
    13  H    1.100196   1.770748   0.000000
    14  H    1.099555   1.768133   1.789879   0.000000
    15  C    3.009702   4.096385   3.071117   2.948683   0.000000
    16  H    2.776784   3.871294   2.548617   2.628766   1.095319
    17  H    4.042868   5.125194   3.978993   4.035953   1.094129
    18  H    3.178036   4.188643   3.550565   2.828311   1.093394
    19  Br   2.929468   3.083225   3.075617   3.946129   4.039634
                   16         17         18         19
    16  H    0.000000
    17  H    1.794116   0.000000
    18  H    1.805911   1.814655   0.000000
    19  Br   4.324086   4.612337   4.528797   0.000000
 Stoichiometry    C4H11BrO3
 Framework group  C1[X(C4H11BrO3)]
 Deg. of freedom    51
 Full point group                 C1      NOp   1
 Largest Abelian subgroup         C1      NOp   1
 Largest concise Abelian subgroup C1      NOp   1
                         Standard orientation:                         
 ---------------------------------------------------------------------
 Center     Atomic      Atomic             Coordinates (Angstroms)
 Number     Number       Type             X           Y           Z
 ---------------------------------------------------------------------
      1          6           0        0.326218    0.698934    0.536560
      2          8           0       -0.472205    0.303629    1.426346
      3          8           0       -0.503859    0.729839   -0.808235
      4          8           0       -1.766326   -1.237960    0.037508
      5          6           0       -3.197567   -1.040923    0.194540
      6          1           0       -3.416004   -0.036839    0.568596
      7          1           0       -3.629827   -1.211977   -0.797898
      8          1           0       -3.544104   -1.807844    0.898815
      9          1           0       -1.275186   -0.310987   -0.663882
     10          1           0       -1.098945   -0.668793    1.071815
     11          6           0        1.144923    1.940563    0.682553
     12          1           0        1.973356    1.771108    1.393516
     13          1           0        1.599804    2.260109   -0.266871
     14          1           0        0.546255    2.769151    1.087596
     15          6           0       -1.364566    1.888205   -0.978179
     16          1           0       -0.715927    2.737571   -1.218117
     17          1           0       -2.008159    1.654713   -1.831635
     18          1           0       -1.940348    2.075280   -0.067691
     19         35           0        1.542690   -0.814750   -0.229487
 ---------------------------------------------------------------------
 Rotational constants (GHZ):      1.6516063      0.9351675      0.7348685
 Standard basis: Aug-CC-pVTZ (5D, 7F)
 There are   729 symmetry adapted cartesian basis functions of A   symmetry.
 There are   634 symmetry adapted basis functions of A   symmetry.
   634 basis functions,  1018 primitive gaussians,   729 cartesian basis functions
    47 alpha electrons       47 beta electrons
       nuclear repulsion energy       691.3799359356 Hartrees.
 NAtoms=   19 NActive=   19 NUniq=   19 SFac= 1.00D+00 NAtFMM=   60 NAOKFM=F Big=F
 Integral buffers will be    131072 words long.
 Raffenetti 2 integral format.
 Two-electron integral symmetry is turned on.
 One-electron integrals computed using PRISM.
 PrsmSu:  requested number of processors reduced to:   1 ShMem   1 Linda.
 NBasis=   634 RedAO= T EigKep=  6.40D-06  NBF=   634
 NBsUse=   634 1.00D-06 EigRej= -1.00D+00 NBFU=   634
 ExpMin= 2.53D-02 ExpMax= 1.06D+07 ExpMxC= 1.21D+04 IAcc=3 IRadAn=         5 AccDes= 0.00D+00
 Harris functional with IExCor=  402 and IRadAn=       5 diagonalized for initial guess.
 HarFok:  IExCor=  402 AccDes= 0.00D+00 IRadAn=         5 IDoV= 1 UseB2=F ITyADJ=14
 ICtDFT=  3500011 ScaDFX=  1.000000  1.000000  1.000000  1.000000
 FoFCou: FMM=F IPFlag=           0 FMFlag=      100000 FMFlg1=           0
         NFxFlg=           0 DoJE=T BraDBF=F KetDBF=T FulRan=T
         wScrn=  0.000000 ICntrl=     500 IOpCl=  0 I1Cent=   200000004 NGrid=           0
         NMat0=    1 NMatS0=      1 NMatT0=    0 NMatD0=    1 NMtDS0=    0 NMtDT0=    0
 Petite list used in FoFCou.
 CoulSu:  requested number of processors reduced to:   7 ShMem   1 Linda.
 CoulSu:  requested number of processors reduced to:   7 ShMem   1 Linda.
 Requested convergence on RMS density matrix=1.00D-08 within 128 cycles.
 Requested convergence on MAX density matrix=1.00D-06.
 Requested convergence on             energy=1.00D-06.
 No special actions if energy rises.
 SCF Done:  E(RB3LYP) =  -2959.04554154     A.U. after   12 cycles
            NFock= 12  Conv=0.58D-08     -V/T= 2.0021
 DoSCS=F DFT=T ScalE2(SS,OS)=  1.000000  1.000000
 Range of M.O.s used for correlation:     1   634
 NBasis=   634 NAE=    47 NBE=    47 NFC=     0 NFV=     0
 NROrb=    634 NOA=    47 NOB=    47 NVA=   587 NVB=   587

 **** Warning!!: The largest alpha MO coefficient is  0.71642883D+02

 PrsmSu:  requested number of processors reduced to:   1 ShMem   1 Linda.
 PrsmSu:  requested number of processors reduced to:   1 ShMem   1 Linda.
 Symmetrizing basis deriv contribution to polar:
 IMax=3 JMax=2 DiffMx= 0.00D+00
 G2DrvN: will do     3 centers at a time, making    7 passes.
 Estimated number of processors is:    2
 Calling FoFCou, ICntrl=  3107 FMM=F I1Cent=   0 AccDes= 0.00D+00.
 CoulSu:  requested number of processors reduced to:   2 ShMem   1 Linda.
 CalDSu:  requested number of processors reduced to:   6 ShMem   1 Linda.
 Calling FoFCou, ICntrl=  3107 FMM=F I1Cent=   0 AccDes= 0.00D+00.
 CoulSu:  requested number of processors reduced to:   2 ShMem   1 Linda.
 CalDSu:  requested number of processors reduced to:   6 ShMem   1 Linda.
 Calling FoFCou, ICntrl=  3107 FMM=F I1Cent=   0 AccDes= 0.00D+00.
 CoulSu:  requested number of processors reduced to:   2 ShMem   1 Linda.
 CalDSu:  requested number of processors reduced to:   6 ShMem   1 Linda.
 Calling FoFCou, ICntrl=  3107 FMM=F I1Cent=   0 AccDes= 0.00D+00.
 CoulSu:  requested number of processors reduced to:   2 ShMem   1 Linda.
 CalDSu:  requested number of processors reduced to:   6 ShMem   1 Linda.
 Calling FoFCou, ICntrl=  3107 FMM=F I1Cent=   0 AccDes= 0.00D+00.
 CoulSu:  requested number of processors reduced to:   2 ShMem   1 Linda.
 CalDSu:  requested number of processors reduced to:   6 ShMem   1 Linda.
 Calling FoFCou, ICntrl=  3107 FMM=F I1Cent=   0 AccDes= 0.00D+00.
 CoulSu:  requested number of processors reduced to:   2 ShMem   1 Linda.
 CalDSu:  requested number of processors reduced to:   6 ShMem   1 Linda.
 Calling FoFCou, ICntrl=  3107 FMM=F I1Cent=   0 AccDes= 0.00D+00.
 CoulSu:  requested number of processors reduced to:   2 ShMem   1 Linda.
 End of G2Drv F.D. properties file   721 does not exist.
 End of G2Drv F.D. properties file   722 does not exist.
 End of G2Drv F.D. properties file   788 does not exist.
          IDoAtm=1111111111111111111
          Differentiating once with respect to nuclear coordinates.
 CalDSu exits because no D1Ps are significant.
 CalDSu exits because no D1Ps are significant.
 CalDSu exits because no D1Ps are significant.
          There are    60 degrees of freedom in the 1st order CPHF.  IDoFFX=6 NUNeed=     0.
     56 vectors produced by pass  0 Test12= 4.60D-14 1.67D-09 XBig12= 1.81D-01 1.18D-01.
 AX will form     1 AO Fock derivatives at one time.
     54 vectors produced by pass  1 Test12= 4.60D-14 1.67D-09 XBig12= 4.49D-02 5.10D-02.
     54 vectors produced by pass  2 Test12= 4.60D-14 1.67D-09 XBig12= 5.86D-04 2.76D-03.
     54 vectors produced by pass  3 Test12= 4.60D-14 1.67D-09 XBig12= 4.07D-06 3.11D-04.
     54 vectors produced by pass  4 Test12= 4.60D-14 1.67D-09 XBig12= 1.34D-08 1.18D-05.
     54 vectors produced by pass  5 Test12= 4.60D-14 1.67D-09 XBig12= 2.51D-11 3.78D-07.
     15 vectors produced by pass  6 Test12= 4.60D-14 1.67D-09 XBig12= 3.39D-14 1.32D-08.
 InvSVY:  IOpt=1 It=  1 EMax= 3.89D-16
 Solved reduced A of dimension   341 with    60 vectors.
 End of Minotr F.D. properties file   721 does not exist.
 End of Minotr F.D. properties file   722 does not exist.
 End of Minotr F.D. properties file   788 does not exist.

 **********************************************************************

            Population analysis using the SCF density.

 **********************************************************************

 Orbital symmetries:
       Occupied  (A) (A) (A) (A) (A) (A) (A) (A) (A) (A) (A) (A)
                 (A) (A) (A) (A) (A) (A) (A) (A) (A) (A) (A) (A)
                 (A) (A) (A) (A) (A) (A) (A) (A) (A) (A) (A) (A)
                 (A) (A) (A) (A) (A) (A) (A) (A) (A) (A) (A)
       Virtual   (A) (A) (A) (A) (A) (A) (A) (A) (A) (A) (A) (A)
                 (A) (A) (A) (A) (A) (A) (A) (A) (A) (A) (A) (A)
                 (A) (A) (A) (A) (A) (A) (A) (A) (A) (A) (A) (A)
                 (A) (A) (A) (A) (A) (A) (A) (A) (A) (A) (A) (A)
                 (A) (A) (A) (A) (A) (A) (A) (A) (A) (A) (A) (A)
                 (A) (A) (A) (A) (A) (A) (A) (A) (A) (A) (A) (A)
                 (A) (A) (A) (A) (A) (A) (A) (A) (A) (A) (A) (A)
                 (A) (A) (A) (A) (A) (A) (A) (A) (A) (A) (A) (A)
                 (A) (A) (A) (A) (A) (A) (A) (A) (A) (A) (A) (A)
                 (A) (A) (A) (A) (A) (A) (A) (A) (A) (A) (A) (A)
                 (A) (A) (A) (A) (A) (A) (A) (A) (A) (A) (A) (A)
                 (A) (A) (A) (A) (A) (A) (A) (A) (A) (A) (A) (A)
                 (A) (A) (A) (A) (A) (A) (A) (A) (A) (A) (A) (A)
                 (A) (A) (A) (A) (A) (A) (A) (A) (A) (A) (A) (A)
                 (A) (A) (A) (A) (A) (A) (A) (A) (A) (A) (A) (A)
                 (A) (A) (A) (A) (A) (A) (A) (A) (A) (A) (A) (A)
                 (A) (A) (A) (A) (A) (A) (A) (A) (A) (A) (A) (A)
                 (A) (A) (A) (A) (A) (A) (A) (A) (A) (A) (A) (A)
                 (A) (A) (A) (A) (A) (A) (A) (A) (A) (A) (A) (A)
                 (A) (A) (A) (A) (A) (A) (A) (A) (A) (A) (A) (A)
                 (A) (A) (A) (A) (A) (A) (A) (A) (A) (A) (A) (A)
                 (A) (A) (A) (A) (A) (A) (A) (A) (A) (A) (A) (A)
                 (A) (A) (A) (A) (A) (A) (A) (A) (A) (A) (A) (A)
                 (A) (A) (A) (A) (A) (A) (A) (A) (A) (A) (A) (A)
                 (A) (A) (A) (A) (A) (A) (A) (A) (A) (A) (A) (A)
                 (A) (A) (A) (A) (A) (A) (A) (A) (A) (A) (A) (A)
                 (A) (A) (A) (A) (A) (A) (A) (A) (A) (A) (A) (A)
                 (A) (A) (A) (A) (A) (A) (A) (A) (A) (A) (A) (A)
                 (A) (A) (A) (A) (A) (A) (A) (A) (A) (A) (A) (A)
                 (A) (A) (A) (A) (A) (A) (A) (A) (A) (A) (A) (A)
                 (A) (A) (A) (A) (A) (A) (A) (A) (A) (A) (A) (A)
                 (A) (A) (A) (A) (A) (A) (A) (A) (A) (A) (A) (A)
                 (A) (A) (A) (A) (A) (A) (A) (A) (A) (A) (A) (A)
                 (A) (A) (A) (A) (A) (A) (A) (A) (A) (A) (A) (A)
                 (A) (A) (A) (A) (A) (A) (A) (A) (A) (A) (A) (A)
                 (A) (A) (A) (A) (A) (A) (A) (A) (A) (A) (A) (A)
                 (A) (A) (A) (A) (A) (A) (A) (A) (A) (A) (A) (A)
                 (A) (A) (A) (A) (A) (A) (A) (A) (A) (A) (A) (A)
                 (A) (A) (A) (A) (A) (A) (A) (A) (A) (A) (A) (A)
                 (A) (A) (A) (A) (A) (A) (A) (A) (A) (A) (A) (A)
                 (A) (A) (A) (A) (A) (A) (A) (A) (A) (A) (A) (A)
                 (A) (A) (A) (A) (A) (A) (A) (A) (A) (A) (A) (A)
                 (A) (A) (A) (A) (A) (A) (A) (A) (A) (A) (A) (A)
                 (A) (A) (A) (A) (A) (A) (A) (A) (A) (A) (A) (A)
                 (A) (A) (A) (A) (A) (A) (A) (A) (A) (A) (A) (A)
                 (A) (A) (A) (A) (A) (A) (A) (A) (A) (A) (A) (A)
                 (A) (A) (A) (A) (A) (A) (A) (A) (A) (A) (A) (A)
                 (A) (A) (A) (A) (A) (A) (A) (A) (A) (A) (A) (A)
                 (A) (A) (A) (A) (A) (A) (A) (A) (A) (A) (A)
 The electronic state is 1-A.
 Alpha  occ. eigenvalues -- -482.83005 -62.47668 -56.29270 -56.28960 -56.28955
 Alpha  occ. eigenvalues --  -19.18426 -19.14601 -19.13512 -10.34617 -10.24883
 Alpha  occ. eigenvalues --  -10.22505 -10.20109  -8.66372  -6.49158  -6.48174
 Alpha  occ. eigenvalues --   -6.48160  -2.60695  -2.60428  -2.60416  -2.59629
 Alpha  occ. eigenvalues --   -2.59628  -1.10764  -1.03332  -0.99339  -0.79086
 Alpha  occ. eigenvalues --   -0.74278  -0.71292  -0.68262  -0.60042  -0.55665
 Alpha  occ. eigenvalues --   -0.53710  -0.50298  -0.47900  -0.46586  -0.45565
 Alpha  occ. eigenvalues --   -0.44743  -0.43575  -0.42827  -0.41337  -0.39952
 Alpha  occ. eigenvalues --   -0.37156  -0.33643  -0.30384  -0.29356  -0.28281
 Alpha  occ. eigenvalues --   -0.26689  -0.26235
 Alpha virt. eigenvalues --   -0.02787  -0.02206  -0.00500   0.00115   0.00617
 Alpha virt. eigenvalues --    0.01792   0.02101   0.02569   0.03257   0.03738
 Alpha virt. eigenvalues --    0.04534   0.04786   0.04852   0.05649   0.06063
 Alpha virt. eigenvalues --    0.06256   0.07079   0.07637   0.07925   0.08448
 Alpha virt. eigenvalues --    0.08549   0.08931   0.09122   0.09413   0.09887
 Alpha virt. eigenvalues --    0.10339   0.10478   0.10852   0.10888   0.11078
 Alpha virt. eigenvalues --    0.11766   0.12341   0.12991   0.13522   0.14525
 Alpha virt. eigenvalues --    0.14762   0.15438   0.15888   0.16462   0.16844
 Alpha virt. eigenvalues --    0.17436   0.17955   0.18437   0.19362   0.20123
 Alpha virt. eigenvalues --    0.20176   0.20688   0.21013   0.21638   0.22314
 Alpha virt. eigenvalues --    0.23233   0.23926   0.23975   0.24833   0.25134
 Alpha virt. eigenvalues --    0.25190   0.25738   0.26044   0.26339   0.26717
 Alpha virt. eigenvalues --    0.27198   0.27561   0.28178   0.28446   0.29137
 Alpha virt. eigenvalues --    0.29624   0.29965   0.30339   0.30574   0.30777
 Alpha virt. eigenvalues --    0.31553   0.31734   0.32518   0.32936   0.33189
 Alpha virt. eigenvalues --    0.33440   0.33936   0.34839   0.34936   0.35159
 Alpha virt. eigenvalues --    0.36118   0.36454   0.37079   0.37761   0.37825
 Alpha virt. eigenvalues --    0.38388   0.38890   0.39416   0.40535   0.40781
 Alpha virt. eigenvalues --    0.41399   0.41590   0.42443   0.42631   0.43289
 Alpha virt. eigenvalues --    0.43823   0.44432   0.44690   0.45057   0.45616
 Alpha virt. eigenvalues --    0.46057   0.46515   0.47354   0.47936   0.48257
 Alpha virt. eigenvalues --    0.49084   0.49864   0.50020   0.50370   0.51497
 Alpha virt. eigenvalues --    0.52035   0.52171   0.53045   0.53266   0.55707
 Alpha virt. eigenvalues --    0.55984   0.56484   0.56863   0.57680   0.57922
 Alpha virt. eigenvalues --    0.59018   0.60192   0.60642   0.61178   0.62486
 Alpha virt. eigenvalues --    0.63579   0.64133   0.64583   0.65336   0.66485
 Alpha virt. eigenvalues --    0.67023   0.67877   0.68491   0.68606   0.69662
 Alpha virt. eigenvalues --    0.70042   0.70789   0.70938   0.71240   0.72367
 Alpha virt. eigenvalues --    0.73378   0.74046   0.74701   0.74966   0.75355
 Alpha virt. eigenvalues --    0.75965   0.76391   0.77307   0.78138   0.78295
 Alpha virt. eigenvalues --    0.78920   0.79775   0.80231   0.80581   0.80967
 Alpha virt. eigenvalues --    0.81946   0.82473   0.83143   0.83902   0.84590
 Alpha virt. eigenvalues --    0.84840   0.85725   0.85956   0.86770   0.87112
 Alpha virt. eigenvalues --    0.87396   0.88848   0.89109   0.89486   0.90262
 Alpha virt. eigenvalues --    0.91298   0.92071   0.92156   0.93347   0.94140
 Alpha virt. eigenvalues --    0.94979   0.95743   0.96159   0.97563   0.97807
 Alpha virt. eigenvalues --    0.98201   0.99370   0.99804   1.00336   1.01108
 Alpha virt. eigenvalues --    1.01477   1.02889   1.03563   1.04012   1.04465
 Alpha virt. eigenvalues --    1.05399   1.05884   1.06465   1.06792   1.07953
 Alpha virt. eigenvalues --    1.09289   1.09637   1.09823   1.11553   1.12042
 Alpha virt. eigenvalues --    1.12294   1.13117   1.13706   1.14039   1.15551
 Alpha virt. eigenvalues --    1.16185   1.17069   1.18434   1.18807   1.18961
 Alpha virt. eigenvalues --    1.19780   1.20631   1.21262   1.22211   1.23141
 Alpha virt. eigenvalues --    1.23591   1.25022   1.25294   1.25971   1.26663
 Alpha virt. eigenvalues --    1.27175   1.28751   1.29178   1.29646   1.30549
 Alpha virt. eigenvalues --    1.31361   1.31824   1.33518   1.33745   1.34947
 Alpha virt. eigenvalues --    1.36005   1.36910   1.37869   1.38620   1.39759
 Alpha virt. eigenvalues --    1.40538   1.40907   1.41592   1.42607   1.43256
 Alpha virt. eigenvalues --    1.44229   1.44562   1.45954   1.46337   1.47078
 Alpha virt. eigenvalues --    1.47119   1.48408   1.48997   1.49568   1.50753
 Alpha virt. eigenvalues --    1.50926   1.52437   1.52882   1.53319   1.53872
 Alpha virt. eigenvalues --    1.55609   1.56537   1.57468   1.57546   1.58245
 Alpha virt. eigenvalues --    1.58854   1.59795   1.60082   1.61881   1.62213
 Alpha virt. eigenvalues --    1.63410   1.63744   1.65427   1.66391   1.67032
 Alpha virt. eigenvalues --    1.68263   1.68547   1.68854   1.70027   1.70751
 Alpha virt. eigenvalues --    1.71738   1.72257   1.73481   1.74234   1.75506
 Alpha virt. eigenvalues --    1.75734   1.77578   1.79159   1.80021   1.81589
 Alpha virt. eigenvalues --    1.82976   1.84217   1.85384   1.85934   1.86435
 Alpha virt. eigenvalues --    1.89048   1.89357   1.90021   1.92006   1.92785
 Alpha virt. eigenvalues --    1.93642   1.95467   1.95726   1.96467   1.97004
 Alpha virt. eigenvalues --    1.98799   2.00066   2.00719   2.01026   2.01746
 Alpha virt. eigenvalues --    2.02302   2.04609   2.05031   2.06173   2.07303
 Alpha virt. eigenvalues --    2.07518   2.08500   2.09076   2.10239   2.11248
 Alpha virt. eigenvalues --    2.12270   2.15974   2.16329   2.17676   2.18825
 Alpha virt. eigenvalues --    2.19527   2.20992   2.22216   2.22553   2.23904
 Alpha virt. eigenvalues --    2.26325   2.27762   2.29619   2.31636   2.32516
 Alpha virt. eigenvalues --    2.34007   2.35199   2.36248   2.38092   2.40490
 Alpha virt. eigenvalues --    2.41361   2.42515   2.45433   2.46570   2.49416
 Alpha virt. eigenvalues --    2.49791   2.51664   2.53449   2.54922   2.57397
 Alpha virt. eigenvalues --    2.58487   2.60192   2.60821   2.64210   2.64739
 Alpha virt. eigenvalues --    2.65799   2.68813   2.71355   2.71978   2.73546
 Alpha virt. eigenvalues --    2.75633   2.76723   2.79394   2.81369   2.81983
 Alpha virt. eigenvalues --    2.83549   2.87361   2.90603   2.91814   2.93798
 Alpha virt. eigenvalues --    2.96546   2.96946   2.98108   2.99655   3.00866
 Alpha virt. eigenvalues --    3.02660   3.03554   3.09018   3.11029   3.13902
 Alpha virt. eigenvalues --    3.14324   3.16321   3.17947   3.22093   3.22729
 Alpha virt. eigenvalues --    3.25139   3.26009   3.28093   3.29059   3.31310
 Alpha virt. eigenvalues --    3.31973   3.33716   3.34378   3.35174   3.36469
 Alpha virt. eigenvalues --    3.37204   3.39047   3.40008   3.40967   3.42324
 Alpha virt. eigenvalues --    3.43237   3.45529   3.45760   3.47556   3.48036
 Alpha virt. eigenvalues --    3.49040   3.49745   3.53377   3.53741   3.55155
 Alpha virt. eigenvalues --    3.56267   3.57659   3.58892   3.60268   3.61512
 Alpha virt. eigenvalues --    3.63538   3.64518   3.66440   3.67023   3.67823
 Alpha virt. eigenvalues --    3.69803   3.71685   3.73410   3.75018   3.76633
 Alpha virt. eigenvalues --    3.77913   3.78480   3.79734   3.82374   3.83646
 Alpha virt. eigenvalues --    3.85354   3.87466   3.88688   3.89763   3.91062
 Alpha virt. eigenvalues --    3.91891   3.92562   3.93478   3.94537   3.96671
 Alpha virt. eigenvalues --    3.98637   3.99593   4.00707   4.02798   4.04916
 Alpha virt. eigenvalues --    4.05276   4.07437   4.08435   4.09345   4.11286
 Alpha virt. eigenvalues --    4.13665   4.13808   4.16560   4.17945   4.19199
 Alpha virt. eigenvalues --    4.20477   4.22433   4.23115   4.23974   4.26404
 Alpha virt. eigenvalues --    4.28270   4.30613   4.31633   4.33102   4.34509
 Alpha virt. eigenvalues --    4.36906   4.39165   4.40862   4.42365   4.44082
 Alpha virt. eigenvalues --    4.44616   4.47246   4.47380   4.49061   4.50584
 Alpha virt. eigenvalues --    4.51186   4.52056   4.53313   4.53736   4.56533
 Alpha virt. eigenvalues --    4.57243   4.58851   4.60487   4.62986   4.65396
 Alpha virt. eigenvalues --    4.68488   4.71737   4.72745   4.74214   4.76276
 Alpha virt. eigenvalues --    4.77073   4.77789   4.79900   4.82889   4.83741
 Alpha virt. eigenvalues --    4.85276   4.88051   4.88762   4.91038   4.94609
 Alpha virt. eigenvalues --    4.95544   4.97279   4.97378   5.01244   5.02420
 Alpha virt. eigenvalues --    5.03743   5.04917   5.09514   5.11201   5.11447
 Alpha virt. eigenvalues --    5.13509   5.19042   5.20948   5.22085   5.24492
 Alpha virt. eigenvalues --    5.27070   5.29180   5.30262   5.32634   5.34590
 Alpha virt. eigenvalues --    5.37820   5.39251   5.42154   5.44916   5.48918
 Alpha virt. eigenvalues --    5.51399   5.56897   5.62945   5.64049   5.65606
 Alpha virt. eigenvalues --    5.67579   5.69486   5.69936   5.72971   5.76377
 Alpha virt. eigenvalues --    5.79307   5.81523   5.82645   5.96159   5.98136
 Alpha virt. eigenvalues --    6.09950   6.15032   6.22047   6.32442   6.36783
 Alpha virt. eigenvalues --    6.38938   6.39194   6.40400   6.48447   6.54569
 Alpha virt. eigenvalues --    6.58615   6.63683   6.64208   6.68829   6.69599
 Alpha virt. eigenvalues --    6.74511   6.77457   6.80169   6.80622   6.82856
 Alpha virt. eigenvalues --    6.85168   6.90134   6.92574   6.98637   7.00652
 Alpha virt. eigenvalues --    7.02834   7.08801   7.14134   7.14355   7.18089
 Alpha virt. eigenvalues --    7.18394   7.24744   7.31437   7.32353   7.41262
 Alpha virt. eigenvalues --    7.45829   7.53659   7.62784   7.67181   7.69385
 Alpha virt. eigenvalues --    7.77215   7.87050   8.06311   8.31138   8.32665
 Alpha virt. eigenvalues --   15.00886  15.57003  16.02633  16.97519  17.10294
 Alpha virt. eigenvalues --   17.71566  18.27563
          Condensed to atoms (all electrons):
               1          2          3          4          5          6
     1  C    4.929133  -0.143740  -0.104624  -0.002663   0.008533   0.000372
     2  O   -0.143740   9.061441  -0.007532  -0.110470   0.016021   0.002793
     3  O   -0.104624  -0.007532   8.735255  -0.184739   0.001070  -0.011090
     4  O   -0.002663  -0.110470  -0.184739   8.603409   0.049587   0.003776
     5  C    0.008533   0.016021   0.001070   0.049587   5.283376   0.360922
     6  H    0.000372   0.002793  -0.011090   0.003776   0.360922   0.371175
     7  H   -0.000494   0.003555  -0.006177  -0.000696   0.389582   0.000960
     8  H    0.000115  -0.001714   0.005509  -0.024616   0.422316  -0.016920
     9  H   -0.080864   0.012355   0.090855   0.027330   0.010136  -0.011119
    10  H    0.018732   0.053434  -0.036630   0.096952  -0.007604  -0.002639
    11  C   -0.099085  -0.001736  -0.117230  -0.016381  -0.000095  -0.000073
    12  H   -0.047063  -0.006343  -0.009342   0.000857  -0.000066   0.000037
    13  H   -0.065330   0.009831  -0.027304  -0.001882  -0.000194   0.000109
    14  H    0.027542   0.006636   0.008099  -0.000664  -0.000263   0.000094
    15  C   -0.070877   0.051366   0.031207   0.033336  -0.005026   0.002167
    16  H    0.005229  -0.001700  -0.039302   0.006757  -0.000404   0.000900
    17  H   -0.024188   0.010367   0.009385  -0.006589   0.001402   0.000051
    18  H   -0.007578   0.002648  -0.007795   0.000434   0.002497   0.000320
    19  Br   0.344199  -0.009960  -0.126894  -0.005141  -0.000407   0.002057
               7          8          9         10         11         12
     1  C   -0.000494   0.000115  -0.080864   0.018732  -0.099085  -0.047063
     2  O    0.003555  -0.001714   0.012355   0.053434  -0.001736  -0.006343
     3  O   -0.006177   0.005509   0.090855  -0.036630  -0.117230  -0.009342
     4  O   -0.000696  -0.024616   0.027330   0.096952  -0.016381   0.000857
     5  C    0.389582   0.422316   0.010136  -0.007604  -0.000095  -0.000066
     6  H    0.000960  -0.016920  -0.011119  -0.002639  -0.000073   0.000037
     7  H    0.360671   0.000355   0.006148  -0.001110   0.000300  -0.000014
     8  H    0.000355   0.387187   0.007544   0.009787   0.000063  -0.000064
     9  H    0.006148   0.007544   0.658187   0.041985   0.007235  -0.000767
    10  H   -0.001110   0.009787   0.041985   0.637374  -0.014383  -0.001242
    11  C    0.000300   0.000063   0.007235  -0.014383   5.841291   0.435793
    12  H   -0.000014  -0.000064  -0.000767  -0.001242   0.435793   0.466289
    13  H   -0.000024   0.000028  -0.001971   0.001138   0.453944   0.011017
    14  H   -0.000017   0.000057   0.001417  -0.006272   0.342492  -0.043103
    15  C    0.002087  -0.001307  -0.005121  -0.001815  -0.000621  -0.002008
    16  H    0.000386  -0.000480   0.003230   0.001271   0.012092   0.002418
    17  H   -0.000968   0.001451  -0.004562  -0.002133   0.003502  -0.000590
    18  H    0.000504  -0.001075   0.013511  -0.000905   0.007446  -0.000143
    19  Br  -0.001449  -0.002066  -0.033861  -0.027702  -0.031418  -0.032394
              13         14         15         16         17         18
     1  C   -0.065330   0.027542  -0.070877   0.005229  -0.024188  -0.007578
     2  O    0.009831   0.006636   0.051366  -0.001700   0.010367   0.002648
     3  O   -0.027304   0.008099   0.031207  -0.039302   0.009385  -0.007795
     4  O   -0.001882  -0.000664   0.033336   0.006757  -0.006589   0.000434
     5  C   -0.000194  -0.000263  -0.005026  -0.000404   0.001402   0.002497
     6  H    0.000109   0.000094   0.002167   0.000900   0.000051   0.000320
     7  H   -0.000024  -0.000017   0.002087   0.000386  -0.000968   0.000504
     8  H    0.000028   0.000057  -0.001307  -0.000480   0.001451  -0.001075
     9  H   -0.001971   0.001417  -0.005121   0.003230  -0.004562   0.013511
    10  H    0.001138  -0.006272  -0.001815   0.001271  -0.002133  -0.000905
    11  C    0.453944   0.342492  -0.000621   0.012092   0.003502   0.007446
    12  H    0.011017  -0.043103  -0.002008   0.002418  -0.000590  -0.000143
    13  H    0.443434  -0.046703   0.000184   0.001963   0.000227   0.000484
    14  H   -0.046703   0.488720   0.007207  -0.007516   0.003148  -0.002540
    15  C    0.000184   0.007207   5.429488   0.408321   0.413066   0.343412
    16  H    0.001963  -0.007516   0.408321   0.389793  -0.015510   0.002831
    17  H    0.000227   0.003148   0.413066  -0.015510   0.416746  -0.008998
    18  H    0.000484  -0.002540   0.343412   0.002831  -0.008998   0.352523
    19  Br  -0.036074   0.022502  -0.023025   0.000206  -0.004532  -0.000613
              19
     1  C    0.344199
     2  O   -0.009960
     3  O   -0.126894
     4  O   -0.005141
     5  C   -0.000407
     6  H    0.002057
     7  H   -0.001449
     8  H   -0.002066
     9  H   -0.033861
    10  H   -0.027702
    11  C   -0.031418
    12  H   -0.032394
    13  H   -0.036074
    14  H    0.022502
    15  C   -0.023025
    16  H    0.000206
    17  H   -0.004532
    18  H   -0.000613
    19  Br  35.374824
 Mulliken charges:
               1
     1  C    1.312650
     2  O   -0.947254
     3  O   -0.202719
     4  O   -0.468597
     5  C   -0.531380
     6  H    0.296109
     7  H    0.246402
     8  H    0.213830
     9  H    0.258334
    10  H    0.241763
    11  C   -0.823135
    12  H    0.226726
    13  H    0.257124
    14  H    0.199162
    15  C   -0.612040
    16  H    0.229515
    17  H    0.208725
    18  H    0.303038
    19  Br  -0.408253
 Sum of Mulliken charges =   0.00000
 Mulliken charges with hydrogens summed into heavy atoms:
               1
     1  C    1.312650
     2  O   -0.705491
     3  O   -0.202719
     4  O   -0.210264
     5  C    0.224961
    11  C   -0.140123
    15  C    0.129238
    19  Br  -0.408253
 APT charges:
               1
     1  C    0.730954
     2  O   -0.873907
     3  O   -0.174688
     4  O   -0.341473
     5  C   -1.739352
     6  H    0.367077
     7  H    0.690116
     8  H    0.830802
     9  H    0.278556
    10  H    0.496914
    11  C   -1.870099
    12  H    0.565283
    13  H    0.539032
    14  H    0.721666
    15  C   -1.664644
    16  H    0.599384
    17  H    0.673388
    18  H    0.503816
    19  Br  -0.332824
 Sum of APT charges =   0.00000
 APT charges with hydrogens summed into heavy atoms:
               1
     1  C    0.730954
     2  O   -0.376993
     3  O   -0.174688
     4  O   -0.062917
     5  C    0.148644
    11  C   -0.044118
    15  C    0.111943
    19  Br  -0.332824
 Electronic spatial extent (au):  <R**2>=           1647.3984
 Charge=              0.0000 electrons
 Dipole moment (field-independent basis, Debye):
    X=             -2.8845    Y=              3.9671    Z=             -0.5580  Tot=              4.9365
 Quadrupole moment (field-independent basis, Debye-Ang):
   XX=            -58.3337   YY=            -59.4843   ZZ=            -64.8697
   XY=              1.7373   XZ=              2.5364   YZ=             -1.6344
 Traceless Quadrupole moment (field-independent basis, Debye-Ang):
   XX=              2.5622   YY=              1.4116   ZZ=             -3.9738
   XY=              1.7373   XZ=              2.5364   YZ=             -1.6344
 Octapole moment (field-independent basis, Debye-Ang**2):
  XXX=             11.5311  YYY=             -7.5290  ZZZ=            -12.0502  XYY=             12.7126
  XXY=             -6.0014  XXZ=             -1.6985  XZZ=              8.5926  YZZ=             -7.7537
  YYZ=             -2.2718  XYZ=              6.6498
 Hexadecapole moment (field-independent basis, Debye-Ang**3):
 XXXX=          -1080.7961 YYYY=           -626.2643 ZZZZ=           -275.7191 XXXY=            -10.1281
 XXXZ=             -8.5092 YYYX=            -35.8286 YYYZ=             -0.4736 ZZZX=              0.0481
 ZZZY=             -2.3579 XXYY=           -275.4560 XXZZ=           -217.4588 YYZZ=           -142.8730
 XXYZ=             -0.9323 YYXZ=             -5.8618 ZZXY=             -5.8047
 N-N= 6.913799359356D+02 E-N=-8.436713365683D+03  KE= 2.952704457191D+03
  Exact polarizability:   0.000   0.000   0.000   0.000   0.000   0.000
 Approx polarizability: 150.648 -12.070 148.828  -8.624   8.853 134.488
 PrsmSu:  requested number of processors reduced to:   1 ShMem   1 Linda.
 PrsmSu:  requested number of processors reduced to:   1 ShMem   1 Linda.
 Calling FoFJK, ICntrl=    100147 FMM=F ISym2X=0 I1Cent= 0 IOpClX= 0 NMat=1 NMatS=1 NMatT=0.
 CoulSu:  requested number of processors reduced to:   1 ShMem   1 Linda.
 ***** Axes restored to original set *****
 -------------------------------------------------------------------
 Center     Atomic                   Forces (Hartrees/Bohr)
 Number     Number              X              Y              Z
 -------------------------------------------------------------------
      1        6          -0.005231976   -0.016182279   -0.044799726
      2        8          -0.010448565   -0.016630208    0.040238074
      3        8          -0.011801210    0.013176242   -0.010406260
      4        8           0.008251959    0.034187326   -0.002999101
      5        6           0.018781650   -0.012555818   -0.005836115
      6        1          -0.003334006   -0.001862167   -0.000589836
      7        1          -0.005952116    0.002817135    0.006590363
      8        1          -0.002923053    0.006065463   -0.003638932
      9        1          -0.004025696   -0.024827553    0.029201553
     10        1           0.002063944    0.017647853   -0.022128774
     11        6           0.012157556    0.013491792    0.008205680
     12        1          -0.009131154   -0.001647092   -0.005676907
     13        1          -0.005387679   -0.005990429    0.005836683
     14        1          -0.000177293   -0.005287852   -0.002052405
     15        6           0.011358446   -0.003222247   -0.001525201
     16        1          -0.006997558   -0.000618209    0.000648895
     17        1           0.000705307    0.003456657    0.004837452
     18        1          -0.000793717    0.000981228   -0.003594325
     19       35           0.012885159   -0.002999845    0.007688881
 -------------------------------------------------------------------
 Cartesian Forces:  Max     0.044799726 RMS     0.013302349
 FormGI is forming the generalized inverse of G from B-inverse, IUseBI=4.
 GSVD:  received Info=                   1 from GESDD.

 GradGradGradGradGradGradGradGradGradGradGradGradGradGradGradGradGradGrad
 Berny optimization.
 Internal  Forces:  Max     0.042574993 RMS     0.012440473
 Search for a saddle point.
 Step number   1 out of a maximum of   79
 All quantities printed in internal units (Hartrees-Bohrs-Radians)
 Swapping is turned off.
 Second derivative matrix not updated -- analytic derivatives used.
 ITU=  0
     Eigenvalues ---   -0.07603  -0.00863   0.00050   0.00139   0.00366
     Eigenvalues ---    0.00449   0.00736   0.02742   0.03614   0.04182
     Eigenvalues ---    0.04774   0.05413   0.05572   0.06217   0.06383
     Eigenvalues ---    0.07093   0.08199   0.08327   0.08467   0.08680
     Eigenvalues ---    0.09647   0.11791   0.12843   0.13141   0.13499
     Eigenvalues ---    0.13997   0.15540   0.17015   0.18006   0.18240
     Eigenvalues ---    0.18438   0.18552   0.20162   0.23988   0.30088
     Eigenvalues ---    0.30552   0.31150   0.31378   0.31899   0.31964
     Eigenvalues ---    0.32201   0.32451   0.32534   0.32790   0.34248
     Eigenvalues ---    0.34707   0.38883   0.56473   1.10993   2.57623
     Eigenvalues ---    4.28759
 Eigenvectors required to have negative eigenvalues:
                          R9        R8        R5        R4        R1
   1                    0.53853  -0.48414   0.47632  -0.43182   0.10688
                          A1        D1        D5        D7        D3
   1                   -0.09944   0.09634  -0.06290   0.06055  -0.05874
 RFO step:  Lambda0=4.912700544D-03 Lambda=-3.48799481D-02.
 Linear search not attempted -- option 19 set.
 Maximum step size (   0.300) exceeded in Quadratic search.
    -- Step size scaled by   0.281
 Iteration  1 RMS(Cart)=  0.03404970 RMS(Int)=  0.00260177
 Iteration  2 RMS(Cart)=  0.00501885 RMS(Int)=  0.00005392
 Iteration  3 RMS(Cart)=  0.00000845 RMS(Int)=  0.00005345
 Iteration  4 RMS(Cart)=  0.00000000 RMS(Int)=  0.00005345
 Variable       Old X    -DE/DX   Delta X   Delta X   Delta X     New X
                                 (Linear)    (Quad)   (Total)
    R1        2.37945   0.01915   0.00000  -0.00033  -0.00033   2.37912
    R2        2.82401  -0.00030   0.00000   0.00574   0.00574   2.82974
    R3        3.94490   0.00682   0.00000   0.03793   0.03793   3.98283
    R4        2.28657  -0.02823   0.00000   0.11010   0.11010   2.39666
    R5        2.46325   0.00759   0.00000   0.07619   0.07619   2.53944
    R6        2.74597  -0.00208   0.00000  -0.01030  -0.01030   2.73567
    R7        2.74624  -0.00761   0.00000  -0.00033  -0.00033   2.74592
    R8        2.38468  -0.02326   0.00000  -0.12265  -0.12265   2.26203
    R9        2.56275  -0.01863   0.00000  -0.21970  -0.21970   2.34305
   R10        2.06648  -0.00126   0.00000  -0.00334  -0.00334   2.06314
   R11        2.07099  -0.00405   0.00000  -0.00558  -0.00558   2.06541
   R12        2.07376  -0.00564   0.00000  -0.00645  -0.00645   2.06731
   R13        2.08769  -0.01023   0.00000  -0.00890  -0.00890   2.07879
   R14        2.07907  -0.00901   0.00000  -0.00687  -0.00687   2.07220
   R15        2.07786  -0.00465   0.00000  -0.00370  -0.00370   2.07415
   R16        2.06985  -0.00478   0.00000  -0.00272  -0.00272   2.06713
   R17        2.06760  -0.00492   0.00000  -0.00261  -0.00261   2.06500
   R18        2.06622  -0.00241   0.00000  -0.00027  -0.00027   2.06595
    A1        2.14028  -0.01591   0.00000  -0.00633  -0.00650   2.13378
    A2        1.98360   0.00582   0.00000  -0.00282  -0.00309   1.98051
    A3        1.89553  -0.00356   0.00000  -0.01534  -0.01553   1.88000
    A4        1.95378  -0.04099   0.00000  -0.04178  -0.04178   1.91200
    A5        1.87442   0.00442   0.00000   0.01959   0.01959   1.89401
    A6        1.92172  -0.01297   0.00000   0.01060   0.01060   1.93233
    A7        1.92340   0.00361   0.00000  -0.00294  -0.00301   1.92040
    A8        1.49480   0.00525   0.00000   0.01318   0.01317   1.50797
    A9        1.93712   0.00200   0.00000  -0.00326  -0.00326   1.93385
   A10        1.84361   0.01141   0.00000   0.00751   0.00751   1.85111
   A11        1.86042   0.00564   0.00000   0.00285   0.00284   1.86326
   A12        1.95443  -0.00670   0.00000  -0.00330  -0.00330   1.95113
   A13        1.93809  -0.00511   0.00000  -0.00150  -0.00150   1.93659
   A14        1.92574  -0.00588   0.00000  -0.00162  -0.00164   1.92410
   A15        2.64331   0.02893   0.00000   0.01065   0.01065   2.65396
   A16        2.52465  -0.00327   0.00000   0.05667   0.05667   2.58132
   A17        1.92437  -0.00358   0.00000  -0.00712  -0.00714   1.91723
   A18        1.96440  -0.00444   0.00000  -0.00372  -0.00374   1.96067
   A19        1.94315  -0.00273   0.00000  -0.00830  -0.00832   1.93483
   A20        1.86488   0.00419   0.00000   0.00756   0.00755   1.87243
   A21        1.86169   0.00344   0.00000   0.00667   0.00664   1.86833
   A22        1.90089   0.00387   0.00000   0.00619   0.00617   1.90706
   A23        1.86817   0.00758   0.00000   0.01352   0.01347   1.88164
   A24        1.84370   0.00294   0.00000   0.00689   0.00685   1.85055
   A25        1.92935   0.00176   0.00000   0.00531   0.00527   1.93462
   A26        1.92086  -0.00335   0.00000  -0.00633  -0.00639   1.91446
   A27        1.94076  -0.00346   0.00000  -0.00778  -0.00783   1.93294
   A28        1.95660  -0.00458   0.00000  -0.00975  -0.00977   1.94682
    D1        3.06078  -0.01558   0.00000  -0.03505  -0.03503   3.02575
    D2       -0.88460  -0.03352   0.00000  -0.07266  -0.07268  -0.95728
    D3        1.29635  -0.00685   0.00000  -0.02171  -0.02163   1.27472
    D4       -2.90643  -0.00690   0.00000  -0.01944  -0.01938  -2.92581
    D5       -0.76641  -0.00713   0.00000  -0.02023  -0.02018  -0.78659
    D6       -1.07560   0.00628   0.00000   0.00962   0.00956  -1.06603
    D7        1.00480   0.00623   0.00000   0.01189   0.01182   1.01662
    D8       -3.13836   0.00600   0.00000   0.01109   0.01102  -3.12734
    D9       -0.72981  -0.04257   0.00000   0.01649   0.01649  -0.71332
   D10       -1.92323   0.00273   0.00000   0.01306   0.01306  -1.91017
   D11       -3.02578   0.00014   0.00000  -0.00379  -0.00380  -3.02957
   D12       -0.97895   0.00131   0.00000  -0.00129  -0.00126  -0.98021
   D13        1.14126  -0.00142   0.00000  -0.00586  -0.00588   1.13538
   D14       -0.92201  -0.00173   0.00000  -0.00908  -0.00907  -0.93108
   D15        1.19988  -0.00162   0.00000  -0.01024  -0.01025   1.18963
   D16       -3.03457  -0.00021   0.00000  -0.00715  -0.00714  -3.04170
   D17        0.69737   0.00059   0.00000   0.00881   0.00881   0.70618
   D18        2.81926   0.00071   0.00000   0.00765   0.00763   2.82690
   D19       -1.41519   0.00212   0.00000   0.01074   0.01075  -1.40444
   D20        1.99449  -0.00202   0.00000  -0.00860  -0.00853   1.98596
   D21        0.07577  -0.00710   0.00000  -0.01078  -0.01085   0.06492
   D22       -1.73325  -0.01694   0.00000  -0.00349  -0.00349  -1.73674
   D23        0.18377  -0.02868   0.00000   0.01245   0.01244   0.19621
         Item               Value     Threshold  Converged?
 Maximum Force            0.042575     0.000450     NO 
 RMS     Force            0.012440     0.000300     NO 
 Maximum Displacement     0.169651     0.001800     NO 
 RMS     Displacement     0.036217     0.001200     NO 
 Predicted change in Energy=-9.986832D-03
 GradGradGradGradGradGradGradGradGradGradGradGradGradGradGradGradGradGrad

                          Input orientation:                          
 ---------------------------------------------------------------------
 Center     Atomic      Atomic             Coordinates (Angstroms)
 Number     Number       Type             X           Y           Z
 ---------------------------------------------------------------------
      1          6           0        0.317372    0.695000    0.530504
      2          8           0       -0.472255    0.287397    1.422342
      3          8           0       -0.500645    0.735999   -0.816091
      4          8           0       -1.755329   -1.208841    0.034913
      5          6           0       -3.184956   -1.017200    0.210615
      6          1           0       -3.398179   -0.015991    0.590180
      7          1           0       -3.635239   -1.183268   -0.771342
      8          1           0       -3.521520   -1.782895    0.915752
      9          1           0       -1.291080   -0.336500   -0.640619
     10          1           0       -1.138799   -0.697302    0.981242
     11          6           0        1.137082    1.937202    0.695806
     12          1           0        1.951473    1.754692    1.412437
     13          1           0        1.597658    2.260900   -0.245222
     14          1           0        0.528758    2.755709    1.101643
     15          6           0       -1.340162    1.903220   -0.984926
     16          1           0       -0.692661    2.746840   -1.241086
     17          1           0       -2.002761    1.679419   -1.824555
     18          1           0       -1.904883    2.111562   -0.072300
     19         35           0        1.582484   -0.812616   -0.223597
 ---------------------------------------------------------------------
                    Distance matrix (angstroms):
                    1          2          3          4          5
     1  C    0.000000
     2  O    1.258978   0.000000
     3  O    1.576119   2.283120   0.000000
     4  O    2.857675   2.410387   2.465937   0.000000
     5  C    3.911554   3.244843   3.366506   1.453076   0.000000
     6  H    3.783435   3.057052   3.307384   2.104796   1.091765
     7  H    4.565723   4.120628   3.675768   2.045669   1.092966
     8  H    4.585354   3.720317   4.297650   2.055443   1.093975
     9  H    2.241125   2.305544   1.343813   1.197017   2.185113
    10  H    2.064486   1.268260   2.385791   1.239887   2.209741
    11  C    1.497436   2.416542   2.531969   4.324397   5.257748
    12  H    2.137999   2.833286   3.466548   4.941708   5.959082
    13  H    2.166316   3.310593   2.655953   4.833228   5.816109
    14  H    2.148815   2.682804   2.969276   4.698151   5.368467
    15  C    2.550243   3.026399   1.447653   3.301115   3.655330
    16  H    2.892878   3.631981   2.064212   4.290087   4.742042
    17  H    3.449405   3.850002   2.040439   3.443964   3.579281
    18  H    2.703411   2.759340   2.101733   3.325498   3.392312
    19  Br   2.107625   2.853261   2.662458   3.371175   4.791542
                    6          7          8          9         10
     6  H    0.000000
     7  H    1.808999   0.000000
     8  H    1.800877   1.794093   0.000000
     9  H    2.461190   2.495834   3.080456   0.000000
    10  H    2.392051   3.088677   2.619191   1.668472   0.000000
    11  C    4.939100   5.887691   5.965741   3.584930   3.493096
    12  H    5.694752   6.679210   6.535661   4.370615   3.968373
    13  H    5.553424   6.286677   6.626169   3.904822   4.212288
    14  H    4.833709   6.030131   6.085904   3.988615   3.836473
    15  C    3.224867   3.852196   4.685973   2.266563   3.266355
    16  H    4.278621   4.932056   5.759591   3.197758   4.123092
    17  H    3.263824   3.459656   4.669424   2.443793   3.777264
    18  H    2.682405   3.786648   4.330884   2.587035   3.096215
    19  Br   5.109192   5.259472   5.318873   2.942442   2.978308
                   11         12         13         14         15
    11  C    0.000000
    12  H    1.100047   0.000000
    13  H    1.096561   1.768973   0.000000
    14  H    1.097595   1.767129   1.789254   0.000000
    15  C    2.993785   4.074833   3.050554   2.928031   0.000000
    16  H    2.784784   3.875175   2.544296   2.642029   1.093878
    17  H    4.034511   5.110748   3.974346   4.016169   1.092749
    18  H    3.142282   4.147683   3.509985   2.777710   1.093253
    19  Br   2.933460   3.066566   3.073629   3.949626   4.061680
                   16         17         18         19
    16  H    0.000000
    17  H    1.787788   0.000000
    18  H    1.799756   1.807408   0.000000
    19  Br   4.345261   4.650514   4.553618   0.000000
 Stoichiometry    C4H11BrO3
 Framework group  C1[X(C4H11BrO3)]
 Deg. of freedom    51
 Full point group                 C1      NOp   1
 Largest Abelian subgroup         C1      NOp   1
 Largest concise Abelian subgroup C1      NOp   1
                         Standard orientation:                         
 ---------------------------------------------------------------------
 Center     Atomic      Atomic             Coordinates (Angstroms)
 Number     Number       Type             X           Y           Z
 ---------------------------------------------------------------------
      1          6           0        0.285680    0.691587    0.533895
      2          8           0       -0.497915    0.262397    1.420913
      3          8           0       -0.530104    0.726950   -0.814213
      4          8           0       -1.749232   -1.247725    0.019591
      5          6           0       -3.182628   -1.084700    0.193457
      6          1           0       -3.415736   -0.090582    0.579903
      7          1           0       -3.627568   -1.252048   -0.790716
      8          1           0       -3.506009   -1.861881    0.892167
      9          1           0       -1.300288   -0.361705   -0.648442
     10          1           0       -1.144596   -0.731543    0.971058
     11          6           0        1.081169    1.947943    0.710204
     12          1           0        1.897370    1.775698    1.427316
     13          1           0        1.537481    2.287332   -0.227367
     14          1           0        0.456465    2.751666    1.120679
     15          6           0       -1.391394    1.879162   -0.976347
     16          1           0       -0.759575    2.736856   -1.224815
     17          1           0       -2.047811    1.648987   -1.819103
     18          1           0       -1.961929    2.069924   -0.063494
     19         35           0        1.580950   -0.785990   -0.228422
 ---------------------------------------------------------------------
 Rotational constants (GHZ):      1.6626702      0.9240887      0.7304115
 Standard basis: Aug-CC-pVTZ (5D, 7F)
 There are   729 symmetry adapted cartesian basis functions of A   symmetry.
 There are   634 symmetry adapted basis functions of A   symmetry.
   634 basis functions,  1018 primitive gaussians,   729 cartesian basis functions
    47 alpha electrons       47 beta electrons
       nuclear repulsion energy       690.2153391648 Hartrees.
 NAtoms=   19 NActive=   19 NUniq=   19 SFac= 1.00D+00 NAtFMM=   60 NAOKFM=F Big=F
 Integral buffers will be    131072 words long.
 Raffenetti 2 integral format.
 Two-electron integral symmetry is turned on.
 One-electron integrals computed using PRISM.
 PrsmSu:  requested number of processors reduced to:   1 ShMem   1 Linda.
 NBasis=   634 RedAO= T EigKep=  6.66D-06  NBF=   634
 NBsUse=   634 1.00D-06 EigRej= -1.00D+00 NBFU=   634
 Initial guess from the checkpoint file:  "/lustre/SCRATCH5/gau/mlawal/847717.sched01/Gau-22553.chk"
 B after Tr=     0.000000    0.000000    0.000000
         Rot=    0.999944   -0.004358    0.002403   -0.009370 Ang=  -1.22 deg.
 ExpMin= 2.53D-02 ExpMax= 1.06D+07 ExpMxC= 1.21D+04 IAcc=3 IRadAn=         5 AccDes= 0.00D+00
 Harris functional with IExCor=  402 and IRadAn=       5 diagonalized for initial guess.
 HarFok:  IExCor=  402 AccDes= 0.00D+00 IRadAn=         5 IDoV= 1 UseB2=F ITyADJ=14
 ICtDFT=  3500011 ScaDFX=  1.000000  1.000000  1.000000  1.000000
 FoFCou: FMM=F IPFlag=           0 FMFlag=      100000 FMFlg1=           0
         NFxFlg=           0 DoJE=T BraDBF=F KetDBF=T FulRan=T
         wScrn=  0.000000 ICntrl=     500 IOpCl=  0 I1Cent=   200000004 NGrid=           0
         NMat0=    1 NMatS0=      1 NMatT0=    0 NMatD0=    1 NMtDS0=    0 NMtDT0=    0
 Petite list used in FoFCou.
 CoulSu:  requested number of processors reduced to:   7 ShMem   1 Linda.
 CoulSu:  requested number of processors reduced to:   7 ShMem   1 Linda.
 Requested convergence on RMS density matrix=1.00D-08 within 128 cycles.
 Requested convergence on MAX density matrix=1.00D-06.
 Requested convergence on             energy=1.00D-06.
 No special actions if energy rises.
 SCF Done:  E(RB3LYP) =  -2959.05524346     A.U. after   10 cycles
            NFock= 10  Conv=0.75D-08     -V/T= 2.0021
 PrsmSu:  requested number of processors reduced to:   1 ShMem   1 Linda.
 PrsmSu:  requested number of processors reduced to:   3 ShMem   1 Linda.
 Calling FoFJK, ICntrl=      2127 FMM=F ISym2X=0 I1Cent= 0 IOpClX= 0 NMat=1 NMatS=1 NMatT=0.
 CoulSu:  requested number of processors reduced to:   3 ShMem   1 Linda.
 ***** Axes restored to original set *****
 -------------------------------------------------------------------
 Center     Atomic                   Forces (Hartrees/Bohr)
 Number     Number              X              Y              Z
 -------------------------------------------------------------------
      1        6          -0.006311821   -0.011261755   -0.034534153
      2        8          -0.003823569   -0.010464288    0.030665319
      3        8          -0.007947690    0.011152644   -0.007760175
      4        8           0.007256126    0.027234401   -0.002639843
      5        6           0.013729108   -0.009785022   -0.004871064
      6        1          -0.002416421   -0.001395661   -0.000387475
      7        1          -0.004410118    0.002155334    0.005050340
      8        1          -0.002227619    0.004564672   -0.002631507
      9        1          -0.004487609   -0.020992655    0.022478492
     10        1          -0.001522942    0.010392681   -0.016473259
     11        6           0.009508477    0.010249320    0.006417140
     12        1          -0.006894529   -0.001240182   -0.004192566
     13        1          -0.003985271   -0.004588222    0.004265531
     14        1          -0.000215808   -0.003983977   -0.001681959
     15        6           0.009170623   -0.002735948   -0.001114950
     16        1          -0.005369060   -0.000268908    0.000608327
     17        1           0.000503466    0.002714920    0.003574227
     18        1          -0.000785747    0.000757311   -0.002753420
     19       35           0.010230404   -0.002504663    0.005980995
 -------------------------------------------------------------------
 Cartesian Forces:  Max     0.034534153 RMS     0.010168778

 GradGradGradGradGradGradGradGradGradGradGradGradGradGradGradGradGradGrad
 Berny optimization.
 FormGI is forming the generalized inverse of G from B-inverse, IUseBI=4.
 GSVD:  received Info=                   1 from GESDD.
 Internal  Forces:  Max     0.031087269 RMS     0.009232486
 Search for a saddle point.
 Step number   2 out of a maximum of   79
 All quantities printed in internal units (Hartrees-Bohrs-Radians)
 Swapping is turned off.
 Update second derivatives using D2CorX and points    1    2
 ITU=  0  0
     Eigenvalues ---   -0.07639  -0.00483   0.00107   0.00142   0.00367
     Eigenvalues ---    0.00455   0.00736   0.02787   0.03721   0.04174
     Eigenvalues ---    0.04772   0.05413   0.05572   0.06217   0.06383
     Eigenvalues ---    0.07163   0.08207   0.08330   0.08470   0.08678
     Eigenvalues ---    0.09713   0.11788   0.12860   0.13147   0.13500
     Eigenvalues ---    0.13999   0.15670   0.17462   0.18020   0.18241
     Eigenvalues ---    0.18499   0.18612   0.20160   0.24020   0.30089
     Eigenvalues ---    0.30552   0.31149   0.31377   0.31899   0.31965
     Eigenvalues ---    0.32201   0.32451   0.32533   0.32790   0.34248
     Eigenvalues ---    0.34709   0.38900   0.56480   1.11009   2.57646
     Eigenvalues ---    4.28761
 Eigenvectors required to have negative eigenvalues:
                          R9        R8        R5        R4        R1
   1                    0.53796  -0.48313   0.47255  -0.43872   0.10718
                          A1        D1        D5        D7        D3
   1                   -0.10093   0.09566  -0.06127   0.05948  -0.05708
 RFO step:  Lambda0=2.704570094D-03 Lambda=-2.41869550D-02.
 Linear search not attempted -- option 19 set.
 Maximum step size (   0.300) exceeded in Quadratic search.
    -- Step size scaled by   0.288
 Iteration  1 RMS(Cart)=  0.03082249 RMS(Int)=  0.00090212
 Iteration  2 RMS(Cart)=  0.00131124 RMS(Int)=  0.00006189
 Iteration  3 RMS(Cart)=  0.00000491 RMS(Int)=  0.00006187
 Iteration  4 RMS(Cart)=  0.00000000 RMS(Int)=  0.00006187
 Variable       Old X    -DE/DX   Delta X   Delta X   Delta X     New X
                                 (Linear)    (Quad)   (Total)
    R1        2.37912   0.01396   0.00000  -0.00322  -0.00322   2.37591
    R2        2.82974   0.00002   0.00000   0.00609   0.00609   2.83584
    R3        3.98283   0.00579   0.00000   0.04956   0.04956   4.03239
    R4        2.39666  -0.01686   0.00000   0.13237   0.13237   2.52903
    R5        2.53944   0.00765   0.00000   0.10199   0.10199   2.64143
    R6        2.73567  -0.00169   0.00000  -0.00965  -0.00965   2.72602
    R7        2.74592  -0.00553   0.00000   0.00403   0.00403   2.74994
    R8        2.26203  -0.01877   0.00000  -0.12330  -0.12330   2.13873
    R9        2.34305  -0.01432   0.00000  -0.19703  -0.19703   2.14602
   R10        2.06314  -0.00094   0.00000  -0.00368  -0.00368   2.05946
   R11        2.06541  -0.00305   0.00000  -0.00533  -0.00533   2.06007
   R12        2.06731  -0.00421   0.00000  -0.00584  -0.00584   2.06147
   R13        2.07879  -0.00763   0.00000  -0.00716  -0.00716   2.07163
   R14        2.07220  -0.00669   0.00000  -0.00537  -0.00537   2.06682
   R15        2.07415  -0.00347   0.00000  -0.00270  -0.00270   2.07146
   R16        2.06713  -0.00353   0.00000  -0.00176  -0.00176   2.06537
   R17        2.06500  -0.00361   0.00000  -0.00179  -0.00179   2.06321
   R18        2.06595  -0.00175   0.00000   0.00023   0.00023   2.06617
    A1        2.13378  -0.01215   0.00000  -0.00347  -0.00367   2.13010
    A2        1.98051   0.00374   0.00000  -0.00751  -0.00782   1.97269
    A3        1.88000  -0.00303   0.00000  -0.01796  -0.01819   1.86181
    A4        1.91200  -0.03065   0.00000  -0.03643  -0.03643   1.87557
    A5        1.89401   0.00381   0.00000   0.02031   0.02031   1.91432
    A6        1.93233  -0.00922   0.00000   0.00745   0.00744   1.93977
    A7        1.92040   0.00290   0.00000  -0.00313  -0.00323   1.91717
    A8        1.50797   0.00381   0.00000   0.02308   0.02305   1.53102
    A9        1.93385   0.00132   0.00000  -0.00519  -0.00519   1.92866
   A10        1.85111   0.00862   0.00000   0.00364   0.00364   1.85476
   A11        1.86326   0.00418   0.00000  -0.00046  -0.00047   1.86280
   A12        1.95113  -0.00501   0.00000  -0.00012  -0.00012   1.95101
   A13        1.93659  -0.00379   0.00000   0.00116   0.00116   1.93774
   A14        1.92410  -0.00439   0.00000   0.00101   0.00101   1.92512
   A15        2.65396   0.02050   0.00000  -0.00466  -0.00466   2.64930
   A16        2.58132  -0.00203   0.00000   0.04179   0.04179   2.62312
   A17        1.91723  -0.00282   0.00000  -0.00592  -0.00594   1.91129
   A18        1.96067  -0.00335   0.00000  -0.00262  -0.00263   1.95804
   A19        1.93483  -0.00226   0.00000  -0.00797  -0.00799   1.92684
   A20        1.87243   0.00325   0.00000   0.00698   0.00698   1.87941
   A21        1.86833   0.00268   0.00000   0.00541   0.00538   1.87371
   A22        1.90706   0.00298   0.00000   0.00501   0.00500   1.91206
   A23        1.88164   0.00592   0.00000   0.01297   0.01292   1.89456
   A24        1.85055   0.00229   0.00000   0.00596   0.00593   1.85648
   A25        1.93462   0.00137   0.00000   0.00499   0.00495   1.93958
   A26        1.91446  -0.00265   0.00000  -0.00612  -0.00617   1.90829
   A27        1.93294  -0.00276   0.00000  -0.00782  -0.00786   1.92508
   A28        1.94682  -0.00365   0.00000  -0.00873  -0.00875   1.93808
    D1        3.02575  -0.01207   0.00000  -0.02315  -0.02316   3.00259
    D2       -0.95728  -0.02637   0.00000  -0.06598  -0.06597  -1.02325
    D3        1.27472  -0.00563   0.00000  -0.02759  -0.02751   1.24721
    D4       -2.92581  -0.00560   0.00000  -0.02448  -0.02442  -2.95022
    D5       -0.78659  -0.00579   0.00000  -0.02568  -0.02562  -0.81220
    D6       -1.06603   0.00488   0.00000   0.00933   0.00928  -1.05676
    D7        1.01662   0.00491   0.00000   0.01244   0.01237   1.02900
    D8       -3.12734   0.00472   0.00000   0.01124   0.01117  -3.11617
    D9       -0.71332  -0.03109   0.00000   0.02312   0.02312  -0.69020
   D10       -1.91017   0.00228   0.00000   0.03150   0.03150  -1.87866
   D11       -3.02957  -0.00001   0.00000  -0.00464  -0.00464  -3.03422
   D12       -0.98021   0.00099   0.00000  -0.00232  -0.00230  -0.98250
   D13        1.13538  -0.00124   0.00000  -0.00637  -0.00639   1.12899
   D14       -0.93108  -0.00140   0.00000  -0.01408  -0.01408  -0.94516
   D15        1.18963  -0.00136   0.00000  -0.01493  -0.01493   1.17471
   D16       -3.04170  -0.00016   0.00000  -0.01220  -0.01220  -3.05390
   D17        0.70618   0.00050   0.00000   0.01383   0.01383   0.72001
   D18        2.82690   0.00055   0.00000   0.01298   0.01298   2.83987
   D19       -1.40444   0.00174   0.00000   0.01571   0.01571  -1.38874
   D20        1.98596  -0.00131   0.00000  -0.02657  -0.02647   1.95949
   D21        0.06492  -0.00521   0.00000  -0.03251  -0.03260   0.03231
   D22       -1.73674  -0.01270   0.00000  -0.00469  -0.00469  -1.74143
   D23        0.19621  -0.02094   0.00000   0.01148   0.01148   0.20769
         Item               Value     Threshold  Converged?
 Maximum Force            0.031087     0.000450     NO 
 RMS     Force            0.009232     0.000300     NO 
 Maximum Displacement     0.146032     0.001800     NO 
 RMS     Displacement     0.031294     0.001200     NO 
 Predicted change in Energy=-7.310823D-03
 GradGradGradGradGradGradGradGradGradGradGradGradGradGradGradGradGradGrad

                          Input orientation:                          
 ---------------------------------------------------------------------
 Center     Atomic      Atomic             Coordinates (Angstroms)
 Number     Number       Type             X           Y           Z
 ---------------------------------------------------------------------
      1          6           0        0.303298    0.696257    0.524958
      2          8           0       -0.468578    0.275396    1.423750
      3          8           0       -0.501286    0.738949   -0.820798
      4          8           0       -1.745059   -1.195679    0.035449
      5          6           0       -3.175822   -1.009047    0.224429
      6          1           0       -3.383663   -0.007969    0.601718
      7          1           0       -3.637089   -1.178503   -0.748674
      8          1           0       -3.500672   -1.770358    0.934994
      9          1           0       -1.310725   -0.383107   -0.621802
     10          1           0       -1.177930   -0.733417    0.903965
     11          6           0        1.125228    1.939658    0.699221
     12          1           0        1.929957    1.748704    1.418756
     13          1           0        1.587248    2.264020   -0.237551
     14          1           0        0.509620    2.750893    1.104820
     15          6           0       -1.326874    1.909512   -0.991470
     16          1           0       -0.683800    2.753235   -1.254372
     17          1           0       -1.998525    1.693492   -1.824688
     18          1           0       -1.889788    2.131006   -0.080683
     19         35           0        1.620820   -0.809714   -0.216324
 ---------------------------------------------------------------------
                    Distance matrix (angstroms):
                    1          2          3          4          5
     1  C    0.000000
     2  O    1.257275   0.000000
     3  O    1.568514   2.292149   0.000000
     4  O    2.831043   2.391829   2.454163   0.000000
     5  C    3.886213   3.227590   3.361716   1.455207   0.000000
     6  H    3.754398   3.041998   3.299930   2.101509   1.089817
     7  H    4.545713   4.107640   3.676287   2.048151   1.090143
     8  H    4.552197   3.690202   4.286694   2.054657   1.090882
     9  H    2.255029   2.308055   1.397785   1.131767   2.141610
    10  H    2.093239   1.338305   2.366541   1.135624   2.128219
    11  C    1.500661   2.415559   2.529369   4.302264   5.236346
    12  H    2.133669   2.814895   3.456320   4.908022   5.924575
    13  H    2.165140   3.307713   2.651036   4.811270   5.797692
    14  H    2.144840   2.680797   2.962745   4.669322   5.338045
    15  C    2.535548   3.039785   1.442548   3.297219   3.662650
    16  H    2.893361   3.654907   2.068489   4.287637   4.748872
    17  H    3.437106   3.860580   2.039772   3.445528   3.590073
    18  H    2.689782   2.779648   2.100841   3.331857   3.406892
    19  Br   2.133849   2.869301   2.695752   3.397278   4.820972
                    6          7          8          9         10
     6  H    0.000000
     7  H    1.804974   0.000000
     8  H    1.797436   1.789871   0.000000
     9  H    2.436145   2.461853   3.023896   0.000000
    10  H    2.341557   2.996127   2.543883   1.571087   0.000000
    11  C    4.912520   5.873584   5.934539   3.615827   3.534372
    12  H    5.655795   6.652691   6.489188   4.382981   4.010598
    13  H    5.529581   6.277412   6.598333   3.943752   4.234843
    14  H    4.798134   6.005896   6.045907   4.014578   3.876672
    15  C    3.231929   3.864179   4.688081   2.322288   3.255754
    16  H    4.284691   4.943299   5.761161   3.260341   4.130293
    17  H    3.271241   3.477219   4.676595   2.496450   3.742834
    18  H    2.696767   3.801595   4.341335   2.636075   3.111462
    19  Br   5.133891   5.297642   5.336483   2.990044   3.015604
                   11         12         13         14         15
    11  C    0.000000
    12  H    1.096258   0.000000
    13  H    1.093717   1.768149   0.000000
    14  H    1.096168   1.766436   1.788934   0.000000
    15  C    2.978615   4.054873   3.030871   2.911196   0.000000
    16  H    2.784065   3.871230   2.535925   2.643870   1.092945
    17  H    4.023499   5.094698   3.962609   3.998863   1.091802
    18  H    3.120125   4.121277   3.483113   2.747150   1.093373
    19  Br   2.939878   3.051976   3.073991   3.957033   4.084598
                   16         17         18         19
    16  H    0.000000
    17  H    1.782362   0.000000
    18  H    1.794191   1.801331   0.000000
    19  Br   4.368457   4.685352   4.581549   0.000000
 Stoichiometry    C4H11BrO3
 Framework group  C1[X(C4H11BrO3)]
 Deg. of freedom    51
 Full point group                 C1      NOp   1
 Largest Abelian subgroup         C1      NOp   1
 Largest concise Abelian subgroup C1      NOp   1
[...]
 961225,-0.04065789,-0.03501724,-0.02387246,-0.01020694,-0.04791057,0.0
 0777252,0.44819082,0.01116779,-0.01137290,0.00918693,-0.01481197,0.004
 25153,-0.01508046,-0.05453966,-0.06498041,0.00488990,0.07190975,0.2170
 5860,0.00229305,0.01703794,-0.04078554,-0.05504758,-0.04046598,-0.0031
 0239,0.02684386,0.02538296,0.01785193,0.04008586,-0.01461945,0.2965652
 1,-0.00466696,-0.00087751,0.00231792,0.00863006,0.00512861,0.00142452,
 0.00775848,0.01204001,-0.00032702,-0.19584563,-0.00125548,0.01758028,0
 .44349658,0.00020454,-0.00086547,0.00181218,0.00077128,0.00092454,-0.0
 0133021,-0.00196152,-0.00802086,0.00000563,0.00730299,-0.07329132,0.00
 997344,-0.00079751,0.59044613,0.00118018,0.00196862,-0.00456200,-0.006
 29570,-0.00682379,-0.00380881,0.00036875,0.00106648,0.00127998,0.03405
 930,0.01112335,-0.09570851,0.03969418,-0.00761076,0.59480016,0.0009135
 5,-0.00045529,0.00082548,-0.00037705,0.00009017,-0.00069747,-0.0021514
 2,-0.00429395,-0.00022001,-0.02458643,-0.03627541,0.02279323,-0.052932
 61,-0.03305473,0.01435911,0.07014290,0.00033062,-0.00014705,0.00023196
 ,-0.00021352,-0.00003957,-0.00031592,-0.00008914,0.00020602,-0.0002091
 7,-0.00348215,0.00568425,-0.00152476,-0.04227849,-0.26097142,0.1053284
 0,0.04714403,0.27385499,-0.00036866,0.00004224,0.00008513,0.00028750,0
 .00029159,-0.00004111,0.00053485,0.00108847,-0.00009811,0.00647369,0.0
 0620616,-0.00145237,0.02014274,0.10312539,-0.10430187,-0.02671960,-0.1
 1454172,0.10576975,-0.00024186,0.00011826,0.00063171,0.00003314,-0.000
 61637,-0.00079113,-0.00078397,-0.00145686,-0.00021695,-0.02801791,0.02
 392822,0.02463666,-0.06068421,0.03764858,0.02836207,0.00336624,-0.0030
 2611,-0.00416782,0.07566432,-0.00020808,0.00008598,-0.00025550,0.00045
 118,0.00017041,0.00068301,0.00068663,0.00077171,-0.00016788,0.00215401
 ,0.00820966,0.00330129,0.04313329,-0.20614111,-0.11916779,0.00510045,-
 0.01961328,-0.01810761,-0.04911291,0.21454446,0.00004786,-0.00065195,0
 .00098111,0.00112138,0.00087639,-0.00005938,-0.00003878,0.00106496,-0.
 00036836,0.00843274,-0.00174509,-0.00068918,0.03293557,-0.11809026,-0.
 14655959,-0.00409887,0.01116226,0.01051001,-0.04256582,0.13126847,0.15
 144789,0.00086154,0.00096442,-0.00214730,-0.00286337,-0.00288521,-0.00
 115146,-0.00007742,-0.00086871,0.00053602,-0.03515000,0.00079210,-0.03
 109771,-0.10499805,0.00712546,-0.10550531,0.00499717,0.00085126,0.0047
 8948,0.00604473,-0.00153549,0.00578004,0.13043266,-0.00008571,0.000282
 34,-0.00034946,-0.00004533,-0.00014343,0.00017508,0.00023368,-0.000087
 32,0.00030854,-0.00148530,0.00197762,-0.00130118,0.00894437,-0.0534003
 3,0.01482269,0.01426254,0.00021149,0.02513852,-0.01255394,0.00307467,-
 0.02209733,-0.00840575,0.04825450,0.00013087,0.00002127,0.00008672,0.0
 0029531,0.00041777,0.00050038,-0.00021905,-0.00038966,-0.00005407,0.00
 713476,-0.00160030,0.01393934,-0.11735774,0.01523398,-0.26072192,-0.00
 565109,-0.00033153,-0.01081085,-0.00801787,0.00244983,-0.01443387,0.12
 224850,-0.01620164,0.27187839,-0.01858852,0.00618060,-0.02605469,-0.01
 092365,-0.01349179,0.00588074,-0.02370426,0.01668356,0.00333861,-0.039
 35080,0.02490616,-0.02142265,-0.01694331,-0.01385130,0.00893671,0.0001
 9527,0.00094679,-0.00063832,0.00215390,-0.00063990,-0.00026053,0.00109
 156,-0.00057484,-0.00007375,0.06842435,-0.01895018,0.03379894,-0.03841
 376,-0.01735710,-0.02343776,0.00854955,0.04136565,0.00667084,0.0142480
 3,0.00876987,-0.05940665,0.00715995,-0.01882574,0.01443237,-0.00655031
 ,0.00816379,0.00091701,-0.00225279,0.00380747,-0.00067440,-0.00176418,
 0.00126504,-0.00014098,0.00075636,-0.04640350,0.04049200,-0.01152556,-
 0.01674729,0.01061499,0.00873362,0.00641672,-0.00230115,-0.00506512,-0
 .00122301,-0.03155960,-0.00200538,0.01393406,-0.03747763,0.00728363,-0
 .00134363,-0.00246291,-0.00163464,-0.00056270,0.00064260,-0.00052219,0
 .00088830,0.00013128,-0.00127839,-0.00056325,0.00029058,0.01780366,-0.
 02002304,0.09184982,-0.01851377,-0.02561766,0.04321375,0.01910687,0.03
 616767,-0.00235349,-0.01710794,-0.00715448,-0.00904477,-0.07412006,-0.
 01627739,-0.02754632,-0.02754370,-0.00252510,-0.01480692,0.00131880,-0
 .00007617,-0.00066198,0.00279814,0.00006791,-0.00162742,0.00017148,-0.
 00031346,0.00163256,0.02397575,0.02675140,-0.00652310,0.08291089,-0.01
 638784,-0.01742318,0.02437968,0.02313004,0.00237768,-0.00058715,-0.008
 67375,-0.00177283,-0.00793538,-0.00680604,-0.03555544,-0.00317512,-0.0
 0266769,-0.00210436,0.00454981,-0.00076754,0.00002490,-0.00079214,0.00
 145540,0.00000099,0.00006393,0.00251429,-0.00000549,-0.00037411,0.0157
 1346,0.00756320,0.02181502,-0.01064615,0.04814429,-0.00284920,-0.00891
 094,0.04774382,0.02956890,0.02826094,-0.03115276,-0.01445489,-0.005808
 60,-0.00949279,-0.06448937,-0.01123779,-0.15905436,-0.00286652,-0.0015
 9454,0.02082265,0.00113672,0.00076667,-0.00022776,0.00280749,-0.001033
 76,-0.00082716,0.00725252,0.00005970,-0.00061797,0.00798392,0.03184401
 ,-0.02476093,0.02989121,-0.03253523,0.17015799,-0.09700639,-0.04808609
 ,-0.01787650,-0.01220133,-0.02761458,0.00517922,-0.02036327,-0.0124581
 4,-0.01789015,-0.00187462,-0.00198964,-0.00017443,0.00062054,-0.000062
 22,-0.00020600,-0.00012726,-0.00003688,0.00005660,-0.00000802,0.000022
 06,-0.00001479,-0.00011241,0.00004039,-0.00000160,0.00100260,0.0045469
 6,-0.00192695,0.00247646,0.00044982,0.00215430,0.54230816,-0.06232806,
 -0.14609742,-0.02793862,-0.02287243,-0.02130320,0.00410991,0.01210508,
 0.00816021,0.00871474,-0.00100025,0.00165601,-0.00363073,0.00006126,0.
 00017961,-0.00015871,0.00009910,0.00001204,-0.00001048,0.00000029,-0.0
 0002550,0.00007423,-0.00009691,-0.00003142,-0.00001078,-0.00130141,-0.
 00456248,0.00219702,0.00321760,0.00191196,0.00360449,-0.03773192,0.505
 23578,-0.02362484,-0.02686662,-0.07871452,0.02595293,0.03002966,0.0072
 6118,-0.01920110,-0.01198287,-0.01123338,0.00254020,-0.00149444,0.0052
 9338,-0.00023770,-0.00007140,0.00044913,-0.00005979,-0.00002806,-0.000
 01964,0.00000182,0.00001798,-0.00010757,0.00023155,0.00003220,-0.00003
 399,0.00153792,0.00488359,-0.00245632,-0.00478851,-0.00169849,-0.00591
 202,-0.02540009,-0.04697717,0.57379392,-0.01583792,0.00731320,-0.01041
 476,0.00213041,-0.00047756,0.00118332,-0.00195246,-0.00229637,-0.00129
 622,0.00014148,-0.00042874,0.00069691,0.00005459,-0.00002692,0.0000573
 3,-0.00003170,-0.00001095,0.00000328,-0.00000131,0.00001069,-0.0000182
 1,0.00001983,0.00000842,0.00000130,0.00047653,0.00127434,-0.00055315,-
 0.00051858,-0.00033446,-0.00048663,-0.20180744,0.06932054,-0.11636691,
 0.21780897,-0.01972770,0.00791257,-0.01400777,0.00200410,0.00025343,0.
 00005623,-0.00602739,-0.00296576,-0.00391314,0.00005905,-0.00064414,0.
 00078360,0.00011125,-0.00002255,-0.00000163,-0.00003569,-0.00000227,0.
 00000887,-0.00001320,0.00000693,-0.00000400,0.00000602,0.00000787,-0.0
 0000273,0.00033913,0.00158672,-0.00074895,-0.00046774,-0.00020838,-0.0
 0055372,0.07251931,-0.07698141,0.05530380,-0.07563920,0.08365162,-0.00
 804000,0.00295493,-0.00691388,0.00172507,0.00092652,0.00000862,-0.0026
 2869,-0.00219283,-0.00045398,0.00002722,-0.00052594,0.00052245,0.00003
 174,-0.00004317,0.00002889,-0.00002818,-0.00000021,0.00000825,-0.00000
 239,0.00000367,-0.00001182,0.00001380,0.00000732,-0.00000085,0.0003370
 5,0.00127221,-0.00041373,-0.00041062,-0.00026973,-0.00034925,-0.115656
 90,0.05276086,-0.12950218,0.12752588,-0.05579826,0.13860277,-0.0076760
 5,-0.00633233,0.01748947,-0.00216658,-0.00523680,-0.00159865,0.0006361
 0,0.00159103,-0.00052011,-0.00041023,0.00051432,-0.00099893,0.00006246
 ,0.00005612,-0.00011469,0.00001976,0.00000996,0.00000446,-0.00000683,-
 0.00000933,0.00003358,-0.00005577,-0.00001402,0.00000211,-0.00047383,-
 0.00113340,0.00033837,0.00120077,0.00024632,0.00118003,-0.08275217,-0.
 04808828,0.07851754,0.01105526,0.01212387,-0.01915641,0.08775385,-0.00
 653939,-0.01064563,0.02502803,-0.00577063,-0.00509454,-0.00218993,0.00
 130491,0.00102070,-0.00059384,-0.00077048,0.00014293,-0.00140680,0.000
 18722,0.00002367,-0.00013794,0.00000405,-0.00000085,0.00001076,-0.0000
 0202,0.00000253,0.00002982,-0.00007162,0.00000093,0.00001166,-0.000343
 80,-0.00081369,0.00031742,0.00129135,0.00081573,0.00173435,-0.04719439
 ,-0.10947435,0.10016734,-0.00396239,-0.00525737,0.00731024,0.05420324,
 0.11732335,-0.00340477,-0.00556477,0.00695625,-0.00233515,-0.00214540,
 0.00122832,0.00049467,0.00013288,0.00069851,0.00003036,0.00005272,-0.0
 0017030,0.00000907,0.00000594,0.00004406,0.00000215,-0.00000198,-0.000
 00104,-0.00000152,-0.00000539,-0.00000615,0.00001086,0.00000499,-0.000
 00530,0.00000819,-0.00006578,0.00008231,-0.00006473,-0.00002892,0.0002
 5478,0.08207172,0.10662491,-0.22302759,0.00726531,0.00731430,-0.013041
 20,-0.08718126,-0.11306610,0.23829292,0.00839523,-0.01123644,-0.008772
 56,0.00083240,0.00153883,-0.00101188,0.00077113,0.00088686,0.00121137,
 0.00022363,0.00019578,-0.00000144,-0.00006634,0.00000092,0.00000206,0.
 00001664,0.00001044,-0.00000238,-0.00000209,-0.00000774,0.00000456,0.0
 0001045,-0.00000169,0.00000044,-0.00019074,-0.00041405,0.00017345,-0.0
 0014594,0.00002396,-0.00013390,-0.12732224,0.08671125,0.08164966,-0.01
 273807,0.01406740,0.01482556,-0.00648185,0.00687115,0.00404151,0.13744
 406,0.01583064,-0.01799134,-0.01456846,-0.00078168,0.00302121,0.001405
 65,0.00001107,0.00065298,0.00075245,0.00016352,0.00011660,0.00017770,0
 .00009230,-0.00001380,-0.00000202,-0.00000286,0.00000410,-0.00000218,-
 0.00004138,0.00001055,0.00001730,0.00000879,0.00000050,-0.00000013,0.0
 0000120,-0.00027425,-0.00005013,-0.00032843,-0.00009441,-0.00028119,0.
 08606124,-0.14519495,-0.08702087,0.00523494,-0.00653865,-0.00580843,-0
 .00892280,0.01164418,0.00779434,-0.09714001,0.15698922,0.00587149,-0.0
 0741024,-0.00740910,-0.00032140,0.00190534,0.00068389,-0.00057347,0.00
 094481,0.00024621,0.00009502,0.00022047,-0.00006578,0.00001677,0.00000
 137,-0.00002802,0.00000827,0.00001850,0.00000083,-0.00002908,-0.000003
 81,0.00003428,-0.00000379,-0.00001175,-0.00000613,-0.00022563,-0.00047
 049,0.00006140,-0.00002402,-0.00011900,-0.00006338,0.08144383,-0.08737
 918,-0.12673316,-0.00901305,0.01129662,0.01126972,0.01224990,-0.016172
 35,-0.01159686,-0.08876478,0.09939651,0.13425801,-0.01895357,0.0170561
 4,-0.00248643,0.00175096,-0.00250374,0.00431102,-0.10486274,0.04468642
 ,0.00004774,-0.00838337,-0.00998533,0.00490265,0.00294702,-0.00151689,
 0.00006533,-0.00092783,0.00004235,0.00023054,-0.00042504,0.00009711,0.
 00036253,-0.00027650,-0.00008344,-0.00013133,0.01770339,0.01055149,-0.
 00484767,-0.00066760,0.00046185,-0.00132603,0.00000216,-0.00131278,-0.
 00129073,0.00058286,0.00085066,0.00073819,-0.00071544,-0.00002445,-0.0
 0025178,-0.00103004,0.00035853,-0.00007489,0.53655326,0.02286714,-0.01
 517212,0.02071989,-0.00029736,0.00507819,-0.00760609,0.04248185,-0.153
 76661,-0.03000248,0.00281126,0.00800505,-0.00125435,-0.00399618,-0.000
 36169,0.00132521,0.00038859,-0.00028278,-0.00024386,0.00050163,-0.0003
 3567,-0.00057529,0.00036044,0.00009296,0.00010015,0.00437670,-0.020826
 59,-0.00250851,-0.00073827,-0.00164988,-0.00027132,-0.00255079,0.00262
 127,-0.00082514,-0.00073564,-0.00179675,-0.00067932,-0.00064641,0.0005
 2757,0.00034206,0.00067668,0.00008830,-0.00100006,0.07871021,0.4826659
 0,-0.00095317,0.01062610,0.01662968,0.00191400,0.00295024,-0.00741099,
 0.00401025,-0.03668355,-0.08753549,0.00171108,0.00118626,0.00048002,-0
 .00084940,0.00052992,0.00081954,0.00007856,-0.00011983,-0.00022300,0.0
 0041268,0.00003363,-0.00019231,0.00002687,-0.00022510,-0.00015218,0.00
 015573,-0.00092459,-0.00054588,-0.00161038,-0.00040350,-0.00087464,-0.
 00185544,0.00076403,-0.00133166,0.00010197,0.00019369,-0.00007160,0.00
 032790,-0.00019135,-0.00016106,-0.00153389,-0.00009254,-0.00025741,0.0
 2973524,-0.02262467,0.57870666,0.00118443,0.00038563,0.00041629,-0.000
 09878,-0.00005882,-0.00053852,0.01390394,0.02497054,-0.00041329,0.0014
 3308,0.00166191,-0.00081913,-0.00048188,0.00031405,0.00009800,0.000195
 60,-0.00006904,-0.00005882,0.00011386,-0.00003802,-0.00019253,0.000058
 22,0.00005233,0.00004095,-0.00296600,-0.00104217,0.00076970,0.00004037
 ,-0.00000018,0.00018491,-0.00044046,0.00035502,-0.00130783,-0.00006425
 ,0.00024592,0.00028339,-0.00048049,-0.00003991,-0.00007040,-0.00057274
 ,0.00022858,0.00003090,-0.14978583,-0.13386773,0.01684110,0.15656602,-
 0.00384398,0.00008016,-0.00294648,0.00077240,0.00007485,0.00122032,-0.
 00544761,-0.03780233,-0.00174592,-0.00236229,-0.00277372,0.00154760,0.
 00068980,-0.00048505,0.00011961,-0.00027756,-0.00000704,0.00004482,-0.
 00008384,0.00001640,0.00006389,-0.00005154,-0.00000066,-0.00002623,0.0
 0538418,0.00462819,-0.00113275,-0.00045318,0.00008867,-0.00063944,-0.0
 0004710,0.00002167,0.00009711,0.00004203,0.00050354,0.00000419,0.00048
 088,-0.00001901,-0.00025604,-0.00020972,0.00026790,0.00047298,-0.12543
 685,-0.20753791,0.02281788,0.13326671,0.23889275,0.00073543,0.00141994
 ,-0.00031497,-0.00069323,-0.00016155,0.00017809,-0.00444523,-0.0095748
 1,0.00258772,-0.00075046,-0.00070697,0.00015257,0.00028051,-0.00023936
 ,-0.00020234,-0.00006504,0.00005846,0.00010451,-0.00014503,0.00001549,
 0.00009551,0.00000920,0.00005778,0.00004046,0.00136019,0.00086050,-0.0
 0030811,0.00012482,-0.00005122,-0.00005511,-0.00025445,0.00006883,0.00
 037388,0.00014130,-0.00013159,-0.00008769,-0.00017584,0.00009595,0.000
 13154,-0.00022090,0.00010695,-0.00076619,0.01779729,0.02293500,-0.0543
 4683,-0.01846415,-0.02015937,0.05083694,0.00206787,-0.00143519,0.00522
 659,0.00078781,0.00091657,-0.00140234,-0.01829487,0.01161482,-0.012128
 75,0.00061762,0.00081277,-0.00002549,-0.00026365,0.00001443,0.00003879
 ,0.00004010,-0.00001106,0.00000797,0.00006137,-0.00003067,-0.00000885,
 0.00008759,0.00000813,-0.00000067,-0.00063820,-0.00097369,0.00000252,-
 0.00044552,-0.00028514,-0.00033107,0.00000290,0.00028935,-0.00003242,0
 .00000944,0.00006447,0.00000264,0.00010883,-0.00008334,-0.00011733,-0.
 00013922,-0.00009018,0.00007182,-0.18468204,0.00139521,-0.12995912,-0.
 01289196,-0.00037490,-0.01400987,0.20291556,-0.00200228,-0.00015784,-0
 .00711960,-0.00096316,-0.00112926,0.00209115,0.03276032,-0.01223418,0.
 02280858,-0.00076763,-0.00029093,-0.00069547,0.00023962,-0.00004574,-0
 .00000222,-0.00007605,0.00006274,-0.00001231,-0.00002727,-0.00002122,0
 .00015482,-0.00011457,-0.00012116,-0.00007290,0.00084297,0.00032361,0.
 00083785,0.00098838,0.00057734,0.00076616,-0.00011258,-0.00032433,-0.0
 0024709,-0.00001676,0.00044894,0.00019299,0.00023179,-0.00009043,-0.00
 016474,-0.00022420,0.00025213,0.00048672,-0.00378425,-0.04661628,0.000
 39155,-0.01766007,0.00295231,-0.01812023,-0.01135508,0.05621145,0.0006
 1337,-0.00017892,-0.00149518,-0.00043646,-0.00029440,0.00102920,0.0083
 7802,-0.00027497,0.00899110,0.00060367,0.00056280,-0.00015411,-0.00037
 582,0.00008570,0.00019396,0.00010782,-0.00009814,-0.00003062,0.0000165
 2,-0.00003365,-0.00027053,0.00005037,0.00011523,0.00008313,-0.00086288
 ,-0.00043111,0.00051550,-0.00020265,-0.00012176,-0.00020895,0.00014327
 ,-0.00027544,-0.00023379,-0.00006037,0.00010579,0.00011005,-0.00004098
 ,0.00006439,0.00005373,-0.00000440,0.00030988,0.00025318,-0.13456712,0
 .00521153,-0.17783366,0.00351036,-0.00039894,0.00327178,0.14415931,-0.
 00389489,0.18385804,0.00062210,-0.00079792,0.00466476,0.00071183,-0.00
 008967,-0.00156119,-0.01101194,0.01221312,0.01707643,0.00029282,0.0010
 6539,-0.00055886,-0.00015464,-0.00004810,-0.00014523,0.00004206,0.0000
 1855,-0.00000725,-0.00000258,-0.00013322,0.00004603,-0.00000155,0.0000
 0533,0.00000822,-0.00120163,-0.00224721,0.00005080,0.00043001,0.000230
 10,0.00056007,-0.00041609,0.00026778,0.00029921,0.00010347,-0.00016859
 ,-0.00022289,0.00018375,0.00001406,-0.00007047,-0.00050061,-0.00030040
 ,-0.00039255,-0.08662274,-0.00945065,0.08341414,-0.00585501,-0.0023086
 0,0.01881727,0.01141594,0.00098717,-0.02138463,0.09210577,-0.00039066,
 0.00246702,-0.00411782,-0.00176890,-0.00026890,0.00130987,0.01929544,-
 0.00946947,-0.03032523,-0.00068540,-0.00081383,0.00052035,0.00030425,-
 0.00030632,-0.00019698,-0.00008982,0.00005969,0.00006560,-0.00030319,-
 0.00011215,0.00010157,-0.00003535,0.00004124,0.00002770,0.00163681,0.0
 0231295,-0.00105759,0.00021388,-0.00031297,-0.00012636,0.00009875,-0.0
 0019278,0.00071161,0.00013307,0.00006167,-0.00005913,0.00005548,-0.000
 01902,-0.00007386,0.00005396,-0.00003744,-0.00012591,-0.00990427,-0.05
 251569,0.02065809,-0.00846797,0.00094527,0.02362157,-0.00104102,0.0008
 3077,-0.00028501,0.00080884,0.05743896,-0.00271941,0.00146136,-0.00264
 277,-0.00060568,-0.00120018,0.00182477,0.00640161,-0.00945618,-0.00026
 882,-0.00118462,-0.00119895,0.00021143,0.00075177,-0.00026106,-0.00049
 738,-0.00013934,0.00016174,0.00014813,-0.00021803,0.00005195,0.0003628
 2,-0.00004539,0.00000438,-0.00000713,0.00159945,0.00168116,-0.00059589
 ,0.00058364,0.00024843,0.00035159,0.00013510,-0.00024371,-0.00002235,-
 0.00001343,0.00011882,0.00012294,-0.00009314,0.00003729,0.00000715,-0.
 00019681,0.00021368,0.00020340,0.08754958,0.01595043,-0.26665172,-0.00
 028215,0.00088970,-0.00157335,0.00832884,0.00272137,-0.01813213,-0.100
 08555,-0.01112495,0.28713298,-0.00055568,-0.00779824,-0.01346402,-0.02
 063607,0.00048452,0.02900897,-0.01811616,0.02226579,0.00002943,-0.0045
 9253,-0.00139057,-0.00213998,0.00101126,0.00040590,-0.00014793,-0.0001
 1380,-0.00006048,0.00009371,-0.00006187,-0.00000799,0.00006151,-0.0002
 4017,0.00000829,-0.00004192,-0.00004239,0.00085103,0.00072640,0.004633
 56,0.00234354,0.00421756,-0.00198110,0.00230478,0.00157910,0.00056890,
 -0.00031167,0.00063554,0.00019846,0.00092643,-0.00043642,0.00149632,-0
 .00038307,-0.00036533,-0.00220691,-0.00228668,-0.00196812,0.00014190,0
 .00026119,-0.00004179,-0.00075955,0.00105365,0.00035260,-0.00014097,0.
 00008611,0.00023355,0.04139680,-0.01913153,-0.02478324,0.01089946,0.01
 052568,0.01527767,-0.01027535,0.01416406,-0.01127463,-0.00038842,0.002
 09861,0.00202708,0.00218899,-0.00023339,0.00002370,0.00034799,0.000076
 16,0.00002704,-0.00005934,-0.00022275,0.00002904,0.00005047,0.00017731
 ,-0.00001333,-0.00000874,-0.00040501,-0.00258904,-0.00044553,-0.004100
 17,-0.00237781,-0.00404342,0.01414581,-0.01561071,-0.01403115,0.000591
 76,-0.00001600,-0.00005590,0.00087037,-0.00008670,-0.00089917,-0.00180
 337,-0.00290285,-0.00205052,0.00173723,0.00178272,0.00111376,-0.000236
 80,0.00015399,-0.00009535,0.00056453,-0.00062792,-0.00016809,-0.000065
 98,-0.00010900,-0.00005528,-0.01875252,0.04106999,-0.01856984,-0.00025
 538,-0.00878589,0.03099780,0.00028401,-0.02534356,-0.00016223,-0.00110
 550,0.00645855,0.00294812,0.00084675,0.00364385,-0.00045448,-0.0001891
 5,0.00041498,0.00000268,0.00000602,-0.00006284,-0.00019114,0.00006177,
 -0.00003700,0.00028014,0.00002328,0.00002525,0.00059629,-0.00035929,-0
 .00130633,-0.00578107,-0.00296512,-0.00573375,0.01007325,-0.01229419,-
 0.00784333,0.00124614,-0.00001995,0.00017251,-0.00026336,-0.00104891,0
 .00025996,-0.00126566,-0.00234851,-0.00008489,-0.00076413,0.00100680,0
 .00095251,-0.00002878,0.00002705,-0.00011841,0.00017744,-0.00012174,-0
 .00000069,-0.00050832,0.00047649,0.00002634,-0.01833286,0.01797558,0.0
 3736274\\-0.00001773,0.00003991,0.00000293,-0.00001138,0.00000228,0.00
 001363,0.00001172,0.00000917,-0.00001970,-0.00002687,0.00005013,0.0000
 3901,0.00001382,-0.00003081,-0.00001403,0.00002264,-0.00001978,-0.0000
 0590,0.00000755,-0.00002028,-0.00000123,0.00000909,-0.00001891,-0.0000
 0418,0.00001765,-0.00002106,-0.00002140,0.00004045,-0.00005581,-0.0000
 2242,-0.00000080,0.00000624,-0.00000144,-0.00000495,0.00001681,0.00000
 111,-0.00001347,0.00001860,0.00000385,-0.00001408,0.00000733,0.0000071
 3,-0.00000595,0.00000680,0.00001692,-0.00001639,0.00000343,0.00001187,
 -0.00000976,-0.00000601,0.00000603,-0.00001044,-0.00001021,0.00000644,
 0.00000890,0.00002215,-0.00001861\\\@


0EVERYBODY IS IGNORANT, ONLY ON DIFFERENT SUBJECTS.
0          WILL ROGERS
 Job cpu time:       4 days 19 hours  9 minutes 57.5 seconds.
 File lengths (MBytes):  RWF=    471 Int=      0 D2E=      0 Chk=     29 Scr=      1
 Normal termination of Gaussian 09 at Fri Mar 27 23:23:04 2015.
