 Entering Link 1 = C:\G09W\l1.exe PID=      5812.
  
 Copyright (c) 1988,1990,1992,1993,1995,1998,2003,2009, Gaussian, Inc.
                  All Rights Reserved.
  
 This is part of the Gaussian(R) 09 program.  It is based on
 the Gaussian(R) 03 system (copyright 2003, Gaussian, Inc.),
 the Gaussian(R) 98 system (copyright 1998, Gaussian, Inc.),
 the Gaussian(R) 94 system (copyright 1995, Gaussian, Inc.),
 the Gaussian 92(TM) system (copyright 1992, Gaussian, Inc.),
 the Gaussian 90(TM) system (copyright 1990, Gaussian, Inc.),
 the Gaussian 88(TM) system (copyright 1988, Gaussian, Inc.),
 the Gaussian 86(TM) system (copyright 1986, Carnegie Mellon
 University), and the Gaussian 82(TM) system (copyright 1983,
 Carnegie Mellon University). Gaussian is a federally registered
 trademark of Gaussian, Inc.
  
 This software contains proprietary and confidential information,
 including trade secrets, belonging to Gaussian, Inc.
  
 This software is provided under written license and may be
 used, copied, transmitted, or stored only in accord with that
 written license.
  
 The following legend is applicable only to US Government
 contracts under FAR:
  
                    RESTRICTED RIGHTS LEGEND
  
 Use, reproduction and disclosure by the US Government is
 subject to restrictions as set forth in subparagraphs (a)
 and (c) of the Commercial Computer Software - Restricted
 Rights clause in FAR 52.227-19.
  
 Gaussian, Inc.
 340 Quinnipiac St., Bldg. 40, Wallingford CT 06492
  
  
 ---------------------------------------------------------------
 Warning -- This program may not be used in any manner that
 competes with the business of Gaussian, Inc. or will provide
 assistance to any competitor of Gaussian, Inc.  The licensee
 of this program is prohibited from giving any competitor of
 Gaussian, Inc. access to this program.  By using this program,
 the user acknowledges that Gaussian, Inc. is engaged in the
 business of creating and licensing software in the field of
 computational chemistry and represents and warrants to the
 licensee that it is not a competitor of Gaussian, Inc. and that
 it will not use this program in any manner prohibited above.
 ---------------------------------------------------------------
  

 Cite this work as:
 Gaussian 09, Revision A.02,
 M. J. Frisch, G. W. Trucks, H. B. Schlegel, G. E. Scuseria, 
 M. A. Robb, J. R. Cheeseman, G. Scalmani, V. Barone, B. Mennucci, 
 G. A. Petersson, H. Nakatsuji, M. Caricato, X. Li, H. P. Hratchian, 
 A. F. Izmaylov, J. Bloino, G. Zheng, J. L. Sonnenberg, M. Hada, 
 M. Ehara, K. Toyota, R. Fukuda, J. Hasegawa, M. Ishida, T. Nakajima, 
 Y. Honda, O. Kitao, H. Nakai, T. Vreven, J. A. Montgomery, Jr., 
 J. E. Peralta, F. Ogliaro, M. Bearpark, J. J. Heyd, E. Brothers, 
 K. N. Kudin, V. N. Staroverov, R. Kobayashi, J. Normand, 
 K. Raghavachari, A. Rendell, J. C. Burant, S. S. Iyengar, J. Tomasi, 
 M. Cossi, N. Rega, J. M. Millam, M. Klene, J. E. Knox, J. B. Cross, 
 V. Bakken, C. Adamo, J. Jaramillo, R. Gomperts, R. E. Stratmann, 
 O. Yazyev, A. J. Austin, R. Cammi, C. Pomelli, J. W. Ochterski, 
 R. L. Martin, K. Morokuma, V. G. Zakrzewski, G. A. Voth, 
 P. Salvador, J. J. Dannenberg, S. Dapprich, A. D. Daniels, 
 O. Farkas, J. B. Foresman, J. V. Ortiz, J. Cioslowski, 
 and D. J. Fox, Gaussian, Inc., Wallingford CT, 2009.
 
 ******************************************
 Gaussian 09:  IA32W-G09RevA.02 11-Jun-2009
                23-Feb-2015 
 ******************************************
 ----------------------------------------------------------------------
 # opt=(calcfc,ts,noeigentest) freq=noraman b3lyp/gen geom=connectivity
  gfinput pseudo=read
 ----------------------------------------------------------------------
 1/5=1,10=4,11=1,14=-1,18=20,26=3,38=1,57=2/1,3;
 2/9=110,12=2,17=6,18=5,40=1/2;
 3/5=7,11=2,16=1,17=8,24=10,25=1,30=1,71=2,74=-5/1,2,3;
 4//1;
 5/5=2,38=5/2;
 8/6=4,10=90,11=11/1;
 11/6=1,8=1,9=11,15=111,16=1/1,2,10;
 10/6=1,7=6,13=1/2;
 6/7=2,8=2,9=2,10=2,28=1/1;
 7/10=1,18=20,25=1/1,2,3,16;
 1/5=1,10=4,11=1,14=-1,18=20/3(2);
 2/9=110/2;
 99//99;
 2/9=110/2;
 3/5=7,6=1,11=2,16=1,17=8,25=1,30=1,71=1,74=-5,82=7/1,2,3;
 4/5=5,16=3/1;
 5/5=2,38=5/2;
 7//1,2,3,16;
 1/5=1,11=1,14=-1,18=20/3(-5);
 2/9=110/2;
 6/7=2,8=2,9=2,10=2,19=2,28=1/1;
 99/9=1/99;
 ----------------
 gen calculation-ts624I C H O=6-31+g(d)/I=DGDZVP
 ----------------
 Symbolic Z-matrix:
 Charge =  0 Multiplicity = 1
 C                    -0.17132   0.07683   0.5265 
 O                    -0.93296  -1.12589   0.65859 
 O                    -0.76972   1.12043  -1.15806 
 O                    -2.70036  -0.79406  -0.89102 
 C                    -3.79257  -0.77761   0.0215 
 H                    -3.37929  -0.81874   0.98863 
 H                    -4.41093   0.07225  -0.14338 
 H                    -4.36218  -1.6789   -0.06081 
 H                    -1.82043   0.45464  -1.32744 
 H                    -1.9363   -1.24363   0.01899 
 C                    -0.4175    0.71036   1.90097 
 H                     0.10305   0.14972   2.65621 
 H                    -0.06075   1.71619   1.89391 
 H                    -1.41938   0.65387   2.22089 
 C                    -1.18682   2.11681  -0.26131 
 H                    -0.33196   2.68255  -0.01803 
 H                    -2.0541    2.70784  -0.33154 
 H                    -1.33945   1.51759   0.59413 
 I                     1.69142  -0.23728  -0.16026 
 

 GradGradGradGradGradGradGradGradGradGradGradGradGradGradGradGradGradGrad
 Berny optimization.
 Initialization pass.
                           ----------------------------
                           !    Initial Parameters    !
                           ! (Angstroms and Degrees)  !
 --------------------------                            --------------------------
 ! Name  Definition              Value          Derivative Info.                !
 --------------------------------------------------------------------------------
 ! R1    R(1,2)                  1.4297         calculate D2E/DX2 analytically  !
 ! R2    R(1,11)                 1.5333         calculate D2E/DX2 analytically  !
 ! R3    R(1,18)                 1.856          calculate D2E/DX2 analytically  !
 ! R4    R(1,19)                 2.01           calculate D2E/DX2 analytically  !
 ! R5    R(2,10)                 1.1957         calculate D2E/DX2 analytically  !
 ! R6    R(3,9)                  1.2554         calculate D2E/DX2 analytically  !
 ! R7    R(3,15)                 1.4039         calculate D2E/DX2 analytically  !
 ! R8    R(4,5)                  1.4233         calculate D2E/DX2 analytically  !
 ! R9    R(4,9)                  1.5887         calculate D2E/DX2 analytically  !
 ! R10   R(4,10)                 1.2704         calculate D2E/DX2 analytically  !
 ! R11   R(5,6)                  1.0525         calculate D2E/DX2 analytically  !
 ! R12   R(5,7)                  1.0639         calculate D2E/DX2 analytically  !
 ! R13   R(5,8)                  1.0694         calculate D2E/DX2 analytically  !
 ! R14   R(11,12)                1.075          calculate D2E/DX2 analytically  !
 ! R15   R(11,13)                1.0672         calculate D2E/DX2 analytically  !
 ! R16   R(11,14)                1.0532         calculate D2E/DX2 analytically  !
 ! R17   R(11,18)                1.7915         calculate D2E/DX2 analytically  !
 ! R18   R(15,16)                1.0536         calculate D2E/DX2 analytically  !
 ! R19   R(15,17)                1.0519         calculate D2E/DX2 analytically  !
 ! R20   R(15,18)                1.0555         calculate D2E/DX2 analytically  !
 ! A1    A(2,1,11)             100.3246         calculate D2E/DX2 analytically  !
 ! A2    A(2,1,18)             108.3223         calculate D2E/DX2 analytically  !
 ! A3    A(2,1,19)             113.1916         calculate D2E/DX2 analytically  !
 ! A4    A(11,1,19)            121.3068         calculate D2E/DX2 analytically  !
 ! A5    A(18,1,19)            135.8083         calculate D2E/DX2 analytically  !
 ! A6    A(1,2,10)             118.7146         calculate D2E/DX2 analytically  !
 ! A7    A(9,3,15)             102.3523         calculate D2E/DX2 analytically  !
 ! A8    A(5,4,9)              126.3022         calculate D2E/DX2 analytically  !
 ! A9    A(5,4,10)              90.3649         calculate D2E/DX2 analytically  !
 ! A10   A(9,4,10)              98.1519         calculate D2E/DX2 analytically  !
 ! A11   A(4,5,6)              106.6979         calculate D2E/DX2 analytically  !
 ! A12   A(4,5,7)              110.848          calculate D2E/DX2 analytically  !
 ! A13   A(4,5,8)              110.466          calculate D2E/DX2 analytically  !
 ! A14   A(6,5,7)              113.694          calculate D2E/DX2 analytically  !
 ! A15   A(6,5,8)              104.2964         calculate D2E/DX2 analytically  !
 ! A16   A(7,5,8)              110.5947         calculate D2E/DX2 analytically  !
 ! A17   A(3,9,4)              147.4961         calculate D2E/DX2 analytically  !
 ! A18   A(2,10,4)             148.5385         calculate D2E/DX2 analytically  !
 ! A19   A(1,11,12)            109.6649         calculate D2E/DX2 analytically  !
 ! A20   A(1,11,13)            109.2562         calculate D2E/DX2 analytically  !
 ! A21   A(1,11,14)            113.7557         calculate D2E/DX2 analytically  !
 ! A22   A(12,11,13)           109.5296         calculate D2E/DX2 analytically  !
 ! A23   A(12,11,14)           102.6647         calculate D2E/DX2 analytically  !
 ! A24   A(13,11,14)           111.7489         calculate D2E/DX2 analytically  !
 ! A25   A(13,11,18)            75.0806         calculate D2E/DX2 analytically  !
 ! A26   A(14,11,18)            75.8898         calculate D2E/DX2 analytically  !
 ! A27   A(3,15,16)            106.7101         calculate D2E/DX2 analytically  !
 ! A28   A(3,15,17)            126.9491         calculate D2E/DX2 analytically  !
 ! A29   A(3,15,18)             99.0746         calculate D2E/DX2 analytically  !
 ! A30   A(16,15,17)           112.5011         calculate D2E/DX2 analytically  !
 ! A31   A(16,15,18)           103.5937         calculate D2E/DX2 analytically  !
 ! A32   A(17,15,18)           104.7066         calculate D2E/DX2 analytically  !
 ! A33   A(1,18,15)            108.6714         calculate D2E/DX2 analytically  !
 ! A34   A(11,18,15)           140.5854         calculate D2E/DX2 analytically  !
 ! D1    D(11,1,2,10)          110.301          calculate D2E/DX2 analytically  !
 ! D2    D(18,1,2,10)           45.5313         calculate D2E/DX2 analytically  !
 ! D3    D(19,1,2,10)         -118.957          calculate D2E/DX2 analytically  !
 ! D4    D(2,1,11,12)           70.7144         calculate D2E/DX2 analytically  !
 ! D5    D(2,1,11,13)         -169.2277         calculate D2E/DX2 analytically  !
 ! D6    D(2,1,11,14)          -43.595          calculate D2E/DX2 analytically  !
 ! D7    D(19,1,11,12)         -54.6868         calculate D2E/DX2 analytically  !
 ! D8    D(19,1,11,13)          65.3712         calculate D2E/DX2 analytically  !
 ! D9    D(19,1,11,14)        -168.9962         calculate D2E/DX2 analytically  !
 ! D10   D(2,1,18,15)         -126.0173         calculate D2E/DX2 analytically  !
 ! D11   D(19,1,18,15)          33.3327         calculate D2E/DX2 analytically  !
 ! D12   D(1,2,10,4)             7.9965         calculate D2E/DX2 analytically  !
 ! D13   D(15,3,9,4)           -94.0859         calculate D2E/DX2 analytically  !
 ! D14   D(9,3,15,16)          176.1931         calculate D2E/DX2 analytically  !
 ! D15   D(9,3,15,17)          -47.2723         calculate D2E/DX2 analytically  !
 ! D16   D(9,3,15,18)           68.9482         calculate D2E/DX2 analytically  !
 ! D17   D(9,4,5,6)            -82.2225         calculate D2E/DX2 analytically  !
 ! D18   D(9,4,5,7)             42.053          calculate D2E/DX2 analytically  !
 ! D19   D(9,4,5,8)            165.0014         calculate D2E/DX2 analytically  !
 ! D20   D(10,4,5,6)            18.184          calculate D2E/DX2 analytically  !
 ! D21   D(10,4,5,7)           142.4595         calculate D2E/DX2 analytically  !
 ! D22   D(10,4,5,8)           -94.5922         calculate D2E/DX2 analytically  !
 ! D23   D(5,4,9,3)             96.6735         calculate D2E/DX2 analytically  !
 ! D24   D(10,4,9,3)             0.1728         calculate D2E/DX2 analytically  !
 ! D25   D(5,4,10,2)          -124.3386         calculate D2E/DX2 analytically  !
 ! D26   D(9,4,10,2)             2.4606         calculate D2E/DX2 analytically  !
 ! D27   D(13,11,18,15)         50.5509         calculate D2E/DX2 analytically  !
 ! D28   D(14,11,18,15)        168.0911         calculate D2E/DX2 analytically  !
 ! D29   D(3,15,18,1)           29.8147         calculate D2E/DX2 analytically  !
 ! D30   D(3,15,18,11)          78.1653         calculate D2E/DX2 analytically  !
 ! D31   D(16,15,18,1)         -79.9517         calculate D2E/DX2 analytically  !
 ! D32   D(16,15,18,11)        -31.6011         calculate D2E/DX2 analytically  !
 ! D33   D(17,15,18,1)         161.9793         calculate D2E/DX2 analytically  !
 ! D34   D(17,15,18,11)       -149.67           calculate D2E/DX2 analytically  !
 --------------------------------------------------------------------------------
 Trust Radius=3.00D-01 FncErr=1.00D-07 GrdErr=1.00D-06
 Number of steps in this run=  98 maximum allowed number of steps= 114.
 Search for a saddle point of order  1.
 GradGradGradGradGradGradGradGradGradGradGradGradGradGradGradGradGradGrad

                          Input orientation:                          
 ---------------------------------------------------------------------
 Center     Atomic      Atomic             Coordinates (Angstroms)
 Number     Number       Type             X           Y           Z
 ---------------------------------------------------------------------
      1          6           0       -0.171322    0.076825    0.526496
      2          8           0       -0.932963   -1.125885    0.658591
      3          8           0       -0.769717    1.120425   -1.158058
      4          8           0       -2.700361   -0.794060   -0.891015
      5          6           0       -3.792574   -0.777607    0.021504
      6          1           0       -3.379289   -0.818740    0.988625
      7          1           0       -4.410929    0.072252   -0.143376
      8          1           0       -4.362183   -1.678899   -0.060805
      9          1           0       -1.820433    0.454635   -1.327435
     10          1           0       -1.936297   -1.243627    0.018994
     11          6           0       -0.417500    0.710362    1.900971
     12          1           0        0.103054    0.149715    2.656208
     13          1           0       -0.060745    1.716193    1.893905
     14          1           0       -1.419381    0.653868    2.220893
     15          6           0       -1.186817    2.116811   -0.261308
     16          1           0       -0.331956    2.682550   -0.018033
     17          1           0       -2.054096    2.707843   -0.331540
     18          1           0       -1.339450    1.517585    0.594131
     19         53           0        1.691421   -0.237275   -0.160258
 ---------------------------------------------------------------------
                    Distance matrix (angstroms):
                    1          2          3          4          5
     1  C    0.000000
     2  O    1.429705   0.000000
     3  O    2.070000   2.893574   0.000000
     4  O    3.027180   2.373833   2.732023   0.000000
     5  C    3.754802   2.950348   3.759196   1.423338   0.000000
     6  H    3.362537   2.487523   3.895956   1.998649   1.052530
     7  H    4.292204   3.764961   3.922585   2.058034   1.063865
     8  H    4.581572   3.547239   4.684655   2.057630   1.069372
     9  H    2.509854   2.688856   1.255376   1.588702   2.688382
    10  H    2.261921   1.195670   2.887058   1.270441   1.913882
    11  C    1.533347   2.276184   3.106423   3.907675   4.139755
    12  H    2.148550   2.586689   4.031455   4.618727   4.793486
    13  H    2.137653   3.219343   3.189367   4.585272   4.863278
    14  H    2.182112   2.417625   3.472326   3.663520   3.538146
    15  C    2.411101   3.380197   1.403894   3.340736   3.904819
    16  H    2.666855   3.914487   1.982808   4.296307   4.893887
    17  H    3.347136   4.115188   2.202875   3.604718   3.910922
    18  H    1.856041   2.675317   1.884807   3.066177   3.407877
    19  I    2.010000   2.889210   2.982642   4.486843   5.513547
                    6          7          8          9         10
     6  H    0.000000
     7  H    1.771884   0.000000
     8  H    1.675487   1.753774   0.000000
     9  H    3.068493   2.873827   3.552015   0.000000
    10  H    1.789676   2.807437   2.465918   2.170343   0.000000
    11  C    3.455824   4.531447   5.011752   3.529337   3.109124
    12  H    3.980634   5.312223   5.537538   4.434207   3.613205
    13  H    4.272956   5.077121   5.818068   3.881374   3.974106
    14  H    2.743774   3.857124   4.394090   3.576474   2.952295
    15  C    3.871269   3.819559   4.952834   2.073867   3.454393
    16  H    4.749593   4.844315   5.938585   2.982231   4.241479
    17  H    3.991962   3.540679   4.964279   2.474541   3.968736
    18  H    3.126497   3.473743   4.447850   2.248027   2.882933
    19  I    5.231647   6.110218   6.223688   3.764859   3.768980
                   11         12         13         14         15
    11  C    0.000000
    12  H    1.075028   0.000000
    13  H    1.067249   1.749797   0.000000
    14  H    1.053237   1.661769   1.755377   0.000000
    15  C    2.691728   3.747684   2.464442   2.890607   0.000000
    16  H    2.753075   3.708915   2.159377   3.211049   1.053580
    17  H    3.413573   4.485973   3.147924   3.337153   1.051867
    18  H    1.791489   2.864271   1.834106   1.843570   1.055530
    19  I    3.097455   3.256555   3.332523   4.017599   3.719702
                   16         17         18         19
    16  H    0.000000
    17  H    1.750626   0.000000
    18  H    1.657387   1.668622   0.000000
    19  I    3.555230   4.767804   3.582571   0.000000
 Stoichiometry    C4H11IO3
 Framework group  C1[X(C4H11IO3)]
 Deg. of freedom    51
 Full point group                 C1      NOp   1
 Largest Abelian subgroup         C1      NOp   1
 Largest concise Abelian subgroup C1      NOp   1
                         Standard orientation:                         
 ---------------------------------------------------------------------
 Center     Atomic      Atomic             Coordinates (Angstroms)
 Number     Number       Type             X           Y           Z
 ---------------------------------------------------------------------
      1          6           0       -0.171322    0.076825    0.526496
      2          8           0       -0.932963   -1.125885    0.658591
      3          8           0       -0.769717    1.120425   -1.158058
      4          8           0       -2.700361   -0.794060   -0.891015
      5          6           0       -3.792574   -0.777607    0.021504
      6          1           0       -3.379289   -0.818740    0.988625
      7          1           0       -4.410929    0.072252   -0.143376
      8          1           0       -4.362183   -1.678899   -0.060805
      9          1           0       -1.820433    0.454635   -1.327435
     10          1           0       -1.936297   -1.243627    0.018994
     11          6           0       -0.417500    0.710362    1.900971
     12          1           0        0.103054    0.149715    2.656208
     13          1           0       -0.060745    1.716193    1.893905
     14          1           0       -1.419381    0.653868    2.220893
     15          6           0       -1.186817    2.116811   -0.261308
     16          1           0       -0.331956    2.682550   -0.018033
     17          1           0       -2.054096    2.707843   -0.331540
     18          1           0       -1.339450    1.517585    0.594131
     19         53           0        1.691421   -0.237275   -0.160258
 ---------------------------------------------------------------------
 Rotational constants (GHZ):      1.9423575      0.5894540      0.5632105
 General basis read from cards:  (5D, 7F)
 AO basis set in the form of general basis input (Overlap normalization):
      1 0
 S   6 1.00       0.000000000000
      0.3047524880D+04  0.1834737132D-02
      0.4573695180D+03  0.1403732281D-01
      0.1039486850D+03  0.6884262226D-01
      0.2921015530D+02  0.2321844432D+00
      0.9286662960D+01  0.4679413484D+00
      0.3163926960D+01  0.3623119853D+00
 SP   3 1.00       0.000000000000
      0.7868272350D+01 -0.1193324198D+00  0.6899906659D-01
      0.1881288540D+01 -0.1608541517D+00  0.3164239610D+00
      0.5442492580D+00  0.1143456438D+01  0.7443082909D+00
 SP   1 1.00       0.000000000000
      0.1687144782D+00  0.1000000000D+01  0.1000000000D+01
 SP   1 1.00       0.000000000000
      0.4380000000D-01  0.1000000000D+01  0.1000000000D+01
 D   1 1.00       0.000000000000
      0.8000000000D+00  0.1000000000D+01
 ****
      2 0
 S   6 1.00       0.000000000000
      0.5484671660D+04  0.1831074430D-02
      0.8252349460D+03  0.1395017220D-01
      0.1880469580D+03  0.6844507810D-01
      0.5296450000D+02  0.2327143360D+00
      0.1689757040D+02  0.4701928980D+00
      0.5799635340D+01  0.3585208530D+00
 SP   3 1.00       0.000000000000
      0.1553961625D+02 -0.1107775495D+00  0.7087426823D-01
      0.3599933586D+01 -0.1480262627D+00  0.3397528391D+00
      0.1013761750D+01  0.1130767015D+01  0.7271585773D+00
 SP   1 1.00       0.000000000000
      0.2700058226D+00  0.1000000000D+01  0.1000000000D+01
 SP   1 1.00       0.000000000000
      0.8450000000D-01  0.1000000000D+01  0.1000000000D+01
 D   1 1.00       0.000000000000
      0.8000000000D+00  0.1000000000D+01
 ****
      3 0
 S   6 1.00       0.000000000000
      0.5484671660D+04  0.1831074430D-02
      0.8252349460D+03  0.1395017220D-01
      0.1880469580D+03  0.6844507810D-01
      0.5296450000D+02  0.2327143360D+00
      0.1689757040D+02  0.4701928980D+00
      0.5799635340D+01  0.3585208530D+00
 SP   3 1.00       0.000000000000
      0.1553961625D+02 -0.1107775495D+00  0.7087426823D-01
      0.3599933586D+01 -0.1480262627D+00  0.3397528391D+00
      0.1013761750D+01  0.1130767015D+01  0.7271585773D+00
 SP   1 1.00       0.000000000000
      0.2700058226D+00  0.1000000000D+01  0.1000000000D+01
 SP   1 1.00       0.000000000000
      0.8450000000D-01  0.1000000000D+01  0.1000000000D+01
 D   1 1.00       0.000000000000
      0.8000000000D+00  0.1000000000D+01
 ****
      4 0
 S   6 1.00       0.000000000000
      0.5484671660D+04  0.1831074430D-02
      0.8252349460D+03  0.1395017220D-01
      0.1880469580D+03  0.6844507810D-01
      0.5296450000D+02  0.2327143360D+00
      0.1689757040D+02  0.4701928980D+00
      0.5799635340D+01  0.3585208530D+00
 SP   3 1.00       0.000000000000
      0.1553961625D+02 -0.1107775495D+00  0.7087426823D-01
      0.3599933586D+01 -0.1480262627D+00  0.3397528391D+00
      0.1013761750D+01  0.1130767015D+01  0.7271585773D+00
 SP   1 1.00       0.000000000000
      0.2700058226D+00  0.1000000000D+01  0.1000000000D+01
 SP   1 1.00       0.000000000000
      0.8450000000D-01  0.1000000000D+01  0.1000000000D+01
 D   1 1.00       0.000000000000
      0.8000000000D+00  0.1000000000D+01
 ****
      5 0
 S   6 1.00       0.000000000000
      0.3047524880D+04  0.1834737132D-02
      0.4573695180D+03  0.1403732281D-01
      0.1039486850D+03  0.6884262226D-01
      0.2921015530D+02  0.2321844432D+00
      0.9286662960D+01  0.4679413484D+00
      0.3163926960D+01  0.3623119853D+00
 SP   3 1.00       0.000000000000
      0.7868272350D+01 -0.1193324198D+00  0.6899906659D-01
      0.1881288540D+01 -0.1608541517D+00  0.3164239610D+00
      0.5442492580D+00  0.1143456438D+01  0.7443082909D+00
 SP   1 1.00       0.000000000000
      0.1687144782D+00  0.1000000000D+01  0.1000000000D+01
 SP   1 1.00       0.000000000000
      0.4380000000D-01  0.1000000000D+01  0.1000000000D+01
 D   1 1.00       0.000000000000
      0.8000000000D+00  0.1000000000D+01
 ****
      6 0
 S   3 1.00       0.000000000000
      0.1873113696D+02  0.3349460434D-01
      0.2825394365D+01  0.2347269535D+00
      0.6401216923D+00  0.8137573261D+00
 S   1 1.00       0.000000000000
      0.1612777588D+00  0.1000000000D+01
 ****
      7 0
 S   3 1.00       0.000000000000
      0.1873113696D+02  0.3349460434D-01
      0.2825394365D+01  0.2347269535D+00
      0.6401216923D+00  0.8137573261D+00
 S   1 1.00       0.000000000000
      0.1612777588D+00  0.1000000000D+01
 ****
      8 0
 S   3 1.00       0.000000000000
      0.1873113696D+02  0.3349460434D-01
      0.2825394365D+01  0.2347269535D+00
      0.6401216923D+00  0.8137573261D+00
 S   1 1.00       0.000000000000
      0.1612777588D+00  0.1000000000D+01
 ****
      9 0
 S   3 1.00       0.000000000000
      0.1873113696D+02  0.3349460434D-01
      0.2825394365D+01  0.2347269535D+00
      0.6401216923D+00  0.8137573261D+00
 S   1 1.00       0.000000000000
      0.1612777588D+00  0.1000000000D+01
 ****
     10 0
 S   3 1.00       0.000000000000
      0.1873113696D+02  0.3349460434D-01
      0.2825394365D+01  0.2347269535D+00
      0.6401216923D+00  0.8137573261D+00
 S   1 1.00       0.000000000000
      0.1612777588D+00  0.1000000000D+01
 ****
     11 0
 S   6 1.00       0.000000000000
      0.3047524880D+04  0.1834737132D-02
      0.4573695180D+03  0.1403732281D-01
      0.1039486850D+03  0.6884262226D-01
      0.2921015530D+02  0.2321844432D+00
      0.9286662960D+01  0.4679413484D+00
      0.3163926960D+01  0.3623119853D+00
 SP   3 1.00       0.000000000000
      0.7868272350D+01 -0.1193324198D+00  0.6899906659D-01
      0.1881288540D+01 -0.1608541517D+00  0.3164239610D+00
      0.5442492580D+00  0.1143456438D+01  0.7443082909D+00
 SP   1 1.00       0.000000000000
      0.1687144782D+00  0.1000000000D+01  0.1000000000D+01
 SP   1 1.00       0.000000000000
      0.4380000000D-01  0.1000000000D+01  0.1000000000D+01
 D   1 1.00       0.000000000000
      0.8000000000D+00  0.1000000000D+01
 ****
     12 0
 S   3 1.00       0.000000000000
      0.1873113696D+02  0.3349460434D-01
      0.2825394365D+01  0.2347269535D+00
      0.6401216923D+00  0.8137573261D+00
 S   1 1.00       0.000000000000
      0.1612777588D+00  0.1000000000D+01
 ****
     13 0
 S   3 1.00       0.000000000000
      0.1873113696D+02  0.3349460434D-01
      0.2825394365D+01  0.2347269535D+00
      0.6401216923D+00  0.8137573261D+00
 S   1 1.00       0.000000000000
      0.1612777588D+00  0.1000000000D+01
 ****
     14 0
 S   3 1.00       0.000000000000
      0.1873113696D+02  0.3349460434D-01
      0.2825394365D+01  0.2347269535D+00
      0.6401216923D+00  0.8137573261D+00
 S   1 1.00       0.000000000000
      0.1612777588D+00  0.1000000000D+01
 ****
     15 0
 S   6 1.00       0.000000000000
      0.3047524880D+04  0.1834737132D-02
      0.4573695180D+03  0.1403732281D-01
      0.1039486850D+03  0.6884262226D-01
      0.2921015530D+02  0.2321844432D+00
      0.9286662960D+01  0.4679413484D+00
      0.3163926960D+01  0.3623119853D+00
 SP   3 1.00       0.000000000000
      0.7868272350D+01 -0.1193324198D+00  0.6899906659D-01
      0.1881288540D+01 -0.1608541517D+00  0.3164239610D+00
      0.5442492580D+00  0.1143456438D+01  0.7443082909D+00
 SP   1 1.00       0.000000000000
      0.1687144782D+00  0.1000000000D+01  0.1000000000D+01
 SP   1 1.00       0.000000000000
      0.4380000000D-01  0.1000000000D+01  0.1000000000D+01
 D   1 1.00       0.000000000000
      0.8000000000D+00  0.1000000000D+01
 ****
     16 0
 S   3 1.00       0.000000000000
      0.1873113696D+02  0.3349460434D-01
      0.2825394365D+01  0.2347269535D+00
      0.6401216923D+00  0.8137573261D+00
 S   1 1.00       0.000000000000
      0.1612777588D+00  0.1000000000D+01
 ****
     17 0
 S   3 1.00       0.000000000000
      0.1873113696D+02  0.3349460434D-01
      0.2825394365D+01  0.2347269535D+00
      0.6401216923D+00  0.8137573261D+00
 S   1 1.00       0.000000000000
      0.1612777588D+00  0.1000000000D+01
 ****
     18 0
 S   3 1.00       0.000000000000
      0.1873113696D+02  0.3349460434D-01
      0.2825394365D+01  0.2347269535D+00
      0.6401216923D+00  0.8137573261D+00
 S   1 1.00       0.000000000000
      0.1612777588D+00  0.1000000000D+01
 ****
     19 0
 S   6 1.00       0.000000000000
      0.2748454600D+06 -0.1620740003D-02
      0.4123318800D+05 -0.1239758002D-01
      0.9366733300D+04 -0.6220073012D-01
      0.2638408100D+04 -0.2162937604D+00
      0.8587744000D+03 -0.4623949009D+00
      0.2963025200D+03 -0.3848416708D+00
 S   3 1.00       0.000000000000
      0.5618372200D+03  0.1142284296D+00
      0.6904014600D+02 -0.6322909279D+00
      0.2998063500D+02 -0.4420178785D+00
 S   3 1.00       0.000000000000
      0.5486968400D+02 -0.2707986079D+00
      0.9995458500D+01  0.8426472035D+00
      0.4588867800D+01  0.3091657076D+00
 S   3 1.00       0.000000000000
      0.9120825600D+01 -0.3410223488D+00
      0.2119678700D+01  0.8100649772D+00
      0.9708925500D+00  0.3967536886D+00
 S   2 1.00       0.000000000000
      0.1587996500D+01  0.4220458839D+00
      0.2953355900D+00 -0.1205356205D+01
 S   1 1.00       0.000000000000
      0.1164015700D+00  0.1000000000D+01
 P   5 1.00       0.000000000000
      0.4089455400D+04 -0.7236549903D-02
      0.9670335900D+03 -0.5583903925D-01
      0.3094421300D+03 -0.2340242369D+00
      0.1124588600D+03 -0.5047018033D+00
      0.4311859000D+02 -0.3659633351D+00
 P   3 1.00       0.000000000000
      0.1646462000D+03 -0.2523303985D-01
      0.2073658300D+02  0.4944191470D+00
      0.8155830400D+01  0.5741461865D+00
 P   3 1.00       0.000000000000
      0.3710487200D+01  0.4299955309D+00
      0.1624999000D+01  0.5262371211D+00
      0.7146215600D+00  0.1234062502D+00
 P   2 1.00       0.000000000000
      0.4628192500D+00  0.4206610585D+00
      0.1864311600D+00  0.6369323111D+00
 P   1 1.00       0.000000000000
      0.7148348000D-01  0.1000000000D+01
 D   5 1.00       0.000000000000
      0.4175032400D+03 -0.1272515010D-01
      0.1236148300D+03 -0.9152118071D-01
      0.4577903900D+02 -0.3070988524D+00
      0.1839166300D+02 -0.4996397539D+00
      0.7421793200D+01 -0.3083066424D+00
 D   3 1.00       0.000000000000
      0.6273858600D+01 -0.2593005400D+00
      0.2359414600D+01 -0.5650764901D+00
      0.8377966000D+00 -0.3523693800D+00
 D   1 1.00       0.000000000000
      0.2440000000D+00  0.1000000000D+01
 ****

 ======================================================================================================
                                       Pseudopotential Parameters
 ======================================================================================================
  Center     Atomic      Valence      Angular      Power
  Number     Number     Electrons     Momentum     of R      Exponent        Coefficient   SO-Coeffient
 ======================================================================================================
    1          6
                                   No pseudopotential on this center.
    2          8
                                   No pseudopotential on this center.
    3          8
                                   No pseudopotential on this center.
    4          8
                                   No pseudopotential on this center.
    5          6
                                   No pseudopotential on this center.
    6          1
                                   No pseudopotential on this center.
    7          1
                                   No pseudopotential on this center.
    8          1
                                   No pseudopotential on this center.
    9          1
                                   No pseudopotential on this center.
   10          1
                                   No pseudopotential on this center.
   11          6
                                   No pseudopotential on this center.
   12          1
                                   No pseudopotential on this center.
   13          1
                                   No pseudopotential on this center.
   14          1
                                   No pseudopotential on this center.
   15          6
                                   No pseudopotential on this center.
   16          1
                                   No pseudopotential on this center.
   17          1
                                   No pseudopotential on this center.
   18          1
                                   No pseudopotential on this center.
   19         53
                                   No pseudopotential on this center.
 ======================================================================================================
 There are   184 symmetry adapted basis functions of A   symmetry.
 Integral buffers will be    262144 words long.
 Raffenetti 2 integral format.
 Two-electron integral symmetry is turned on.
   184 basis functions,   382 primitive gaussians,   194 cartesian basis functions
    56 alpha electrons       56 beta electrons
       nuclear repulsion energy       830.6390784850 Hartrees.
 NAtoms=   19 NActive=   19 NUniq=   19 SFac= 7.50D-01 NAtFMM=   80 NAOKFM=F Big=F
 One-electron integrals computed using PRISM.
   1 Symmetry operations used in ECPInt.
 ECPInt:  NShTT=    2556 NPrTT=   14579 LenC2=    2484 LenP2D=   10036.
 LDataN:  DoStor=T MaxTD1= 4 Len=   56
 NBasis=   184 RedAO= T  NBF=   184
 NBsUse=   184 1.00D-06 NBFU=   184
 Defaulting to unpruned grid for atomic number  53.
 Harris functional with IExCor=  402 diagonalized for initial guess.
 ExpMin= 4.38D-02 ExpMax= 2.75D+05 ExpMxC= 4.12D+04 IAcc=2 IRadAn=         0 AccDes= 0.00D+00
 HarFok:  IExCor=  402 AccDes= 0.00D+00 IRadAn=         0 IDoV= 1
 ScaDFX=  1.000000  1.000000  1.000000  1.000000
 Defaulting to unpruned grid for atomic number  53.
 FoFCou: FMM=F IPFlag=           0 FMFlag=      100000 FMFlg1=           0
         NFxFlg=           0 DoJE=T BraDBF=F KetDBF=T FulRan=T
         Omega=  0.000000  0.000000  1.000000  0.000000  0.000000 ICntrl=     500 IOpCl=  0
         NMat0=    1 NMatS0=    1 NMatT0=    0 NMatD0=    1 NMtDS0=    0 NMtDT0=    0
         I1Cent=           4 NGrid=           0.
 Petite list used in FoFCou.
 Initial guess orbital symmetries:
       Occupied  (A) (A) (A) (A) (A) (A) (A) (A) (A) (A) (A) (A)
                 (A) (A) (A) (A) (A) (A) (A) (A) (A) (A) (A) (A)
                 (A) (A) (A) (A) (A) (A) (A) (A) (A) (A) (A) (A)
                 (A) (A) (A) (A) (A) (A) (A) (A) (A) (A) (A) (A)
                 (A) (A) (A) (A) (A) (A) (A) (A)
       Virtual   (A) (A) (A) (A) (A) (A) (A) (A) (A) (A) (A) (A)
                 (A) (A) (A) (A) (A) (A) (A) (A) (A) (A) (A) (A)
                 (A) (A) (A) (A) (A) (A) (A) (A) (A) (A) (A) (A)
                 (A) (A) (A) (A) (A) (A) (A) (A) (A) (A) (A) (A)
                 (A) (A) (A) (A) (A) (A) (A) (A) (A) (A) (A) (A)
                 (A) (A) (A) (A) (A) (A) (A) (A) (A) (A) (A) (A)
                 (A) (A) (A) (A) (A) (A) (A) (A) (A) (A) (A) (A)
                 (A) (A) (A) (A) (A) (A) (A) (A) (A) (A) (A) (A)
                 (A) (A) (A) (A) (A) (A) (A) (A) (A) (A) (A) (A)
                 (A) (A) (A) (A) (A) (A) (A) (A) (A) (A) (A) (A)
                 (A) (A) (A) (A) (A) (A) (A) (A)
 The electronic state of the initial guess is 1-A.
 Requested convergence on RMS density matrix=1.00D-08 within 128 cycles.
 Requested convergence on MAX density matrix=1.00D-06.
 Requested convergence on             energy=1.00D-06.
 No special actions if energy rises.
 Defaulting to unpruned grid for atomic number  53.
 EnCoef did     1 forward-backward iterations
 SCF Done:  E(RB3LYP) =  -7304.35510499     A.U. after   16 cycles
             Convg  =    0.3863D-08             -V/T =  2.0018
 Range of M.O.s used for correlation:     1   184
 NBasis=   184 NAE=    56 NBE=    56 NFC=     0 NFV=     0
 NROrb=    184 NOA=    56 NOB=    56 NVA=   128 NVB=   128

 **** Warning!!: The largest alpha MO coefficient is  0.30018166D+02

   1 Symmetry operations used in ECPInt.
 ECPInt:  NShTT=    2556 NPrTT=   14579 LenC2=    2484 LenP2D=   10036.
 LDataN:  DoStor=T MaxTD1= 5 Len=  102
 Symmetrizing basis deriv contribution to polar:
 IMax=3 JMax=2 DiffMx= 0.00D+00
 G2DrvN: will do    20 centers at a time, making    1 passes doing MaxLOS=2.
 Calling FoFCou, ICntrl=  3107 FMM=F I1Cent=   0 AccDes= 0.00D+00.
 Defaulting to unpruned grid for atomic number  53.
 FoFDir/FoFCou used for L=0 through L=2.
 End of G2Drv Frequency-dependent properties file   721 does not exist.
 End of G2Drv Frequency-dependent properties file   722 does not exist.
          IDoAtm=1111111111111111111
          Differentiating once with respect to nuclear coordinates.
 Defaulting to unpruned grid for atomic number  53.
 Defaulting to unpruned grid for atomic number  53.
          There are    60 degrees of freedom in the 1st order CPHF.  IDoFFX=5.
     54 vectors produced by pass  0 Test12= 1.19D-10 1.67D-07 XBig12= 1.52D-01 1.61D-01.
 AX will form    54 AO Fock derivatives at one time.
     54 vectors produced by pass  1 Test12= 1.19D-10 1.67D-07 XBig12= 8.20D-02 6.19D-02.
     54 vectors produced by pass  2 Test12= 1.19D-10 1.67D-07 XBig12= 8.19D-04 6.50D-03.
     54 vectors produced by pass  3 Test12= 1.19D-10 1.67D-07 XBig12= 3.03D-06 3.00D-04.
     30 vectors produced by pass  4 Test12= 1.19D-10 1.67D-07 XBig12= 5.81D-09 1.21D-05.
      3 vectors produced by pass  5 Test12= 1.19D-10 1.67D-07 XBig12= 6.91D-12 2.74D-07.
 Inverted reduced A of dimension   249 with in-core refinement.
 End of Minotr Frequency-dependent properties file   721 does not exist.
 End of Minotr Frequency-dependent properties file   722 does not exist.

 **********************************************************************

            Population analysis using the SCF density.

 **********************************************************************

 Orbital symmetries:
       Occupied  (A) (A) (A) (A) (A) (A) (A) (A) (A) (A) (A) (A)
                 (A) (A) (A) (A) (A) (A) (A) (A) (A) (A) (A) (A)
                 (A) (A) (A) (A) (A) (A) (A) (A) (A) (A) (A) (A)
                 (A) (A) (A) (A) (A) (A) (A) (A) (A) (A) (A) (A)
                 (A) (A) (A) (A) (A) (A) (A) (A)
       Virtual   (A) (A) (A) (A) (A) (A) (A) (A) (A) (A) (A) (A)
                 (A) (A) (A) (A) (A) (A) (A) (A) (A) (A) (A) (A)
                 (A) (A) (A) (A) (A) (A) (A) (A) (A) (A) (A) (A)
                 (A) (A) (A) (A) (A) (A) (A) (A) (A) (A) (A) (A)
                 (A) (A) (A) (A) (A) (A) (A) (A) (A) (A) (A) (A)
                 (A) (A) (A) (A) (A) (A) (A) (A) (A) (A) (A) (A)
                 (A) (A) (A) (A) (A) (A) (A) (A) (A) (A) (A) (A)
                 (A) (A) (A) (A) (A) (A) (A) (A) (A) (A) (A) (A)
                 (A) (A) (A) (A) (A) (A) (A) (A) (A) (A) (A) (A)
                 (A) (A) (A) (A) (A) (A) (A) (A) (A) (A) (A) (A)
                 (A) (A) (A) (A) (A) (A) (A) (A)
 The electronic state is 1-A.
 Alpha  occ. eigenvalues -- **********-176.38708-165.76957-165.76763-165.76751
 Alpha  occ. eigenvalues --  -35.83042 -31.34170 -31.33616 -31.33583 -22.98266
 Alpha  occ. eigenvalues --  -22.98148 -22.98124 -22.97745 -22.97745 -19.20080
 Alpha  occ. eigenvalues --  -19.16322 -19.12624 -10.36107 -10.22056 -10.21554
 Alpha  occ. eigenvalues --  -10.20378  -6.36802  -4.78610  -4.77105  -4.77022
 Alpha  occ. eigenvalues --   -2.05348  -2.04809  -2.04740  -2.03426  -2.03426
 Alpha  occ. eigenvalues --   -1.04615  -1.01507  -0.96861  -0.80311  -0.72241
 Alpha  occ. eigenvalues --   -0.69421  -0.66706  -0.58898  -0.54253  -0.52582
 Alpha  occ. eigenvalues --   -0.48847  -0.47725  -0.46198  -0.44496  -0.43875
 Alpha  occ. eigenvalues --   -0.42271  -0.41610  -0.40572  -0.39089  -0.35047
 Alpha  occ. eigenvalues --   -0.32529  -0.29242  -0.28022  -0.27510  -0.26817
 Alpha  occ. eigenvalues --   -0.25570
 Alpha virt. eigenvalues --   -0.11172  -0.03601  -0.00390   0.01468   0.02413
 Alpha virt. eigenvalues --    0.02555   0.04192   0.05058   0.05641   0.06267
 Alpha virt. eigenvalues --    0.06350   0.08444   0.08483   0.08915   0.10127
 Alpha virt. eigenvalues --    0.11571   0.12453   0.12738   0.14251   0.14563
 Alpha virt. eigenvalues --    0.15569   0.16648   0.18706   0.19446   0.19564
 Alpha virt. eigenvalues --    0.20087   0.21639   0.21982   0.22220   0.23201
 Alpha virt. eigenvalues --    0.24210   0.25174   0.26542   0.26693   0.27812
 Alpha virt. eigenvalues --    0.28383   0.29026   0.30655   0.31476   0.32055
 Alpha virt. eigenvalues --    0.32757   0.33993   0.34336   0.36163   0.37126
 Alpha virt. eigenvalues --    0.38448   0.39209   0.40606   0.41192   0.44700
 Alpha virt. eigenvalues --    0.48345   0.51657   0.55097   0.62111   0.65802
 Alpha virt. eigenvalues --    0.66567   0.67575   0.68622   0.69489   0.73193
 Alpha virt. eigenvalues --    0.74641   0.78121   0.79177   0.81019   0.84891
 Alpha virt. eigenvalues --    0.91129   0.93281   0.94150   0.96697   0.98306
 Alpha virt. eigenvalues --    0.99485   1.01923   1.07212   1.10464   1.11918
 Alpha virt. eigenvalues --    1.12985   1.15075   1.19987   1.20228   1.24190
 Alpha virt. eigenvalues --    1.26168   1.27139   1.29040   1.31318   1.31629
 Alpha virt. eigenvalues --    1.37685   1.38658   1.41804   1.45397   1.47510
 Alpha virt. eigenvalues --    1.50516   1.53899   1.54068   1.58851   1.60950
 Alpha virt. eigenvalues --    1.63367   1.67700   1.76212   1.78473   1.81143
 Alpha virt. eigenvalues --    1.84686   1.85790   1.89410   1.91052   1.95521
 Alpha virt. eigenvalues --    1.97679   1.98655   2.04788   2.11217   2.12556
 Alpha virt. eigenvalues --    2.16521   2.18957   2.21377   2.24950   2.29375
 Alpha virt. eigenvalues --    2.29537   2.33697   2.36526   2.40244   2.40781
 Alpha virt. eigenvalues --    2.43685   2.47469   2.50928   2.56510   2.66821
 Alpha virt. eigenvalues --    2.85432   2.86992   2.97860
          Condensed to atoms (all electrons):
              1          2          3          4          5          6
     1  C    5.929936   0.215632   0.121212   0.012850   0.012483  -0.002675
     2  O    0.215632   8.627608  -0.027346  -0.071807   0.011769   0.013723
     3  O    0.121212  -0.027346   8.593521  -0.047251   0.015211  -0.002548
     4  O    0.012850  -0.071807  -0.047251   8.692648   0.025123  -0.099697
     5  C    0.012483   0.011769   0.015211   0.025123   5.172686   0.429771
     6  H   -0.002675   0.013723  -0.002548  -0.099697   0.429771   0.579477
     7  H    0.011943  -0.003506   0.001311  -0.061864   0.403637  -0.035299
     8  H   -0.006570   0.001148  -0.000578  -0.025149   0.378963  -0.048587
     9  H   -0.032756   0.002465   0.126796   0.118682  -0.011518   0.001536
    10  H    0.051066   0.022971   0.002416   0.135055  -0.011188  -0.010141
    11  C   -0.510832  -0.130057  -0.033549  -0.007937   0.000303   0.000346
    12  H   -0.053621  -0.011349  -0.000515  -0.000087   0.000491   0.000087
    13  H   -0.082071   0.013271   0.006159  -0.000032  -0.000710  -0.000012
    14  H   -0.059083  -0.012549   0.001724   0.000304   0.000555   0.000774
    15  C   -0.131350   0.004161  -0.005440   0.042521  -0.034237  -0.002448
    16  H    0.027374  -0.000664  -0.042171  -0.000926   0.000828   0.000001
    17  H    0.018614  -0.000521  -0.018411   0.001742   0.000511  -0.000001
    18  H   -0.111560   0.004557  -0.113344  -0.005216  -0.001885   0.000744
    19  I    0.221319  -0.109572  -0.126365  -0.000450  -0.001815   0.000105
              7          8          9         10         11         12
     1  C    0.011943  -0.006570  -0.032756   0.051066  -0.510832  -0.053621
     2  O   -0.003506   0.001148   0.002465   0.022971  -0.130057  -0.011349
     3  O    0.001311  -0.000578   0.126796   0.002416  -0.033549  -0.000515
     4  O   -0.061864  -0.025149   0.118682   0.135055  -0.007937  -0.000087
     5  C    0.403637   0.378963  -0.011518  -0.011188   0.000303   0.000491
     6  H   -0.035299  -0.048587   0.001536  -0.010141   0.000346   0.000087
     7  H    0.541785  -0.033723  -0.002197   0.006193  -0.004446  -0.000002
     8  H   -0.033723   0.541823   0.000443  -0.004943   0.001941   0.000000
     9  H   -0.002197   0.000443   0.286888  -0.009669   0.018030  -0.000006
    10  H    0.006193  -0.004943  -0.009669   0.329362  -0.024957  -0.000106
    11  C   -0.004446   0.001941   0.018030  -0.024957   6.378799   0.390703
    12  H   -0.000002   0.000000  -0.000006  -0.000106   0.390703   0.454998
    13  H    0.000005   0.000000  -0.000050  -0.000072   0.408622  -0.024652
    14  H   -0.000054  -0.000004   0.000154  -0.000175   0.411916  -0.028316
    15  C   -0.004571   0.003103  -0.004430  -0.002841  -0.114421   0.011164
    16  H    0.000005   0.000000   0.003160   0.000021  -0.012781  -0.000044
    17  H   -0.000063   0.000001  -0.005698  -0.000079  -0.003897  -0.000088
    18  H   -0.000196   0.000028  -0.003575   0.000521  -0.000669   0.004798
    19  I    0.000002   0.000025   0.004867   0.001644   0.044806  -0.004175
             13         14         15         16         17         18
     1  C   -0.082071  -0.059083  -0.131350   0.027374   0.018614  -0.111560
     2  O    0.013271  -0.012549   0.004161  -0.000664  -0.000521   0.004557
     3  O    0.006159   0.001724  -0.005440  -0.042171  -0.018411  -0.113344
     4  O   -0.000032   0.000304   0.042521  -0.000926   0.001742  -0.005216
     5  C   -0.000710   0.000555  -0.034237   0.000828   0.000511  -0.001885
     6  H   -0.000012   0.000774  -0.002448   0.000001  -0.000001   0.000744
     7  H    0.000005  -0.000054  -0.004571   0.000005  -0.000063  -0.000196
     8  H    0.000000  -0.000004   0.003103   0.000000   0.000001   0.000028
     9  H   -0.000050   0.000154  -0.004430   0.003160  -0.005698  -0.003575
    10  H   -0.000072  -0.000175  -0.002841   0.000021  -0.000079   0.000521
    11  C    0.408622   0.411916  -0.114421  -0.012781  -0.003897  -0.000669
    12  H   -0.024652  -0.028316   0.011164  -0.000044  -0.000088   0.004798
    13  H    0.506580  -0.030473  -0.004151   0.001706   0.000328  -0.024144
    14  H   -0.030473   0.457705  -0.016917   0.000745   0.000215  -0.000296
    15  C   -0.004151  -0.016917   5.403518   0.389511   0.351558   0.478348
    16  H    0.001706   0.000745   0.389511   0.515003  -0.030218  -0.061352
    17  H    0.000328   0.000215   0.351558  -0.030218   0.520105  -0.043697
    18  H   -0.024144  -0.000296   0.478348  -0.061352  -0.043697   0.673698
    19  I    0.002093   0.005771   0.055442   0.000832  -0.001436   0.007895
             19
     1  C    0.221319
     2  O   -0.109572
     3  O   -0.126365
     4  O   -0.000450
     5  C   -0.001815
     6  H    0.000105
     7  H    0.000002
     8  H    0.000025
     9  H    0.004867
    10  H    0.001644
    11  C    0.044806
    12  H   -0.004175
    13  H    0.002093
    14  H    0.005771
    15  C    0.055442
    16  H    0.000832
    17  H   -0.001436
    18  H    0.007895
    19  I   52.877839
 Mulliken atomic charges:
              1
     1  C    0.368090
     2  O   -0.549934
     3  O   -0.450832
     4  O   -0.708509
     5  C   -0.390978
     6  H    0.174844
     7  H    0.181040
     8  H    0.192079
     9  H    0.506877
    10  H    0.514919
    11  C   -0.811922
    12  H    0.260718
    13  H    0.227601
    14  H    0.268002
    15  C   -0.418519
    16  H    0.208971
    17  H    0.211036
    18  H    0.195345
    19  I    0.021172
 Sum of Mulliken atomic charges =   0.00000
 Mulliken charges with hydrogens summed into heavy atoms:
              1
     1  C    0.368090
     2  O   -0.035014
     3  O    0.056045
     4  O   -0.708509
     5  C    0.156985
    11  C   -0.055601
    15  C    0.196834
    19  I    0.021172
 Sum of Mulliken charges with hydrogens summed into heavy atoms =   0.00000
 APT atomic charges:
              1
     1  C   -0.078232
     2  O   -0.349989
     3  O   -0.472496
     4  O   -0.385448
     5  C   -1.500385
     6  H    0.152730
     7  H    0.537963
     8  H    0.669400
     9  H    0.524603
    10  H    0.478699
    11  C   -1.401499
    12  H    0.557778
    13  H    0.409304
    14  H    0.565353
    15  C   -1.042673
    16  H    0.334401
    17  H    0.644666
    18  H    0.164632
    19  I    0.191191
 Sum of APT charges=   0.00000
 APT Atomic charges with hydrogens summed into heavy atoms:
              1
     1  C   -0.078232
     2  O    0.128710
     3  O    0.052107
     4  O   -0.385448
     5  C   -0.140291
     6  H    0.000000
     7  H    0.000000
     8  H    0.000000
     9  H    0.000000
    10  H    0.000000
    11  C    0.130936
    12  H    0.000000
    13  H    0.000000
    14  H    0.000000
    15  C    0.101027
    16  H    0.000000
    17  H    0.000000
    18  H    0.000000
    19  I    0.191191
 Sum of APT charges=   0.00000
 Electronic spatial extent (au):  <R**2>=           2070.7271
 Charge=              0.0000 electrons
 Dipole moment (field-independent basis, Debye):
    X=             -0.0032    Y=              2.8310    Z=              3.0529  Tot=              4.1635
 Quadrupole moment (field-independent basis, Debye-Ang):
   XX=            -69.7210   YY=            -73.7509   ZZ=            -74.4356
   XY=             -4.8787   XZ=             -5.0201   YZ=              1.2540
 Traceless Quadrupole moment (field-independent basis, Debye-Ang):
   XX=              2.9148   YY=             -1.1150   ZZ=             -1.7998
   XY=             -4.8787   XZ=             -5.0201   YZ=              1.2540
 Octapole moment (field-independent basis, Debye-Ang**2):
  XXX=             61.3630  YYY=             -3.2940  ZZZ=              2.1939  XYY=             17.0370
  XXY=             -1.5242  XXZ=              2.1123  XZZ=             26.4359  YZZ=             -1.7688
  YYZ=             -1.1330  XYZ=              5.7193
 Hexadecapole moment (field-independent basis, Debye-Ang**3):
 XXXX=          -1559.7554 YYYY=           -473.9773 ZZZZ=           -364.2971 XXXY=            -30.9121
 XXXZ=            -46.5660 YYYX=            -19.3913 YYYZ=              1.1046 ZZZX=            -16.6821
 ZZZY=             -0.3459 XXYY=           -341.5227 XXZZ=           -354.0811 YYZZ=           -154.1431
 XXYZ=            -17.6199 YYXZ=             -6.7559 ZZXY=            -15.9793
 N-N= 8.306390784850D+02 E-N=-1.897822786639D+04  KE= 7.291565616182D+03
  Exact polarizability:   0.000   0.000   0.000   0.000   0.000   0.000
 Approx polarizability: 192.155   7.952 152.481  -3.961 -14.730 140.829
   1 Symmetry operations used in ECPInt.
 ECPInt:  NShTT=    2556 NPrTT=   14579 LenC2=    2557 LenP2D=   13420.
 LDataN:  DoStor=T MaxTD1= 6 Len=  172
 Calling FoFJK, ICntrl=    100147 FMM=F ISym2X=0 I1Cent= 0 IOpClX= 0 NMat=1 NMatS=1 NMatT=0.
 Defaulting to unpruned grid for atomic number  53.
 ***** Axes restored to original set *****
 -------------------------------------------------------------------
 Center     Atomic                   Forces (Hartrees/Bohr)
 Number     Number              X              Y              Z
 -------------------------------------------------------------------
      1        6          -0.070714327   -0.135003808    0.053107877
      2        8           0.048741254    0.060754491   -0.020029783
      3        8          -0.065842015   -0.046069238   -0.019856966
      4        8           0.016820326   -0.004024290    0.013232536
      5        6           0.005314797   -0.000965099   -0.026323753
      6        1           0.002665967    0.010233743    0.037850220
      7        1          -0.015410998    0.017590285    0.001275894
      8        1          -0.015074228   -0.015648943   -0.008610677
      9        1           0.040648272    0.004095872    0.017441077
     10        1           0.011669882    0.025116123   -0.046436190
     11        6           0.035056105    0.016226174   -0.010892986
     12        1           0.016273564   -0.011221134    0.002576148
     13        1           0.007513203    0.016758764    0.013593711
     14        1          -0.029831634    0.000395475   -0.000433641
     15        6           0.003134865   -0.006986842    0.026696203
     16        1           0.020609092    0.026855481    0.000500883
     17        1          -0.025406148    0.018354608   -0.031428469
     18        1          -0.032707549    0.026521494    0.012638920
     19       53           0.046539571   -0.002983155   -0.014901003
 -------------------------------------------------------------------
 Cartesian Forces:  Max     0.135003808 RMS     0.032373125

 GradGradGradGradGradGradGradGradGradGradGradGradGradGradGradGradGradGrad
 Berny optimization.
 Internal  Forces:  Max     0.083041405 RMS     0.019932234
 Search for a saddle point.
 Step number   1 out of a maximum of   98
 All quantities printed in internal units (Hartrees-Bohrs-Radians)
 Swaping is turned off.
 Second derivative matrix not updated -- analytic derivatives used.
     Eigenvalues ---   -0.10602  -0.01278  -0.00813  -0.00388  -0.00061
     Eigenvalues ---   -0.00030   0.00204   0.00864   0.01149   0.01720
     Eigenvalues ---    0.02231   0.02753   0.03550   0.04224   0.04691
     Eigenvalues ---    0.05402   0.06270   0.06491   0.06686   0.07108
     Eigenvalues ---    0.07315   0.07670   0.08369   0.08550   0.08888
     Eigenvalues ---    0.09327   0.09662   0.11605   0.12551   0.13618
     Eigenvalues ---    0.13791   0.14210   0.15121   0.17900   0.18519
     Eigenvalues ---    0.20224   0.20787   0.21769   0.28693   0.30751
     Eigenvalues ---    0.38364   0.38623   0.39688   0.39863   0.40227
     Eigenvalues ---    0.41503   0.41823   0.43359   0.43644   0.44025
     Eigenvalues ---    0.443371000.000001000.000001000.000001000.00000
     Eigenvalues --- 1000.000001000.000001000.000001000.000001000.00000
     Eigenvalues --- 1000.000001000.000001000.000001000.000001000.00000
     Eigenvalues --- 1000.000001000.000001000.000001000.000001000.00000
     Eigenvalues --- 1000.000001000.000001000.000001000.000001000.00000
     Eigenvalues --- 1000.000001000.000001000.000001000.000001000.00000
     Eigenvalues --- 1000.000001000.000001000.000001000.000001000.00000
     Eigenvalues --- 1000.000001000.000001000.00000
 Eigenvectors required to have negative eigenvalues:
                          R9        R6        R10       R5        D13
   1                    0.49937  -0.37827  -0.32515   0.28263   0.21857
                          A29       D10       R1        A34       A33
   1                    0.20988   0.20526  -0.19850   0.16459   0.15068
 RFO step:  Lambda0=1.028464694D-02 Lambda=-1.30077056D-01.
 Linear search not attempted -- option 19 set.
 Maximum step size (   0.300) exceeded in Quadratic search.
    -- Step size scaled by   0.218
 Iteration  1 RMS(Cart)=  0.06243401 RMS(Int)=  0.00155697
 Iteration  2 RMS(Cart)=  0.00214993 RMS(Int)=  0.00036095
 Iteration  3 RMS(Cart)=  0.00000332 RMS(Int)=  0.00036095
 Iteration  4 RMS(Cart)=  0.00000000 RMS(Int)=  0.00036095
 Variable       Old X    -DE/DX   Delta X   Delta X   Delta X     New X
                                 (Linear)    (Quad)   (Total)
    R1        2.70175  -0.08304   0.00000  -0.07305  -0.07306   2.62869
    R2        2.89761   0.00545   0.00000   0.01367   0.01292   2.91053
    R3        3.50741   0.04889   0.00000   0.07004   0.07026   3.57766
    R4        3.79835   0.04868   0.00000   0.05822   0.05822   3.85657
    R5        2.25949   0.01382   0.00000   0.08082   0.08044   2.33992
    R6        2.37232  -0.06100   0.00000   0.00421   0.00442   2.37673
    R7        2.65297   0.01970   0.00000   0.00912   0.00918   2.66215
    R8        2.68972   0.02011   0.00000   0.00958   0.00958   2.69930
    R9        3.00221  -0.03044   0.00000  -0.11808  -0.11811   2.88410
   R10        2.40079  -0.01672   0.00000  -0.11051  -0.11095   2.28984
   R11        1.98899   0.03542   0.00000   0.01208   0.01208   2.00107
   R12        2.01041   0.02283   0.00000   0.00742   0.00742   2.01784
   R13        2.02082   0.02187   0.00000   0.00681   0.00681   2.02763
   R14        2.03151   0.01554   0.00000   0.00544   0.00544   2.03695
   R15        2.01681   0.01822   0.00000   0.00651   0.00651   2.02332
   R16        1.99033   0.02823   0.00000   0.01121   0.01121   2.00153
   R17        3.38542   0.01949   0.00000   0.02059   0.02124   3.40666
   R18        1.99098   0.03126   0.00000   0.01045   0.01045   2.00143
   R19        1.98774   0.03335   0.00000   0.01077   0.01077   1.99851
   R20        1.99466   0.02638   0.00000   0.00203   0.00234   1.99700
    A1        1.75099   0.03551   0.00000   0.03213   0.03207   1.78306
    A2        1.89058   0.00118   0.00000  -0.02676  -0.02628   1.86430
    A3        1.97557  -0.00596   0.00000   0.00053   0.00048   1.97604
    A4        2.11720  -0.01315   0.00000  -0.03741  -0.03648   2.08072
    A5        2.37030   0.00110   0.00000   0.03364   0.03309   2.40339
    A6        2.07196  -0.00061   0.00000  -0.00421  -0.00480   2.06716
    A7        1.78638   0.02337   0.00000   0.01654   0.01622   1.80260
    A8        2.20439  -0.00649   0.00000  -0.02570  -0.02558   2.17881
    A9        1.57717   0.03985   0.00000   0.05062   0.05096   1.62813
   A10        1.71307  -0.02291   0.00000  -0.03365  -0.03363   1.67944
   A11        1.86223   0.01914   0.00000   0.00217   0.00218   1.86441
   A12        1.93466   0.00150   0.00000  -0.00099  -0.00100   1.93366
   A13        1.92800  -0.00514   0.00000  -0.00751  -0.00752   1.92048
   A14        1.98433  -0.01304   0.00000  -0.00290  -0.00290   1.98143
   A15        1.82032   0.00193   0.00000   0.00917   0.00918   1.82949
   A16        1.93024  -0.00387   0.00000   0.00032   0.00030   1.93054
   A17        2.57429   0.00728   0.00000   0.01611   0.01632   2.59061
   A18        2.59249   0.02832   0.00000   0.01228   0.01120   2.60368
   A19        1.91401  -0.01801   0.00000  -0.02181  -0.02180   1.89221
   A20        1.90688   0.01922   0.00000   0.01865   0.01852   1.92541
   A21        1.98541  -0.00767   0.00000  -0.00300  -0.00303   1.98238
   A22        1.91165  -0.00209   0.00000  -0.00280  -0.00268   1.90897
   A23        1.79184   0.00955   0.00000   0.00752   0.00743   1.79926
   A24        1.95039  -0.00265   0.00000  -0.00059  -0.00052   1.94986
   A25        1.31040   0.01101   0.00000   0.02707   0.02709   1.33749
   A26        1.32453  -0.01387   0.00000  -0.02896  -0.02911   1.29541
   A27        1.86244   0.00571   0.00000  -0.00094  -0.00069   1.86176
   A28        2.21568  -0.01901   0.00000  -0.00780  -0.00790   2.20778
   A29        1.72918  -0.01212   0.00000  -0.04138  -0.04075   1.68843
   A30        1.96351  -0.00425   0.00000   0.00164   0.00118   1.96469
   A31        1.80805   0.00850   0.00000   0.01487   0.01424   1.82229
   A32        1.82747   0.02788   0.00000   0.03629   0.03610   1.86358
   A33        1.89667   0.00259   0.00000  -0.03597  -0.03632   1.86036
   A34        2.45368  -0.01366   0.00000  -0.07138  -0.07191   2.38177
    D1        1.92512  -0.00044   0.00000   0.03737   0.03659   1.96171
    D2        0.79467  -0.00483   0.00000   0.04141   0.04167   0.83634
    D3       -2.07619   0.00518   0.00000   0.01426   0.01453  -2.06166
    D4        1.23420   0.00852   0.00000   0.01806   0.01803   1.25223
    D5       -2.95358   0.00679   0.00000   0.01278   0.01259  -2.94099
    D6       -0.76088   0.01279   0.00000   0.02454   0.02445  -0.73643
    D7       -0.95446  -0.00595   0.00000   0.01375   0.01396  -0.94051
    D8        1.14094  -0.00768   0.00000   0.00847   0.00851   1.14946
    D9       -2.94954  -0.00168   0.00000   0.02023   0.02038  -2.92916
   D10       -2.19942   0.02147   0.00000  -0.01546  -0.01557  -2.21498
   D11        0.58177   0.00649   0.00000   0.00845   0.00921   0.59098
   D12        0.13956   0.00352   0.00000  -0.01112  -0.01172   0.12785
   D13       -1.64211   0.00069   0.00000  -0.02481  -0.02455  -1.66666
   D14        3.07515   0.01254   0.00000   0.02866   0.02913   3.10428
   D15       -0.82506  -0.01024   0.00000   0.02061   0.02064  -0.80442
   D16        1.20337   0.00632   0.00000   0.02796   0.02860   1.23197
   D17       -1.43505   0.00457   0.00000   0.00381   0.00415  -1.43090
   D18        0.73396   0.00210   0.00000   0.00104   0.00139   0.73535
   D19        2.87982  -0.00537   0.00000  -0.00446  -0.00410   2.87572
   D20        0.31737   0.00485   0.00000  -0.00399  -0.00434   0.31303
   D21        2.48639   0.00238   0.00000  -0.00675  -0.00711   2.47928
   D22       -1.65094  -0.00509   0.00000  -0.01225  -0.01260  -1.66354
   D23        1.68727   0.01794   0.00000  -0.00260  -0.00227   1.68501
   D24        0.00302  -0.01354   0.00000  -0.03518  -0.03547  -0.03245
   D25       -2.17012   0.00420   0.00000   0.01183   0.01183  -2.15828
   D26        0.04295   0.00228   0.00000  -0.00888  -0.00945   0.03349
   D27        0.88228  -0.00239   0.00000  -0.01514  -0.01489   0.86739
   D28        2.93374  -0.00402   0.00000  -0.01473  -0.01486   2.91888
   D29        0.52036   0.00411   0.00000  -0.02986  -0.02978   0.49058
   D30        1.36424   0.00298   0.00000  -0.04682  -0.04608   1.31816
   D31       -1.39542  -0.00032   0.00000  -0.01967  -0.01963  -1.41505
   D32       -0.55154  -0.00145   0.00000  -0.03663  -0.03593  -0.58747
   D33        2.82707  -0.01075   0.00000  -0.04286  -0.04334   2.78373
   D34       -2.61223  -0.01188   0.00000  -0.05982  -0.05964  -2.67187
         Item               Value     Threshold  Converged?
 Maximum Force            0.083041     0.000450     NO 
 RMS     Force            0.019932     0.000300     NO 
 Maximum Displacement     0.191219     0.001800     NO 
 RMS     Displacement     0.062810     0.001200     NO 
 Predicted change in Energy=-3.237892D-02
 GradGradGradGradGradGradGradGradGradGradGradGradGradGradGradGradGradGrad

                          Input orientation:                          
 ---------------------------------------------------------------------
 Center     Atomic      Atomic             Coordinates (Angstroms)
 Number     Number       Type             X           Y           Z
 ---------------------------------------------------------------------
      1          6           0       -0.171892    0.062859    0.523791
      2          8           0       -0.915628   -1.104167    0.664906
      3          8           0       -0.777654    1.065488   -1.059275
      4          8           0       -2.676714   -0.817168   -0.882596
      5          6           0       -3.814854   -0.760916   -0.021308
      6          1           0       -3.448807   -0.782904    0.972091
      7          1           0       -4.411233    0.098170   -0.236910
      8          1           0       -4.395172   -1.658011   -0.119922
      9          1           0       -1.812787    0.381410   -1.265132
     10          1           0       -1.947719   -1.230604   -0.007423
     11          6           0       -0.358264    0.734473    1.897242
     12          1           0        0.204243    0.176654    2.628207
     13          1           0       -0.001605    1.743624    1.869068
     14          1           0       -1.350102    0.679422    2.264745
     15          6           0       -1.235658    2.101518   -0.221749
     16          1           0       -0.391345    2.694476    0.017522
     17          1           0       -2.111761    2.678371   -0.356402
     18          1           0       -1.391286    1.506597    0.637675
     19         53           0        1.716702   -0.266322   -0.176041
 ---------------------------------------------------------------------
                    Distance matrix (angstroms):
                    1          2          3          4          5
     1  C    0.000000
     2  O    1.391045   0.000000
     3  O    1.969343   2.774751   0.000000
     4  O    3.004414   2.361896   2.679933   0.000000
     5  C    3.774508   2.999037   3.692927   1.428406   0.000000
     6  H    3.413864   2.571881   3.831196   2.009270   1.058922
     7  H    4.307195   3.805016   3.849011   2.064779   1.067793
     8  H    4.605633   3.609699   4.624529   2.059559   1.072974
     9  H    2.448317   2.595550   1.257712   1.526202   2.619213
    10  H    2.260264   1.238235   2.783430   1.211730   1.925356
    11  C    1.540185   2.282521   3.004405   3.938312   4.226706
    12  H    2.140793   2.597915   3.918121   4.649014   4.904295
    13  H    2.159570   3.224183   3.104403   4.613623   4.938331
    14  H    2.190720   2.435044   3.394975   3.728999   3.657269
    15  C    2.417345   3.341405   1.408749   3.321459   3.858232
    16  H    2.688843   3.888916   1.990560   4.285413   4.864325
    17  H    3.373238   4.096510   2.207999   3.579782   3.852468
    18  H    1.893218   2.653880   1.857622   3.059973   3.383719
    19  I    2.040811   2.887618   2.962369   4.483832   5.555779
                    6          7          8          9         10
     6  H    0.000000
     7  H    1.778831   0.000000
     8  H    1.689352   1.760146   0.000000
     9  H    3.006219   2.808805   3.484172   0.000000
    10  H    1.847471   2.808417   2.487038   2.049055   0.000000
    11  C    3.565080   4.624505   5.107794   3.498700   3.164750
    12  H    4.124106   5.433017   5.663287   4.389581   3.682100
    13  H    4.367049   5.156305   5.901748   3.867715   4.019280
    14  H    2.865993   3.995830   4.519146   3.572523   3.027886
    15  C    3.826640   3.754719   4.911919   2.092964   3.414089
    16  H    4.727732   4.792185   5.915544   3.002661   4.222461
    17  H    3.941194   3.458220   4.906536   2.488213   3.927949
    18  H    3.096295   3.445090   4.428547   2.250418   2.866712
    19  I    5.316724   6.139067   6.268568   3.750062   3.792921
                   11         12         13         14         15
    11  C    0.000000
    12  H    1.077908   0.000000
    13  H    1.070693   1.753300   0.000000
    14  H    1.059166   1.673579   1.762819   0.000000
    15  C    2.669972   3.728359   2.454076   2.866724   0.000000
    16  H    2.715889   3.675572   2.117603   3.166965   1.059110
    17  H    3.454331   4.531043   3.206124   3.383243   1.057567
    18  H    1.802726   2.876922   1.871824   1.825725   1.056768
    19  I    3.099286   3.216764   3.342893   4.032016   3.784862
                   16         17         18         19
    16  H    0.000000
    17  H    1.760656   0.000000
    18  H    1.671983   1.697152   0.000000
    19  I    3.639733   4.833309   3.669464   0.000000
 Stoichiometry    C4H11IO3
 Framework group  C1[X(C4H11IO3)]
 Deg. of freedom    51
 Full point group                 C1      NOp   1
 Largest Abelian subgroup         C1      NOp   1
 Largest concise Abelian subgroup C1      NOp   1
                         Standard orientation:                         
 ---------------------------------------------------------------------
 Center     Atomic      Atomic             Coordinates (Angstroms)
 Number     Number       Type             X           Y           Z
 ---------------------------------------------------------------------
      1          6           0       -0.186141    0.150631    0.508221
      2          8           0       -0.916388   -0.993126    0.814105
      3          8           0       -0.803133    0.912187   -1.199896
      4          8           0       -2.680377   -0.948150   -0.755888
      5          6           0       -3.819253   -0.783636    0.090422
      6          1           0       -3.453164   -0.660656    1.076409
      7          1           0       -4.425464    0.029417   -0.243693
      8          1           0       -4.389162   -1.692244    0.120561
      9          1           0       -1.830265    0.194058   -1.305401
     10          1           0       -1.946825   -1.225226    0.167920
     11          6           0       -0.380509    1.007638    1.773104
     12          1           0        0.188259    0.565330    2.574823
     13          1           0       -0.035513    2.006667    1.601923
     14          1           0       -1.371715    0.993786    2.146133
     15          6           0       -1.273219    2.050982   -0.516711
     16          1           0       -0.435850    2.681456   -0.364961
     17          1           0       -2.155895    2.592911   -0.730357
     18          1           0       -1.422135    1.581902    0.418461
     19         53           0        1.706257   -0.252611   -0.140728
 ---------------------------------------------------------------------
 Rotational constants (GHZ):      1.9835274      0.5843016      0.5575648
 Basis read from rwf:  (5D, 7F)
 Pseudo-potential data read from rwf file.
 There are   184 symmetry adapted basis functions of A   symmetry.
 Integral buffers will be    262144 words long.
 Raffenetti 2 integral format.
 Two-electron integral symmetry is turned on.
   184 basis functions,   382 primitive gaussians,   194 cartesian basis functions
    56 alpha electrons       56 beta electrons
       nuclear repulsion energy       830.5410239463 Hartrees.
 NAtoms=   19 NActive=   19 NUniq=   19 SFac= 7.50D-01 NAtFMM=   80 NAOKFM=F Big=F
 One-electron integrals computed using PRISM.
   1 Symmetry operations used in ECPInt.
 ECPInt:  NShTT=    2556 NPrTT=   14579 LenC2=    2483 LenP2D=   10037.
 LDataN:  DoStor=T MaxTD1= 4 Len=   56
 NBasis=   184 RedAO= T  NBF=   184
 NBsUse=   184 1.00D-06 NBFU=   184
 Defaulting to unpruned grid for atomic number  53.
 Initial guess read from the read-write file.
 B after Tr=     0.000000    0.000000    0.000000
         Rot=    1.000000    0.000000    0.000000    0.000000 Ang=   0.00 deg.
 Initial guess orbital symmetries:
       Occupied  (A) (A) (A) (A) (A) (A) (A) (A) (A) (A) (A) (A)
                 (A) (A) (A) (A) (A) (A) (A) (A) (A) (A) (A) (A)
                 (A) (A) (A) (A) (A) (A) (A) (A) (A) (A) (A) (A)
                 (A) (A) (A) (A) (A) (A) (A) (A) (A) (A) (A) (A)
                 (A) (A) (A) (A) (A) (A) (A) (A)
       Virtual   (A) (A) (A) (A) (A) (A) (A) (A) (A) (A) (A) (A)
                 (A) (A) (A) (A) (A) (A) (A) (A) (A) (A) (A) (A)
                 (A) (A) (A) (A) (A) (A) (A) (A) (A) (A) (A) (A)
                 (A) (A) (A) (A) (A) (A) (A) (A) (A) (A) (A) (A)
                 (A) (A) (A) (A) (A) (A) (A) (A) (A) (A) (A) (A)
                 (A) (A) (A) (A) (A) (A) (A) (A) (A) (A) (A) (A)
                 (A) (A) (A) (A) (A) (A) (A) (A) (A) (A) (A) (A)
                 (A) (A) (A) (A) (A) (A) (A) (A) (A) (A) (A) (A)
                 (A) (A) (A) (A) (A) (A) (A) (A) (A) (A) (A) (A)
                 (A) (A) (A) (A) (A) (A) (A) (A) (A) (A) (A) (A)
                 (A) (A) (A) (A) (A) (A) (A) (A)
 Harris functional with IExCor=  402 diagonalized for initial guess.
 ExpMin= 4.38D-02 ExpMax= 2.75D+05 ExpMxC= 4.12D+04 IAcc=2 IRadAn=         0 AccDes= 0.00D+00
 HarFok:  IExCor=  402 AccDes= 0.00D+00 IRadAn=         0 IDoV= 1
 ScaDFX=  1.000000  1.000000  1.000000  1.000000
 Defaulting to unpruned grid for atomic number  53.
 FoFCou: FMM=F IPFlag=           0 FMFlag=      100000 FMFlg1=           0
         NFxFlg=           0 DoJE=T BraDBF=F KetDBF=T FulRan=T
         Omega=  0.000000  0.000000  1.000000  0.000000  0.000000 ICntrl=     500 IOpCl=  0
         NMat0=    1 NMatS0=    1 NMatT0=    0 NMatD0=    1 NMtDS0=    0 NMtDT0=    0
         I1Cent=           4 NGrid=           0.
 Petite list used in FoFCou.
 Requested convergence on RMS density matrix=1.00D-08 within 128 cycles.
 Requested convergence on MAX density matrix=1.00D-06.
 Requested convergence on             energy=1.00D-06.
 No special actions if energy rises.
 Defaulting to unpruned grid for atomic number  53.
 SCF Done:  E(RB3LYP) =  -7304.38720253     A.U. after   15 cycles
             Convg  =    0.3442D-08             -V/T =  2.0018
   1 Symmetry operations used in ECPInt.
 ECPInt:  NShTT=    2556 NPrTT=   14579 LenC2=    2483 LenP2D=   10037.
 LDataN:  DoStor=T MaxTD1= 5 Len=  102
 Calling FoFJK, ICntrl=      2127 FMM=F ISym2X=0 I1Cent= 0 IOpClX= 0 NMat=1 NMatS=1 NMatT=0.
 Defaulting to unpruned grid for atomic number  53.
 ***** Axes restored to original set *****
 -------------------------------------------------------------------
 Center     Atomic                   Forces (Hartrees/Bohr)
 Number     Number              X              Y              Z
 -------------------------------------------------------------------
      1        6          -0.060723829   -0.118719143    0.046778883
      2        8           0.042934412    0.053838826   -0.016511943
      3        8          -0.055351316   -0.041075093   -0.019196993
      4        8           0.015450523   -0.002145252    0.014261491
      5        6           0.005751059   -0.002158744   -0.021639705
      6        1           0.000880642    0.010136935    0.031386113
      7        1          -0.012635789    0.014943334    0.000126253
      8        1          -0.012609192   -0.012739559   -0.008150667
      9        1           0.032753253    0.001253423    0.019344683
     10        1           0.008455119    0.022226253   -0.045553661
     11        6           0.032422387    0.013231398   -0.011202144
     12        1           0.014270110   -0.009367188    0.001047330
     13        1           0.007216113    0.013802837    0.011905117
     14        1          -0.025101018    0.000213792    0.000358451
     15        6           0.003262070   -0.006011789    0.025205390
     16        1           0.016132949    0.023789300   -0.000957995
     17        1          -0.020746650    0.012227112   -0.030257636
     18        1          -0.034749187    0.029169648    0.016355367
     19       53           0.042388343   -0.002616091   -0.013298336
 -------------------------------------------------------------------
 Cartesian Forces:  Max     0.118719143 RMS     0.028707542

 GradGradGradGradGradGradGradGradGradGradGradGradGradGradGradGradGradGrad
 Berny optimization.
 Internal  Forces:  Max     0.071708352 RMS     0.017608364
 Search for a saddle point.
 Step number   2 out of a maximum of   98
 All quantities printed in internal units (Hartrees-Bohrs-Radians)
 Swaping is turned off.
 Update second derivatives using D2CorX and points    1    2
     Eigenvalues ---   -0.10505  -0.01216  -0.00480  -0.00411  -0.00053
     Eigenvalues ---   -0.00025   0.00204   0.00867   0.01181   0.01691
     Eigenvalues ---    0.02236   0.02752   0.03552   0.04222   0.04711
     Eigenvalues ---    0.05399   0.06284   0.06499   0.06729   0.07139
     Eigenvalues ---    0.07316   0.07680   0.08432   0.08593   0.08886
     Eigenvalues ---    0.09286   0.09647   0.11606   0.12622   0.13760
     Eigenvalues ---    0.13796   0.14274   0.15169   0.18040   0.18525
     Eigenvalues ---    0.20220   0.20781   0.21795   0.28780   0.30791
     Eigenvalues ---    0.38363   0.38622   0.39713   0.39865   0.40229
     Eigenvalues ---    0.41501   0.41828   0.43358   0.43642   0.44025
     Eigenvalues ---    0.443221000.000001000.000001000.000001000.00000
     Eigenvalues --- 1000.000001000.000001000.000001000.000001000.00000
     Eigenvalues --- 1000.000001000.000001000.000001000.000001000.00000
     Eigenvalues --- 1000.000001000.000001000.000001000.000001000.00000
     Eigenvalues --- 1000.000001000.000001000.000001000.000001000.00000
     Eigenvalues --- 1000.000001000.000001000.000001000.000001000.00000
     Eigenvalues --- 1000.000001000.000001000.000001000.000001000.00000
     Eigenvalues --- 1000.000001000.000001000.00000
 Eigenvectors required to have negative eigenvalues:
                          R9        R6        R10       R5        D13
   1                    0.49543  -0.38074  -0.34030   0.29274   0.21457
                          R1        D10       A29       A34       A33
   1                   -0.20752   0.20120   0.19929   0.16259   0.15072
 RFO step:  Lambda0=8.396482129D-03 Lambda=-1.11948285D-01.
 Linear search not attempted -- option 19 set.
 Maximum step size (   0.300) exceeded in Quadratic search.
    -- Step size scaled by   0.220
 Iteration  1 RMS(Cart)=  0.06762594 RMS(Int)=  0.00166002
 Iteration  2 RMS(Cart)=  0.00226890 RMS(Int)=  0.00031796
 Iteration  3 RMS(Cart)=  0.00000388 RMS(Int)=  0.00031795
 Iteration  4 RMS(Cart)=  0.00000000 RMS(Int)=  0.00031795
 Variable       Old X    -DE/DX   Delta X   Delta X   Delta X     New X
                                 (Linear)    (Quad)   (Total)
    R1        2.62869  -0.07171   0.00000  -0.06480  -0.06483   2.56386
    R2        2.91053   0.00476   0.00000   0.00741   0.00696   2.91749
    R3        3.57766   0.04445   0.00000   0.05237   0.05240   3.63007
    R4        3.85657   0.04421   0.00000   0.05286   0.05286   3.90944
    R5        2.33992   0.01502   0.00000   0.07826   0.07787   2.41779
    R6        2.37673  -0.05324   0.00000   0.03279   0.03301   2.40974
    R7        2.66215   0.01707   0.00000   0.00564   0.00568   2.66783
    R8        2.69930   0.01626   0.00000   0.00947   0.00947   2.70876
    R9        2.88410  -0.03058   0.00000  -0.16255  -0.16254   2.72156
   R10        2.28984  -0.01700   0.00000  -0.09851  -0.09894   2.19090
   R11        2.00107   0.02953   0.00000   0.01018   0.01018   2.01125
   R12        2.01784   0.01905   0.00000   0.00620   0.00620   2.02404
   R13        2.02763   0.01822   0.00000   0.00550   0.00550   2.03313
   R14        2.03695   0.01300   0.00000   0.00508   0.00508   2.04203
   R15        2.02332   0.01510   0.00000   0.00588   0.00588   2.02920
   R16        2.00153   0.02362   0.00000   0.00994   0.00994   2.01147
   R17        3.40666   0.01941   0.00000   0.03653   0.03710   3.44376
   R18        2.00143   0.02596   0.00000   0.00999   0.00999   2.01142
   R19        1.99851   0.02771   0.00000   0.01052   0.01052   2.00903
   R20        1.99700   0.02303   0.00000   0.00547   0.00575   2.00275
    A1        1.78306   0.03272   0.00000   0.03462   0.03493   1.81799
    A2        1.86430   0.00094   0.00000  -0.03042  -0.03009   1.83421
    A3        1.97604  -0.00438   0.00000   0.00567   0.00568   1.98172
    A4        2.08072  -0.01289   0.00000  -0.03255  -0.03207   2.04865
    A5        2.40339   0.00061   0.00000   0.02561   0.02542   2.42881
    A6        2.06716  -0.00101   0.00000  -0.00259  -0.00336   2.06380
    A7        1.80260   0.01978   0.00000   0.01461   0.01444   1.81704
[...]
 56714,-0.00124094,0.00156247,0.00841966,0.00386336,0.00491709,0.008099
 68,0.00904864,0.00482280,-0.19968412,0.00955752,-0.00007617,0.43769391
 ,-0.00013348,-0.00233314,0.00221575,0.00161561,0.00196883,0.00071527,-
 0.00300938,-0.00762237,-0.00434917,0.00981362,-0.08784258,0.01495382,0
 .01214973,0.61802220,0.00082890,0.00214910,-0.00195426,-0.00286350,-0.
 00286513,-0.00502849,0.00048909,-0.00076287,0.00071009,0.02117801,0.01
 301661,-0.08227625,0.01270232,-0.01264278,0.61667828,-0.00047976,0.000
 07527,0.00048232,0.00016911,-0.00043812,-0.00090708,-0.00063001,-0.001
 21670,-0.00083467,-0.02992499,0.01809631,0.02717068,-0.06616249,0.0317
 3591,0.04832214,0.08227617,0.00002968,0.00063025,-0.00062033,-0.000312
 03,-0.00034320,0.00065744,0.00081020,0.00037586,0.00035968,0.00332948,
 0.00379476,0.00190808,0.03519712,-0.13048275,-0.11295964,-0.04099237,0
 .13053471,-0.00025735,-0.00073316,0.00056650,0.00100010,0.00047969,0.0
 0042293,0.00024439,0.00104572,0.00003714,0.00330852,0.00256616,0.00629
 984,0.05462253,-0.11342451,-0.22943641,-0.06288208,0.12469216,0.238546
 39,0.00115812,0.00144357,-0.00132149,-0.00232221,-0.00181004,-0.002131
 60,-0.00010471,-0.00084008,0.00022961,-0.02761579,0.01920486,-0.035562
 08,-0.06778900,0.02971958,-0.05941112,0.00496356,-0.00506830,0.0064705
 3,0.08788087,-0.00024872,0.00018047,-0.00004100,0.00023018,0.00006258,
 0.00022664,0.00030299,0.00000840,0.00033839,0.00149082,0.00188677,0.00
 000811,0.03639142,-0.10849146,0.10389815,-0.00645476,0.00982776,-0.015
 72989,-0.03991705,0.10733842,0.00026513,0.00033817,-0.00020449,-0.0002
 3242,-0.00015454,0.00031251,-0.00016644,-0.00047663,-0.00004769,0.0002
 1705,-0.00352585,0.00706870,-0.07040185,0.10532046,-0.25672163,-0.0068
 2001,0.01224825,-0.01875372,0.07512084,-0.11340060,0.26677058,0.000791
 89,-0.00088263,0.00073813,-0.00019381,0.00034852,-0.00061710,-0.002190
 94,-0.00338851,-0.00213120,-0.03187128,-0.03794044,0.00336493,-0.07450
 469,-0.07775936,0.00265264,0.00553637,0.00773311,-0.00160482,0.0056751
 6,0.00938115,0.00088029,0.09582725,0.00026151,-0.00012531,0.00006618,-
 0.00019326,-0.00001451,-0.00019273,0.00010342,0.00048487,0.00008298,0.
 00119781,0.00986703,-0.00096693,-0.08946211,-0.30255611,0.01311161,-0.
 00442181,-0.01318764,0.00193326,-0.00358151,-0.01072601,-0.00067518,0.
 09509119,0.31583519,-0.00014318,-0.00020365,0.00025615,0.00023312,0.00
 037350,-0.00013152,0.00020887,0.00044471,0.00000790,0.00081731,0.00191
 117,0.00210919,0.00458831,0.01200180,-0.05519781,-0.00946913,-0.025668
 80,0.00324933,0.01013422,0.02650729,0.00092893,-0.00565609,-0.01373555
 ,0.04921498,-0.01112539,0.02305538,-0.02455427,-0.01338815,-0.01477471
 ,-0.00072327,-0.01999888,0.01696018,0.01411108,-0.03931749,0.01812812,
 -0.01226515,-0.02248498,-0.01356624,0.00055447,0.00239964,-0.00109703,
 -0.00027427,0.00117204,-0.00061876,-0.00012639,0.00081866,0.00127945,-
 0.00025831,0.06245573,-0.00288710,0.04794909,-0.01913695,-0.01694931,-
 0.01964605,-0.00294813,0.03767878,-0.00978381,0.03151737,0.00109637,-0
 .08149088,0.00232145,-0.01529845,0.02019552,-0.00226169,0.00365065,-0.
 00066296,-0.00135451,0.00125160,-0.00027368,0.00079333,0.00856057,0.00
 028248,-0.00057047,-0.03701777,0.08492943,-0.02046440,0.00366187,-0.01
 131658,0.00088047,-0.00496193,0.00025791,0.01358297,0.01319397,-0.0151
 5060,-0.00347703,0.00163574,-0.03988936,-0.00211961,0.00412240,-0.0020
 0417,0.00166536,0.00047797,-0.00034818,-0.00087642,-0.00073392,0.00004
 699,0.00173567,-0.00021452,-0.00015175,-0.00634293,-0.04061644,0.06861
 977,-0.02226409,-0.02824620,0.01827221,0.01264080,0.02382395,0.0125791
 3,-0.01164862,-0.00078275,-0.00988537,-0.07242937,-0.00114630,-0.03099
 063,-0.02157819,0.01070602,-0.02428582,0.00219486,0.00053718,-0.000814
 57,-0.00252289,-0.00069166,0.00142052,0.00101718,-0.00022146,-0.000590
 49,0.02371272,0.01164733,0.01325088,0.08424079,-0.01206178,-0.00588985
 ,-0.00496006,0.00632995,-0.01330407,0.00571790,0.00087640,0.00269365,-
 0.00216530,0.01740995,-0.05915443,0.05927196,0.00261605,-0.00037878,-0
 .00072732,0.00011682,-0.00014081,0.00070551,-0.00038396,0.00024897,-0.
 00048026,-0.00138877,0.00015915,-0.00091013,0.00399775,-0.02037059,0.0
 3003898,-0.01770680,0.09749022,-0.02169200,-0.03223004,0.04069447,0.03
 906195,0.03266444,-0.00911647,-0.01374378,0.00027784,-0.01493945,-0.06
 159207,0.06154852,-0.19426187,-0.00939401,-0.00796683,0.01441044,0.003
 53884,-0.00116655,-0.00047376,0.00691162,-0.00100589,0.00059977,0.0008
 5611,0.00057818,-0.00016061,0.01898502,0.03075486,0.00358383,0.0282740
 3,-0.08677757,0.17104521,-0.09993393,-0.03492343,-0.04217018,-0.020494
 14,-0.03084557,-0.01059133,-0.01270545,-0.00176791,-0.01942244,-0.0024
 6507,-0.00090617,-0.00238241,0.00075957,-0.00004887,-0.00019567,0.0000
 1613,0.00002413,0.00001602,-0.00016961,0.00005407,-0.00000097,-0.00013
 401,-0.00003016,0.00002083,0.00133996,0.00367497,0.00052172,0.00280844
 ,-0.00048011,0.00393575,0.55644407,-0.05004327,-0.10860337,-0.04536746
 ,-0.02828857,-0.02061782,-0.01382345,0.01982317,0.00493602,0.02188730,
 0.00008776,0.00442956,-0.00354607,-0.00001766,0.00026486,-0.00012138,-
 0.00001442,-0.00008726,0.00008429,-0.00013032,-0.00002374,-0.00004175,
 0.00014998,0.00001034,0.00002106,-0.00296950,-0.00734586,0.00007882,0.
 00286851,-0.00013793,0.00534493,-0.01397440,0.56248306,-0.05446206,-0.
 03974077,-0.12052235,0.01333638,0.00925287,0.01535615,-0.01381530,-0.0
 0492361,-0.01401688,0.00082419,-0.00264556,0.00294027,-0.00017764,-0.0
 0007558,0.00025899,0.00001422,0.00004831,-0.00006547,0.00016422,0.0000
 0909,0.00000380,-0.00004438,-0.00001336,-0.00002629,0.00171423,0.00382
 062,0.00005906,-0.00209828,0.00092001,-0.00412340,-0.03651040,-0.06219
 957,0.52604992,-0.01218654,0.01268793,-0.00815786,0.00158146,-0.001175
 93,0.00101633,-0.00187691,-0.00125842,-0.00255247,-0.00007723,-0.00059
 617,0.00042995,0.00005859,-0.00004352,0.00003785,-0.00000055,0.0000181
 4,-0.00001015,0.00001436,0.00000502,0.00000638,-0.00003153,-0.00000544
 ,-0.00000468,0.00060633,0.00117067,0.00001774,-0.00032588,-0.00007734,
 -0.00053093,-0.15340994,0.10559461,-0.08474912,0.16343265,-0.01145492,
 0.01017227,-0.00870648,0.00097913,-0.00008660,-0.00006764,-0.00416724,
 0.00020241,-0.00430379,-0.00012250,-0.00053039,0.00026246,0.00009142,-
 0.00001379,-0.00000240,-0.00001338,0.00000470,0.00000203,0.00000018,0.
 00000467,-0.00000160,-0.00002207,0.00000018,0.00000149,0.00031820,0.00
 100377,-0.00006752,-0.00013781,0.00006994,-0.00036158,0.10832089,-0.15
 552896,0.08749836,-0.11559115,0.16611353,-0.01368475,0.01321281,-0.011
 29512,0.00278591,0.00045533,0.00069160,-0.00507783,-0.00176568,-0.0039
 9632,-0.00021488,-0.00106859,0.00041565,0.00007208,-0.00007558,0.00001
 935,-0.00000184,0.00001587,-0.00001198,0.00001662,0.00000962,0.0000062
 4,-0.00004536,0.,0.00000201,0.00077660,0.00198899,0.00020173,-0.000462
 95,-0.00001532,-0.00067628,-0.08304127,0.08393633,-0.11065896,0.092533
 26,-0.08962123,0.12054467,-0.01071963,-0.01081803,0.01326471,-0.001971
 52,-0.00368645,-0.00402614,0.00090130,0.00187035,0.00014254,-0.0001730
 9,0.00091503,-0.00074520,0.00010327,0.00008032,-0.00008200,-0.00001789
 ,-0.00002110,0.00003112,-0.00005880,-0.00000630,-0.00001104,0.00001771
 ,0.00000588,0.00001280,-0.00061289,-0.00114328,-0.00023226,0.00094077,
 -0.00027720,0.00128109,-0.12871134,-0.10188217,0.07339302,0.01322000,0
 .01428687,-0.00970096,0.13747608,-0.00744071,-0.01246542,0.01341107,-0
 .00368624,-0.00137520,-0.00382924,0.00103075,0.00071615,-0.00035808,-0
 .00036651,0.00043950,-0.00095377,0.00016240,0.00002419,-0.00006677,0.0
 0000049,-0.00000487,0.00002113,-0.00005384,0.00000399,0.00000337,-0.00
 000139,-0.00000406,0.00000773,-0.00027208,-0.00049334,-0.00002149,0.00
 064924,0.00012086,0.00140275,-0.10122682,-0.17578054,0.09174601,-0.011
 18061,-0.01246118,0.00840669,0.11178564,0.18825670,-0.01104944,-0.0160
 6627,0.01169425,-0.00469876,-0.00322414,-0.00217964,0.00110110,0.00079
 249,0.00088184,-0.00008803,0.00053129,-0.00063532,0.00007133,0.0000085
 9,-0.00000206,-0.00000436,-0.00000987,0.00000715,-0.00002019,0.0000055
 8,-0.00000246,0.00000859,-0.00000175,0.00000353,-0.00025453,-0.0006047
 6,-0.00001760,0.00031629,-0.00010307,0.00101077,0.07782949,0.09754048,
 -0.11990748,0.00959536,0.00921580,-0.00756653,-0.08093120,-0.10185206,
 0.12666921,0.00861650,-0.00916993,-0.01098691,0.00144486,0.00188748,-0
 .00059987,0.00074256,-0.00001894,0.00146303,0.00026430,0.00013971,0.00
 017275,-0.00007980,0.00001210,0.00000792,0.00000102,-0.00000899,-0.000
 00511,0.00001388,-0.00000185,0.00000034,0.00001738,0.00000599,0.000001
 42,-0.00022603,-0.00038990,-0.00003720,-0.00017201,0.00008404,-0.00019
 887,-0.13958461,0.06533259,0.10157034,-0.01154545,0.00751729,0.0145340
 7,-0.00963003,0.00910531,0.00901987,0.15044753,0.01078021,-0.00999030,
 -0.01237557,-0.00053993,0.00175264,0.00155004,-0.00004725,-0.00009177,
 0.00052043,0.00005559,-0.00005706,0.00022406,0.00008784,-0.00003219,0.
 00001206,-0.00002956,0.00001470,0.00000328,0.00000762,0.00000076,0.000
 00366,-0.00000669,-0.00000179,-0.00000542,0.00012788,-0.00003184,-0.00
 012857,-0.00021850,0.00004298,-0.00028174,0.06592523,-0.10039652,-0.07
 566962,0.01102828,-0.00826965,-0.01423132,-0.01232243,0.01257985,0.014
 59426,-0.07537158,0.10504212,0.01245572,-0.01145319,-0.01628486,-0.000
 33708,0.00282332,0.00192846,-0.00051143,0.00079635,0.00101742,0.000229
 94,0.00026652,0.00018040,0.00004923,-0.00000597,-0.00001397,-0.0000523
 6,-0.00000719,0.00002732,0.00000434,-0.00001039,-0.00001122,0.00001010
 ,0.00001581,0.00000587,-0.00028717,-0.00057517,-0.00023418,-0.00014489
 ,-0.00008469,-0.00028203,0.10274288,-0.07595943,-0.16193104,-0.0089737
 5,0.00665695,0.01227664,0.00756184,-0.00748902,-0.00930159,-0.11225269
 ,0.08652149,0.17521647,-0.01472264,0.01665955,-0.00155908,0.00024147,-
 0.00437697,0.00408772,-0.09517788,0.04401547,0.00875503,-0.01001048,-0
 .00926020,-0.00082317,0.00265522,-0.00192701,-0.00022361,-0.00050815,-
 0.00000528,0.00024593,-0.00021509,0.00003802,-0.00011685,-0.00092431,0
 .00009014,0.00011845,0.01919479,0.00805767,0.00270309,-0.00004454,0.00
 089836,-0.00087586,0.00034997,-0.00088003,-0.00152546,0.00040897,0.000
 26823,0.00093468,-0.00088560,0.00033331,-0.00037533,-0.00064902,0.0004
 6180,0.00001292,0.55380019,0.02166725,-0.02826110,0.01003429,-0.000688
 63,0.00589361,-0.00328285,0.04009712,-0.13811365,-0.04047415,0.0044819
 6,0.00794463,0.00180191,-0.00395956,0.00009752,0.00014091,0.00038000,-
 0.00018831,-0.00052186,0.00028907,0.00005109,0.00024501,0.00047056,-0.
 00018810,-0.00017042,-0.00085291,-0.01787943,-0.00839025,-0.00003545,-
 0.00142298,-0.00026420,-0.00164795,0.00279782,0.00066742,-0.00084449,-
 0.00147514,-0.00151895,-0.00075862,0.00047805,0.00057382,0.00158043,0.
 00019993,-0.00051297,0.06915164,0.49292645,0.00116722,0.00120096,0.022
 36105,0.00265317,0.00615905,-0.00637882,0.01050528,-0.04663028,-0.1112
 7628,0.00105650,0.00145693,0.00149920,-0.00175528,-0.00004635,0.000919
 59,0.00047418,-0.00002325,-0.00022633,0.00007896,-0.00015940,-0.000172
 01,0.00005871,-0.00009544,-0.00028432,0.00437260,-0.00548654,-0.003176
 92,-0.00150984,-0.00013302,-0.00133957,-0.00221274,0.00248264,-0.00124
 663,-0.00003216,-0.00026101,-0.00035733,-0.00005158,0.00006919,-0.0000
 5768,-0.00105471,0.00038199,-0.00072108,0.04598111,-0.04915242,0.58381
 518,0.00065890,0.00003564,0.00030548,0.00013919,0.00008590,-0.00042219
 ,0.01588971,0.01944542,0.00941537,0.00155276,0.00144408,0.00014765,-0.
 00045281,0.00030726,0.00018090,0.00015660,0.00002607,-0.00016378,0.000
 04984,0.00002192,0.00005019,0.00018042,-0.00007032,-0.00006628,-0.0028
 2591,-0.00066287,-0.00018992,-0.00006180,-0.00003665,0.00013773,-0.000
 03973,0.00082423,-0.00114455,-0.00010870,0.00022060,0.00040010,-0.0006
 1039,0.00013576,-0.00032118,-0.00061054,0.00026649,0.00012053,-0.18472
 075,-0.13139757,-0.05486591,0.19226007,-0.00352551,0.00096540,-0.00333
 088,0.00080586,-0.00042301,0.00128592,-0.00874122,-0.03176054,-0.01605
 282,-0.00268232,-0.00279768,-0.00002899,0.00060645,-0.00053241,0.00005
 878,-0.00006468,0.00000836,0.00006091,-0.00005711,-0.00000386,-0.00005
 711,-0.00027230,0.00002683,-0.00001923,0.00542430,0.00367861,0.0017136
 2,-0.00032096,0.00043410,-0.00055831,-0.00019157,-0.00015752,0.0001803
 5,0.00006688,0.00047844,0.00014828,0.00068952,0.00001313,-0.00017925,0
 .00000539,-0.00016453,0.00082972,-0.12423095,-0.16592845,-0.04584679,0
 .13188128,0.18911770,-0.00031322,0.00178801,-0.00062409,-0.00034611,-0
 .00025613,0.00034417,-0.00579714,-0.01666441,-0.00553398,-0.00149116,-
 0.00131105,-0.00020516,0.00043542,-0.00033580,-0.00019646,-0.00015042,
 0.00000952,0.00005359,-0.00000343,0.00004800,0.00005594,-0.00014101,0.
 00002399,0.00008900,0.00286092,0.00198077,0.00079491,0.00002623,0.0001
 0238,-0.00022449,-0.00029010,0.00008794,0.00016547,0.00014516,0.000093
 01,0.00002787,-0.00012704,0.00012034,0.00002946,-0.00033355,0.00056138
 ,-0.00060880,-0.05121214,-0.04761168,-0.07290655,0.05632190,0.06023557
 ,0.07521984,0.00081231,-0.00274930,0.00390574,0.00084186,0.00108503,-0
 .00079888,-0.01266026,0.01529025,-0.01008811,0.00041432,0.00051999,0.0
 0021019,-0.00013137,0.00002158,-0.00002444,0.00004630,-0.00003090,0.00
 006217,0.00006005,-0.00003174,-0.00003202,0.00000600,0.00001416,0.0000
 1838,-0.00030589,-0.00063912,-0.00040872,-0.00024422,-0.00004514,-0.00
 022435,-0.00012574,0.00033835,0.00014807,0.00004003,0.00008489,0.00002
 669,0.00018882,-0.00005754,-0.00017361,-0.00013043,-0.00014082,0.00000
 640,-0.13128804,0.04979158,-0.11064788,-0.01084358,0.00815869,-0.01750
 829,0.14064040,-0.00118129,0.00225548,-0.00637270,-0.00094243,-0.00142
 417,0.00109871,0.02451198,-0.02370241,0.01934589,-0.00084016,-0.000135
 10,-0.00085202,0.00036341,-0.00009127,-0.00002253,-0.00008394,-0.00006
 076,0.00021806,-0.00012085,-0.00009119,-0.00016867,-0.00010121,0.00010
 079,0.00001403,0.00102705,-0.00011178,0.00104751,0.00082493,0.00012645
 ,0.00098233,-0.00016409,-0.00018956,-0.00036142,0.00000933,0.00029690,
 0.00026428,0.00025900,-0.00005872,-0.00014705,-0.00026453,0.00004751,0
 .00037098,0.04739668,-0.08122237,0.07146821,-0.01155528,0.01088430,-0.
 01648534,-0.06428335,0.09607631,0.00081253,0.00016912,-0.00260015,-0.0
 0081146,-0.00084551,0.00103252,0.01285499,-0.01010666,0.01456951,0.000
 51899,0.00064265,-0.00005957,-0.00033923,0.00003684,0.00013481,0.00004
 299,0.00002883,-0.00018547,0.00001942,0.00004500,0.00007776,0.00007533
 ,-0.00005513,-0.00004059,-0.00079158,-0.00069310,0.00038866,0.00009631
 ,-0.00002408,0.00004570,0.00001025,-0.00015119,-0.00038479,-0.00006367
 ,0.00019867,0.00022613,0.00008499,0.00001259,-0.00000977,-0.00011328,0
 .00018879,0.00051503,-0.11614536,0.07765180,-0.20824851,-0.00351233,0.
 00336739,-0.00551564,0.12119705,-0.07767816,0.21607655,0.00008278,-0.0
 0275408,0.00431336,0.00099003,0.00076721,-0.00148783,-0.01121006,0.009
 16024,0.01489579,0.00072165,0.00122886,0.00009200,-0.00032210,0.000053
 49,-0.00008639,0.00003351,-0.00013964,-0.00004337,0.00000857,0.0000003
 2,0.00001230,0.00006931,-0.00000655,-0.00001544,-0.00154045,-0.0018911
 1,-0.00102505,0.00016916,-0.00008309,0.00043038,-0.00047375,0.00022803
 ,0.00040163,0.00014269,-0.00011577,-0.00029536,0.00024555,0.00000073,-
 0.00003023,-0.00035914,-0.00008836,-0.00064440,-0.13580423,-0.04647703
 ,0.10747275,-0.01077092,-0.00771852,0.01784338,0.01321405,0.00445229,-
 0.01429321,0.14491871,0.00112308,0.00327738,-0.00284831,-0.00163812,-0
 .00030963,0.00048764,0.02281958,-0.00019015,-0.02783126,-0.00047435,-0
 .00062585,0.00011609,0.00007496,-0.00018397,-0.00007475,-0.00018972,-0
 .00004222,-0.00007182,-0.00002559,0.00002826,0.00003708,-0.00005304,0.
 00001239,0.00002121,0.00154076,0.00184479,0.00008833,-0.00000199,-0.00
 009660,-0.00024147,-0.00008934,-0.00034919,0.00055776,0.00012128,0.000
 08101,-0.00002912,0.00008948,-0.00002614,-0.00005311,0.00023509,-0.000
 03646,-0.00010176,-0.04851025,-0.07653361,0.06376346,-0.01075842,-0.00
 399164,0.01760849,-0.00767858,-0.00226681,0.00740491,0.04325722,0.0797
 3753,-0.00193242,0.00329247,-0.00234541,-0.00123330,-0.00159927,0.0011
 7809,0.01094126,-0.00831576,-0.00877457,-0.00140724,-0.00101323,-0.000
 31227,0.00084912,-0.00026654,-0.00053569,-0.00035935,-0.00008766,0.000
 30784,-0.00005069,0.00002197,-0.00000325,-0.00016469,0.00012049,0.0001
 8598,0.00213042,0.00197711,0.00006859,0.00054763,-0.00011128,0.0003794
 3,0.00002733,-0.00036572,0.00013460,0.00003477,0.00006093,0.00009552,-
 0.00002114,0.00005085,-0.00002900,-0.00025749,0.00015904,0.00014743,0.
 11020977,0.05970732,-0.20342207,-0.00632831,-0.00194090,0.00916569,0.0
 1405133,0.00753389,-0.01595819,-0.12717901,-0.05909493,0.21964345,0.00
 920333,-0.00634216,-0.01383002,-0.02375884,-0.00543088,0.02035721,-0.0
 1234565,0.01815168,0.00294799,-0.00365797,0.00035963,-0.00288499,0.000
 96679,0.00027265,0.00021831,-0.00006943,-0.00002947,0.00005418,-0.0001
 9834,0.00005492,-0.00006503,-0.00010678,-0.00005693,0.00004989,0.00012
 619,0.00009033,0.00081564,0.00356689,0.00021153,0.00483935,-0.00347082
 ,0.00295311,0.00296088,0.00005764,-0.00046288,0.00044521,0.00029767,0.
 00108212,0.00000483,0.00143902,0.00002417,0.00000987,-0.00169990,-0.00
 124741,-0.00169037,0.00015763,0.00016676,0.00008063,-0.00053458,0.0006
 9247,0.00035727,-0.00011536,0.00015796,0.00014203,0.03014251,-0.014117
 68,-0.01321089,0.00592017,0.00385625,0.01037721,-0.00054818,0.01145236
 ,-0.00991089,-0.00296593,0.00120230,0.00095575,0.00173863,-0.00023161,
 -0.00001228,0.00012004,-0.00013600,0.00000967,0.00002355,0.00007217,-0
 .00003218,-0.00000714,0.00008133,0.00002427,-0.00002029,-0.00069007,-0
 .00179345,-0.00092457,-0.00154729,-0.00049026,-0.00269969,0.00829710,-
 0.00570340,-0.00907131,0.00007094,-0.00006210,-0.00011239,0.00093349,0
 .00003705,-0.00102097,-0.00067971,-0.00060838,-0.00208137,0.00181982,0
 .00082405,0.00085205,-0.00021355,0.00015277,0.00000500,0.00035198,-0.0
 0043361,-0.00019275,0.00012577,-0.00032909,-0.00012878,-0.01064758,0.0
 2020577,-0.02242951,0.00015814,-0.00205627,0.02537189,0.00737565,-0.01
 193271,0.00222709,-0.00523347,0.00352841,0.00181938,-0.00015839,0.0038
 3891,-0.00042891,-0.00018584,0.00023563,-0.00022944,0.00009717,-0.0000
 1671,0.00022664,-0.00003676,0.00004527,0.00002416,0.00001809,-0.000059
 97,0.00037255,-0.00090671,-0.00173214,-0.00400039,-0.00026464,-0.00617
 169,0.01171326,-0.00988778,-0.01208497,0.00125800,-0.00059645,0.000055
 12,0.00015644,-0.00068129,-0.00058708,-0.00093007,-0.00202823,-0.00192
 629,-0.00019181,0.00107727,0.00121908,-0.00006540,0.00013374,-0.000130
 78,0.00028028,-0.00025600,-0.00006398,-0.00036130,0.00026156,0.0000738
 2,-0.01481286,0.01111394,0.02776634||-0.00001759,0.00001965,0.00004346
 ,-0.00000856,-0.00000392,0.00001572,-0.00001909,0.00000647,0.00000262,
 -0.00002041,0.00000349,0.00000563,0.00000136,0.00000011,-0.00000101,-0
 .00000182,0.00000515,-0.00000719,0.00000473,-0.00000018,-0.00000653,-0
 .00000238,0.00000393,-0.00000144,0.00003807,-0.00000940,-0.00002018,-0
 .00001320,-0.00000632,-0.00000770,-0.00000883,-0.00000547,0.00001348,-
 0.00000422,0.00000074,0.00000439,-0.00000535,0.00000300,-0.00000804,-0
 .00000330,0.00000034,0.00000254,0.00001689,0.00001434,-0.00000005,0.00
 000237,0.00000220,-0.00000570,0.00000711,-0.00000393,-0.00000894,0.000
 00837,-0.00000630,-0.00000726,0.00002584,-0.00002390,-0.00001379|||@


 ORIGINALITY CONSISTS NOT IN SAYING WHAT NO ONE HAS EVER SAID BEFORE, 
 BUT IN SAYING WHAT YOU THINK YOUR SELF.

                                    -- JAMES F. STEPHEN
 Job cpu time:  0 days  0 hours 29 minutes 47.0 seconds.
 File lengths (MBytes):  RWF=    103 Int=      0 D2E=      0 Chk=      3 Scr=      1
 Normal termination of Gaussian 09 at Mon Feb 23 21:32:38 2015.
