 Entering Gaussian System, Link 0=g09
 Initial command:
 /opt/gridware/applications/gaussian/g09/l1.exe "/lustre/SCRATCH5/gau/Gau-24234.inp" -scrdir="/lustre/SCRATCH5/gau/"
 Entering Link 1 = /opt/gridware/applications/gaussian/g09/l1.exe PID=     24235.
  
 Copyright (c) 1988,1990,1992,1993,1995,1998,2003,2009,2013,
            Gaussian, Inc.  All Rights Reserved.
  
 This is part of the Gaussian(R) 09 program.  It is based on
 the Gaussian(R) 03 system (copyright 2003, Gaussian, Inc.),
 the Gaussian(R) 98 system (copyright 1998, Gaussian, Inc.),
 the Gaussian(R) 94 system (copyright 1995, Gaussian, Inc.),
 the Gaussian 92(TM) system (copyright 1992, Gaussian, Inc.),
 the Gaussian 90(TM) system (copyright 1990, Gaussian, Inc.),
 the Gaussian 88(TM) system (copyright 1988, Gaussian, Inc.),
 the Gaussian 86(TM) system (copyright 1986, Carnegie Mellon
 University), and the Gaussian 82(TM) system (copyright 1983,
 Carnegie Mellon University). Gaussian is a federally registered
 trademark of Gaussian, Inc.
  
 This software contains proprietary and confidential information,
 including trade secrets, belonging to Gaussian, Inc.
  
 This software is provided under written license and may be
 used, copied, transmitted, or stored only in accord with that
 written license.
  
 The following legend is applicable only to US Government
 contracts under FAR:
  
                    RESTRICTED RIGHTS LEGEND
  
 Use, reproduction and disclosure by the US Government is
 subject to restrictions as set forth in subparagraphs (a)
 and (c) of the Commercial Computer Software - Restricted
 Rights clause in FAR 52.227-19.
  
 Gaussian, Inc.
 340 Quinnipiac St., Bldg. 40, Wallingford CT 06492
  
  
 ---------------------------------------------------------------
 Warning -- This program may not be used in any manner that
 competes with the business of Gaussian, Inc. or will provide
 assistance to any competitor of Gaussian, Inc.  The licensee
 of this program is prohibited from giving any competitor of
 Gaussian, Inc. access to this program.  By using this program,
 the user acknowledges that Gaussian, Inc. is engaged in the
 business of creating and licensing software in the field of
 computational chemistry and represents and warrants to the
 licensee that it is not a competitor of Gaussian, Inc. and that
 it will not use this program in any manner prohibited above.
 ---------------------------------------------------------------
  

 Cite this work as:
 Gaussian 09, Revision D.01,
 M. J. Frisch, G. W. Trucks, H. B. Schlegel, G. E. Scuseria, 
 M. A. Robb, J. R. Cheeseman, G. Scalmani, V. Barone, B. Mennucci, 
 G. A. Petersson, H. Nakatsuji, M. Caricato, X. Li, H. P. Hratchian, 
 A. F. Izmaylov, J. Bloino, G. Zheng, J. L. Sonnenberg, M. Hada, 
 M. Ehara, K. Toyota, R. Fukuda, J. Hasegawa, M. Ishida, T. Nakajima, 
 Y. Honda, O. Kitao, H. Nakai, T. Vreven, J. A. Montgomery, Jr., 
 J. E. Peralta, F. Ogliaro, M. Bearpark, J. J. Heyd, E. Brothers, 
 K. N. Kudin, V. N. Staroverov, T. Keith, R. Kobayashi, J. Normand, 
 K. Raghavachari, A. Rendell, J. C. Burant, S. S. Iyengar, J. Tomasi, 
 M. Cossi, N. Rega, J. M. Millam, M. Klene, J. E. Knox, J. B. Cross, 
 V. Bakken, C. Adamo, J. Jaramillo, R. Gomperts, R. E. Stratmann, 
 O. Yazyev, A. J. Austin, R. Cammi, C. Pomelli, J. W. Ochterski, 
 R. L. Martin, K. Morokuma, V. G. Zakrzewski, G. A. Voth, 
 P. Salvador, J. J. Dannenberg, S. Dapprich, A. D. Daniels, 
 O. Farkas, J. B. Foresman, J. V. Ortiz, J. Cioslowski, 
 and D. J. Fox, Gaussian, Inc., Wallingford CT, 2013.
 
 ******************************************
 Gaussian 09:  EM64L-G09RevD.01 24-Apr-2013
                18-Feb-2015 
 ******************************************
 %nprocshared=8
 Will use up to    8 processors via shared memory.
 %nprocl=1
 Will use up to    1 processors via Linda.
 ----------------------------------------------------------------------
 # opt=(calcfc,ts,noeigentest) freq=noraman b3lyp/gen pseudo=read gfinp
 ut geom=connectivity
 ----------------------------------------------------------------------
 1/5=1,10=4,11=1,14=-1,18=20,26=3,38=1,57=2/1,3;
 2/9=110,12=2,17=6,18=5,40=1/2;
 3/5=7,11=2,16=1,17=8,24=10,25=1,30=1,71=2,74=-5,140=1/1,2,3;
 4//1;
 5/5=2,38=5/2;
 8/6=4,10=90,11=11/1;
 11/6=1,8=1,9=11,15=111,16=1/1,2,10;
 10/6=1,13=1/2;
 6/7=2,8=2,9=2,10=2,28=1/1;
 7/10=1,18=20,25=1/1,2,3,16;
 1/5=1,10=4,11=1,14=-1,18=20,26=3/3(2);
 2/9=110/2;
 99//99;
 2/9=110/2;
 3/5=7,6=1,11=2,16=1,17=8,25=1,30=1,71=1,74=-5,82=7/1,2,3;
 4/5=5,16=3,69=1/1;
 5/5=2,38=5/2;
 7//1,2,3,16;
 1/5=1,11=1,14=-1,18=20,26=3/3(-5);
 2/9=110/2;
 6/7=2,8=2,9=2,10=2,19=2,28=1/1;
 99/9=1/99;
 ------------------
 gen calculation-ts624I C H O=6-31+g(d)/I=lanl2dz
 ------------------
 Symbolic Z-matrix:
 Charge =  0 Multiplicity = 1
 C                     0.73403   0.39352  -0.39335 
 O                     1.2733    1.86065  -0.24628 
 O                    -1.21161   0.29568   0.30651 
 O                    -0.60552   2.9416    0.65395 
 C                    -0.76545   3.9468   -0.34042 
 H                    -0.09854   3.70914  -1.11582 
 H                    -1.77881   4.01304  -0.65201 
 H                    -0.42135   4.89013   0.02266 
 H                    -1.30085   1.51393   0.61554 
 H                     0.51791   2.60198   0.16871 
 C                     0.6436    0.30053  -1.92626 
 H                     1.63161   0.26973  -2.34577 
 H                     0.11373  -0.58418  -2.19519 
 H                     0.22902   1.15365  -2.37895 
 C                    -1.93154   0.25021  -0.90079 
 H                    -1.84807  -0.73295  -1.26353 
 H                    -2.874     0.67109  -1.09261 
 H                    -1.27045   0.79182  -1.5108 
 I                     1.77995  -0.94      0.68732 
 
 Add virtual bond connecting atoms H10        and O2         Dist= 2.15D+00.
 Add virtual bond connecting atoms H9         and O4         Dist= 3.00D+00.

 GradGradGradGradGradGradGradGradGradGradGradGradGradGradGradGradGradGrad
 Berny optimization.
 Initialization pass.
                           ----------------------------
                           !    Initial Parameters    !
                           ! (Angstroms and Degrees)  !
 --------------------------                            --------------------------
 ! Name  Definition              Value          Derivative Info.                !
 --------------------------------------------------------------------------------
 ! R1    R(1,2)                  1.57           calculate D2E/DX2 analytically  !
 ! R2    R(1,11)                 1.5384         calculate D2E/DX2 analytically  !
 ! R3    R(1,19)                 2.01           calculate D2E/DX2 analytically  !
 ! R4    R(2,10)                 1.1368         calculate D2E/DX2 analytically  !
 ! R5    R(3,9)                  1.26           calculate D2E/DX2 analytically  !
 ! R6    R(3,15)                 1.4064         calculate D2E/DX2 analytically  !
 ! R7    R(4,5)                  1.4229         calculate D2E/DX2 analytically  !
 ! R8    R(4,9)                  1.5885         calculate D2E/DX2 analytically  !
 ! R9    R(4,10)                 1.27           calculate D2E/DX2 analytically  !
 ! R10   R(5,6)                  1.05           calculate D2E/DX2 analytically  !
 ! R11   R(5,7)                  1.0623         calculate D2E/DX2 analytically  !
 ! R12   R(5,8)                  1.0678         calculate D2E/DX2 analytically  !
 ! R13   R(11,12)                1.0738         calculate D2E/DX2 analytically  !
 ! R14   R(11,13)                1.0657         calculate D2E/DX2 analytically  !
 ! R15   R(11,14)                1.051          calculate D2E/DX2 analytically  !
 ! R16   R(15,16)                1.0513         calculate D2E/DX2 analytically  !
 ! R17   R(15,17)                1.0498         calculate D2E/DX2 analytically  !
 ! R18   R(15,18)                1.05           calculate D2E/DX2 analytically  !
 ! A1    A(2,1,11)              99.7892         calculate D2E/DX2 analytically  !
 ! A2    A(2,1,19)             113.0087         calculate D2E/DX2 analytically  !
 ! A3    A(11,1,19)            121.75           calculate D2E/DX2 analytically  !
 ! A4    A(1,2,10)             114.5403         calculate D2E/DX2 analytically  !
 ! A5    A(9,3,15)             101.8616         calculate D2E/DX2 analytically  !
 ! A6    A(5,4,9)              124.6681         calculate D2E/DX2 analytically  !
 ! A7    A(5,4,10)              91.222          calculate D2E/DX2 analytically  !
 ! A8    A(9,4,10)              97.9107         calculate D2E/DX2 analytically  !
 ! A9    A(4,5,6)              106.5457         calculate D2E/DX2 analytically  !
 ! A10   A(4,5,7)              110.8702         calculate D2E/DX2 analytically  !
 ! A11   A(4,5,8)              110.5035         calculate D2E/DX2 analytically  !
 ! A12   A(6,5,7)              113.7916         calculate D2E/DX2 analytically  !
 ! A13   A(6,5,8)              104.2641         calculate D2E/DX2 analytically  !
 ! A14   A(7,5,8)              110.6148         calculate D2E/DX2 analytically  !
 ! A15   A(3,9,4)              147.5574         calculate D2E/DX2 analytically  !
 ! A16   A(2,10,4)             154.3741         calculate D2E/DX2 analytically  !
 ! A17   A(1,11,12)            109.6902         calculate D2E/DX2 analytically  !
 ! A18   A(1,11,13)            109.3203         calculate D2E/DX2 analytically  !
 ! A19   A(1,11,14)            113.7853         calculate D2E/DX2 analytically  !
 ! A20   A(12,11,13)           109.5765         calculate D2E/DX2 analytically  !
 ! A21   A(12,11,14)           102.5881         calculate D2E/DX2 analytically  !
 ! A22   A(13,11,14)           111.6553         calculate D2E/DX2 analytically  !
 ! A23   A(3,15,16)            106.6064         calculate D2E/DX2 analytically  !
 ! A24   A(3,15,17)            127.116          calculate D2E/DX2 analytically  !
 ! A25   A(3,15,18)             99.1924         calculate D2E/DX2 analytically  !
 ! A26   A(16,15,17)           112.5293         calculate D2E/DX2 analytically  !
 ! A27   A(16,15,18)           103.4121         calculate D2E/DX2 analytically  !
 ! A28   A(17,15,18)           104.6118         calculate D2E/DX2 analytically  !
 ! D1    D(11,1,2,10)          109.1107         calculate D2E/DX2 analytically  !
 ! D2    D(19,1,2,10)         -120.0901         calculate D2E/DX2 analytically  !
 ! D3    D(2,1,11,12)           70.4863         calculate D2E/DX2 analytically  !
 ! D4    D(2,1,11,13)         -169.3433         calculate D2E/DX2 analytically  !
 ! D5    D(2,1,11,14)          -43.7616         calculate D2E/DX2 analytically  !
 ! D6    D(19,1,11,12)         -54.4886         calculate D2E/DX2 analytically  !
 ! D7    D(19,1,11,13)          65.6819         calculate D2E/DX2 analytically  !
 ! D8    D(19,1,11,14)        -168.7365         calculate D2E/DX2 analytically  !
 ! D9    D(1,2,10,4)             3.6341         calculate D2E/DX2 analytically  !
 ! D10   D(15,3,9,4)          -101.0273         calculate D2E/DX2 analytically  !
 ! D11   D(9,3,15,16)          176.1747         calculate D2E/DX2 analytically  !
 ! D12   D(9,3,15,17)          -47.1818         calculate D2E/DX2 analytically  !
 ! D13   D(9,3,15,18)           69.1095         calculate D2E/DX2 analytically  !
 ! D14   D(9,4,5,6)            -82.3283         calculate D2E/DX2 analytically  !
 ! D15   D(9,4,5,7)             41.9805         calculate D2E/DX2 analytically  !
 ! D16   D(9,4,5,8)            164.9961         calculate D2E/DX2 analytically  !
 ! D17   D(10,4,5,6)            18.1655         calculate D2E/DX2 analytically  !
 ! D18   D(10,4,5,7)           142.4744         calculate D2E/DX2 analytically  !
 ! D19   D(10,4,5,8)           -94.51           calculate D2E/DX2 analytically  !
 ! D20   D(5,4,9,3)             95.1411         calculate D2E/DX2 analytically  !
 ! D21   D(10,4,9,3)            -1.8826         calculate D2E/DX2 analytically  !
 ! D22   D(5,4,10,2)          -127.1319         calculate D2E/DX2 analytically  !
 ! D23   D(9,4,10,2)            -1.8654         calculate D2E/DX2 analytically  !
 --------------------------------------------------------------------------------
 Trust Radius=3.00D-01 FncErr=1.00D-07 GrdErr=1.00D-06
 Number of steps in this run=     79 maximum allowed number of steps=    114.
 Search for a saddle point of order  1.
 GradGradGradGradGradGradGradGradGradGradGradGradGradGradGradGradGradGrad

                          Input orientation:                          
 ---------------------------------------------------------------------
 Center     Atomic      Atomic             Coordinates (Angstroms)
 Number     Number       Type             X           Y           Z
 ---------------------------------------------------------------------
      1          6           0        0.734028    0.393525   -0.393352
      2          8           0        1.273298    1.860650   -0.246278
      3          8           0       -1.211614    0.295676    0.306509
      4          8           0       -0.605521    2.941598    0.653955
      5          6           0       -0.765449    3.946800   -0.340415
      6          1           0       -0.098542    3.709142   -1.115820
      7          1           0       -1.778809    4.013038   -0.652007
      8          1           0       -0.421352    4.890131    0.022659
      9          1           0       -1.300845    1.513927    0.615543
     10          1           0        0.517909    2.601979    0.168710
     11          6           0        0.643603    0.300528   -1.926256
     12          1           0        1.631606    0.269731   -2.345769
     13          1           0        0.113727   -0.584181   -2.195185
     14          1           0        0.229024    1.153646   -2.378955
     15          6           0       -1.931538    0.250212   -0.900786
     16          1           0       -1.848070   -0.732949   -1.263526
     17          1           0       -2.873997    0.671091   -1.092611
     18          1           0       -1.270445    0.791824   -1.510796
     19         53           0        1.779955   -0.939998    0.687320
 ---------------------------------------------------------------------
                    Distance matrix (angstroms):
                    1          2          3          4          5
     1  C    0.000000
     2  O    1.570000   0.000000
     3  O    2.070000   2.988227   0.000000
     4  O    3.063318   2.347089   2.736598   0.000000
     5  C    3.857072   2.918454   3.734740   1.422948   0.000000
     6  H    3.494059   2.460685   3.861826   1.994557   1.050000
     7  H    4.413857   3.756694   3.880625   2.056727   1.062251
     8  H    4.661270   3.481654   4.670557   2.056510   1.067754
     9  H    2.532563   2.736634   1.260000   1.588457   2.668217
    10  H    2.289081   1.136835   2.886048   1.270000   1.927372
    11  C    1.538382   2.377566   2.902946   3.897826   4.218485
    12  H    2.152418   2.658434   3.888335   4.598038   4.825780
    13  H    2.141795   3.334673   2.964650   4.589775   4.974225
    14  H    2.185276   2.477634   3.165955   3.618256   3.598101
    15  C    2.717217   3.645938   1.406385   3.379215   3.916445
    16  H    2.948453   4.183836   1.981958   4.327003   4.891243
    17  H    3.685628   4.396747   2.204993   3.653994   3.967624
    18  H    2.329214   3.035132   1.884735   3.122467   3.402747
    19  I    2.010000   2.995320   3.259047   4.556139   5.605009
                    6          7          8          9         10
     6  H    0.000000
     7  H    1.769399   0.000000
     8  H    1.671849   1.751331   0.000000
     9  H    3.043374   2.842656   3.538895   0.000000
    10  H    1.804395   2.817726   2.477737   2.165961   0.000000
    11  C    3.581373   4.612431   5.098711   3.422566   3.114700
    12  H    4.041749   5.339673   5.583206   4.349329   3.605871
    13  H    4.432009   5.205527   5.930703   3.781965   3.987854
    14  H    2.869384   3.897418   4.489105   3.381911   2.944778
    15  C    3.920499   3.774133   4.966111   2.072197   3.560115
    16  H    4.776488   4.785723   5.942123   2.979733   4.332540
    17  H    4.115027   3.544316   5.005956   2.470419   4.101742
    18  H    3.168613   3.372265   4.457417   2.245813   3.048871
    19  I    5.328656   6.244291   6.267211   3.939318   3.795698
                   11         12         13         14         15
    11  C    0.000000
    12  H    1.073820   0.000000
    13  H    1.065740   1.748084   0.000000
    14  H    1.051010   1.658205   1.751316   0.000000
    15  C    2.772268   3.845043   2.560232   2.769333   0.000000
    16  H    2.777719   3.779519   2.176871   3.019560   1.051263
    17  H    3.633978   4.693821   3.423138   3.393565   1.049841
    18  H    2.019297   3.064582   2.068262   1.770035   1.050000
    19  I    3.108212   3.268804   3.348397   4.023777   4.208784
                   16         17         18         19
    16  H    0.000000
    17  H    1.747303   0.000000
    18  H    1.649159   1.661576   0.000000
    19  I    4.124468   5.236701   4.139549   0.000000
 Stoichiometry    C4H11IO3
 Framework group  C1[X(C4H11IO3)]
 Deg. of freedom    51
 Full point group                 C1      NOp   1
 Largest Abelian subgroup         C1      NOp   1
 Largest concise Abelian subgroup C1      NOp   1
                         Standard orientation:                         
 ---------------------------------------------------------------------
 Center     Atomic      Atomic             Coordinates (Angstroms)
 Number     Number       Type             X           Y           Z
 ---------------------------------------------------------------------
      1          6           0       -0.101020    0.118581    0.454906
      2          8           0       -0.908513   -1.205073    0.701466
      3          8           0       -1.007851    1.215120   -1.048476
      4          8           0       -2.659923   -0.956664   -0.841157
      5          6           0       -3.752836   -1.059804    0.064207
      6          1           0       -3.342301   -1.052369    1.030595
      7          1           0       -4.460246   -0.286051   -0.106828
      8          1           0       -4.216763   -2.018055   -0.017185
      9          1           0       -1.951201    0.404673   -1.250630
     10          1           0       -1.842361   -1.314453    0.062436
     11          6           0       -0.404906    0.858936    1.768736
     12          1           0        0.105234    0.377390    2.581731
     13          1           0       -0.075167    1.869207    1.688570
     14          1           0       -1.411892    0.801916    2.064285
     15          6           0       -1.646352    2.221541   -0.301914
     16          1           0       -0.902360    2.913812   -0.032860
     17          1           0       -2.565720    2.681514   -0.514876
     18          1           0       -1.816255    1.688867    0.586844
     19         53           0        1.783396   -0.213755   -0.160422
 ---------------------------------------------------------------------
 Rotational constants (GHZ):      1.8267163      0.5603678      0.5142081
 General basis read from cards:  (5D, 7F)
 ======================================================================================================
                                       Pseudopotential Parameters
 ======================================================================================================
  Center     Atomic      Valence      Angular      Power
  Number     Number     Electrons     Momentum     of R      Exponent        Coefficient   SO-Coeffient
 ======================================================================================================
    1          6
                                   No pseudopotential on this center.
    2          8
                                   No pseudopotential on this center.
    3          8
                                   No pseudopotential on this center.
    4          8
                                   No pseudopotential on this center.
    5          6
                                   No pseudopotential on this center.
    6          1
                                   No pseudopotential on this center.
    7          1
                                   No pseudopotential on this center.
    8          1
                                   No pseudopotential on this center.
    9          1
                                   No pseudopotential on this center.
   10          1
                                   No pseudopotential on this center.
   11          6
                                   No pseudopotential on this center.
   12          1
                                   No pseudopotential on this center.
   13          1
                                   No pseudopotential on this center.
   14          1
                                   No pseudopotential on this center.
   15          6
                                   No pseudopotential on this center.
   16          1
                                   No pseudopotential on this center.
   17          1
                                   No pseudopotential on this center.
   18          1
                                   No pseudopotential on this center.
   19         53           25
                                      G and up 
                                                     2        1.0000000        0.00000000    0.00000000
                                      S - G
                                                     2       40.0158350       49.99429300    0.00000000
                                                     2       17.4297470      281.02531700    0.00000000
                                                     2        9.0054840       61.57332600    0.00000000
                                      P - G
                                                     2       15.3554660       67.44284100 -134.88568300
                                                     2       14.9718330      134.88113700  134.88113700
                                                     2        8.9601640       14.67505100  -29.35010100
                                                     2        8.2590960       29.37566600   29.37566600
                                      D - G
                                                     2       15.0689080       35.43952900  -35.43952900
                                                     2       14.5553220       53.17605700   35.45070400
                                                     2        6.7186470        9.06719500   -9.06719500
                                                     2        6.4563930       13.20693700    8.80462400
                                                     2        1.1917790        0.08933500   -0.08933500
                                                     2        1.2911570        0.05238000    0.03492000
                                      F - G
                                                     2       19.4586090      -21.84204000   14.56136000
                                                     2       19.3492600      -28.46819100  -14.23409500
                                                     2        4.8237670       -0.24371300    0.16247500
                                                     2        4.8843150       -0.32080400   -0.16040200
 ======================================================================================================
 AO basis set in the form of general basis input (Overlap normalization):
      1 0
 S   6 1.00       0.000000000000
      0.3047524880D+04  0.1834737132D-02
      0.4573695180D+03  0.1403732281D-01
      0.1039486850D+03  0.6884262226D-01
      0.2921015530D+02  0.2321844432D+00
      0.9286662960D+01  0.4679413484D+00
      0.3163926960D+01  0.3623119853D+00
 SP   3 1.00       0.000000000000
      0.7868272350D+01 -0.1193324198D+00  0.6899906659D-01
      0.1881288540D+01 -0.1608541517D+00  0.3164239610D+00
      0.5442492580D+00  0.1143456438D+01  0.7443082909D+00
 SP   1 1.00       0.000000000000
      0.1687144782D+00  0.1000000000D+01  0.1000000000D+01
 SP   1 1.00       0.000000000000
      0.4380000000D-01  0.1000000000D+01  0.1000000000D+01
 D   1 1.00       0.000000000000
      0.8000000000D+00  0.1000000000D+01
 ****
      2 0
 S   6 1.00       0.000000000000
      0.5484671660D+04  0.1831074430D-02
      0.8252349460D+03  0.1395017220D-01
      0.1880469580D+03  0.6844507810D-01
      0.5296450000D+02  0.2327143360D+00
      0.1689757040D+02  0.4701928980D+00
      0.5799635340D+01  0.3585208530D+00
 SP   3 1.00       0.000000000000
      0.1553961625D+02 -0.1107775495D+00  0.7087426823D-01
      0.3599933586D+01 -0.1480262627D+00  0.3397528391D+00
      0.1013761750D+01  0.1130767015D+01  0.7271585773D+00
 SP   1 1.00       0.000000000000
      0.2700058226D+00  0.1000000000D+01  0.1000000000D+01
 SP   1 1.00       0.000000000000
      0.8450000000D-01  0.1000000000D+01  0.1000000000D+01
 D   1 1.00       0.000000000000
      0.8000000000D+00  0.1000000000D+01
 ****
      3 0
 S   6 1.00       0.000000000000
      0.5484671660D+04  0.1831074430D-02
      0.8252349460D+03  0.1395017220D-01
      0.1880469580D+03  0.6844507810D-01
      0.5296450000D+02  0.2327143360D+00
      0.1689757040D+02  0.4701928980D+00
      0.5799635340D+01  0.3585208530D+00
 SP   3 1.00       0.000000000000
      0.1553961625D+02 -0.1107775495D+00  0.7087426823D-01
      0.3599933586D+01 -0.1480262627D+00  0.3397528391D+00
      0.1013761750D+01  0.1130767015D+01  0.7271585773D+00
 SP   1 1.00       0.000000000000
      0.2700058226D+00  0.1000000000D+01  0.1000000000D+01
 SP   1 1.00       0.000000000000
      0.8450000000D-01  0.1000000000D+01  0.1000000000D+01
 D   1 1.00       0.000000000000
      0.8000000000D+00  0.1000000000D+01
 ****
      4 0
 S   6 1.00       0.000000000000
      0.5484671660D+04  0.1831074430D-02
      0.8252349460D+03  0.1395017220D-01
      0.1880469580D+03  0.6844507810D-01
      0.5296450000D+02  0.2327143360D+00
      0.1689757040D+02  0.4701928980D+00
      0.5799635340D+01  0.3585208530D+00
 SP   3 1.00       0.000000000000
      0.1553961625D+02 -0.1107775495D+00  0.7087426823D-01
      0.3599933586D+01 -0.1480262627D+00  0.3397528391D+00
      0.1013761750D+01  0.1130767015D+01  0.7271585773D+00
 SP   1 1.00       0.000000000000
      0.2700058226D+00  0.1000000000D+01  0.1000000000D+01
 SP   1 1.00       0.000000000000
      0.8450000000D-01  0.1000000000D+01  0.1000000000D+01
 D   1 1.00       0.000000000000
      0.8000000000D+00  0.1000000000D+01
 ****
      5 0
 S   6 1.00       0.000000000000
      0.3047524880D+04  0.1834737132D-02
      0.4573695180D+03  0.1403732281D-01
      0.1039486850D+03  0.6884262226D-01
      0.2921015530D+02  0.2321844432D+00
      0.9286662960D+01  0.4679413484D+00
      0.3163926960D+01  0.3623119853D+00
 SP   3 1.00       0.000000000000
      0.7868272350D+01 -0.1193324198D+00  0.6899906659D-01
      0.1881288540D+01 -0.1608541517D+00  0.3164239610D+00
      0.5442492580D+00  0.1143456438D+01  0.7443082909D+00
 SP   1 1.00       0.000000000000
      0.1687144782D+00  0.1000000000D+01  0.1000000000D+01
 SP   1 1.00       0.000000000000
      0.4380000000D-01  0.1000000000D+01  0.1000000000D+01
 D   1 1.00       0.000000000000
      0.8000000000D+00  0.1000000000D+01
 ****
      6 0
 S   3 1.00       0.000000000000
      0.1873113696D+02  0.3349460434D-01
      0.2825394365D+01  0.2347269535D+00
      0.6401216923D+00  0.8137573261D+00
 S   1 1.00       0.000000000000
      0.1612777588D+00  0.1000000000D+01
 ****
      7 0
 S   3 1.00       0.000000000000
      0.1873113696D+02  0.3349460434D-01
      0.2825394365D+01  0.2347269535D+00
      0.6401216923D+00  0.8137573261D+00
 S   1 1.00       0.000000000000
      0.1612777588D+00  0.1000000000D+01
 ****
      8 0
 S   3 1.00       0.000000000000
      0.1873113696D+02  0.3349460434D-01
      0.2825394365D+01  0.2347269535D+00
      0.6401216923D+00  0.8137573261D+00
 S   1 1.00       0.000000000000
      0.1612777588D+00  0.1000000000D+01
 ****
      9 0
 S   3 1.00       0.000000000000
      0.1873113696D+02  0.3349460434D-01
      0.2825394365D+01  0.2347269535D+00
      0.6401216923D+00  0.8137573261D+00
 S   1 1.00       0.000000000000
      0.1612777588D+00  0.1000000000D+01
 ****
     10 0
 S   3 1.00       0.000000000000
      0.1873113696D+02  0.3349460434D-01
      0.2825394365D+01  0.2347269535D+00
      0.6401216923D+00  0.8137573261D+00
 S   1 1.00       0.000000000000
      0.1612777588D+00  0.1000000000D+01
 ****
     11 0
 S   6 1.00       0.000000000000
      0.3047524880D+04  0.1834737132D-02
      0.4573695180D+03  0.1403732281D-01
      0.1039486850D+03  0.6884262226D-01
      0.2921015530D+02  0.2321844432D+00
      0.9286662960D+01  0.4679413484D+00
      0.3163926960D+01  0.3623119853D+00
 SP   3 1.00       0.000000000000
      0.7868272350D+01 -0.1193324198D+00  0.6899906659D-01
      0.1881288540D+01 -0.1608541517D+00  0.3164239610D+00
      0.5442492580D+00  0.1143456438D+01  0.7443082909D+00
 SP   1 1.00       0.000000000000
      0.1687144782D+00  0.1000000000D+01  0.1000000000D+01
 SP   1 1.00       0.000000000000
      0.4380000000D-01  0.1000000000D+01  0.1000000000D+01
 D   1 1.00       0.000000000000
      0.8000000000D+00  0.1000000000D+01
 ****
     12 0
 S   3 1.00       0.000000000000
      0.1873113696D+02  0.3349460434D-01
      0.2825394365D+01  0.2347269535D+00
      0.6401216923D+00  0.8137573261D+00
 S   1 1.00       0.000000000000
      0.1612777588D+00  0.1000000000D+01
 ****
     13 0
 S   3 1.00       0.000000000000
      0.1873113696D+02  0.3349460434D-01
      0.2825394365D+01  0.2347269535D+00
      0.6401216923D+00  0.8137573261D+00
 S   1 1.00       0.000000000000
      0.1612777588D+00  0.1000000000D+01
 ****
     14 0
 S   3 1.00       0.000000000000
      0.1873113696D+02  0.3349460434D-01
      0.2825394365D+01  0.2347269535D+00
      0.6401216923D+00  0.8137573261D+00
 S   1 1.00       0.000000000000
      0.1612777588D+00  0.1000000000D+01
 ****
     15 0
 S   6 1.00       0.000000000000
      0.3047524880D+04  0.1834737132D-02
      0.4573695180D+03  0.1403732281D-01
      0.1039486850D+03  0.6884262226D-01
      0.2921015530D+02  0.2321844432D+00
      0.9286662960D+01  0.4679413484D+00
      0.3163926960D+01  0.3623119853D+00
 SP   3 1.00       0.000000000000
      0.7868272350D+01 -0.1193324198D+00  0.6899906659D-01
      0.1881288540D+01 -0.1608541517D+00  0.3164239610D+00
      0.5442492580D+00  0.1143456438D+01  0.7443082909D+00
 SP   1 1.00       0.000000000000
      0.1687144782D+00  0.1000000000D+01  0.1000000000D+01
 SP   1 1.00       0.000000000000
      0.4380000000D-01  0.1000000000D+01  0.1000000000D+01
 D   1 1.00       0.000000000000
      0.8000000000D+00  0.1000000000D+01
 ****
     16 0
 S   3 1.00       0.000000000000
      0.1873113696D+02  0.3349460434D-01
      0.2825394365D+01  0.2347269535D+00
      0.6401216923D+00  0.8137573261D+00
 S   1 1.00       0.000000000000
      0.1612777588D+00  0.1000000000D+01
 ****
     17 0
 S   3 1.00       0.000000000000
      0.1873113696D+02  0.3349460434D-01
      0.2825394365D+01  0.2347269535D+00
      0.6401216923D+00  0.8137573261D+00
 S   1 1.00       0.000000000000
      0.1612777588D+00  0.1000000000D+01
 ****
     18 0
 S   3 1.00       0.000000000000
      0.1873113696D+02  0.3349460434D-01
      0.2825394365D+01  0.2347269535D+00
      0.6401216923D+00  0.8137573261D+00
 S   1 1.00       0.000000000000
      0.1612777588D+00  0.1000000000D+01
 ****
     19 0
 S   5 1.00       0.000000000000
      0.5899579153D+04  0.2610056321D-03
      0.8985423877D+03  0.1669739989D-02
      0.2003723791D+03  0.4622329849D-02
      0.3141805384D+02 -0.4253426840D-01
      0.1564598784D+02  0.1036831842D+01
 S   2 1.00       0.000000000000
      0.1181574186D+02  0.6510798928D+00
      0.6461445829D+01  0.3642365936D+00
 S   1 1.00       0.000000000000
      0.2383806758D+01  0.1000000000D+01
 S   1 1.00       0.000000000000
      0.1171208966D+01  0.1000000000D+01
 S   1 1.00       0.000000000000
      0.3211587576D+00  0.1000000000D+01
 S   1 1.00       0.000000000000
      0.1238791936D+00  0.1000000000D+01
 P   4 1.00       0.000000000000
      0.1298431690D+02 -0.3868165906D-01
      0.3619950301D+01  0.3065970959D+00
      0.2023227309D+01  0.5169312450D+00
      0.1036749056D+01  0.2505722415D+00
 P   3 1.00       0.000000000000
      0.1973003055D+03  0.3192774173D-02
      0.2006141135D+02  0.2856760153D+00
      0.9763146048D+01 -0.1232820499D+01
 P   1 1.00       0.000000000000
      0.4593781600D+00  0.1000000000D+01
 P   1 1.00       0.000000000000
      0.1911653293D+00  0.1000000000D+01
 P   1 1.00       0.000000000000
      0.7487881302D-01  0.1000000000D+01
 D   6 1.00       0.000000000000
      0.1191267175D+03  0.8836386893D-03
      0.3340424013D+02  0.7315261132D-02
      0.1780591820D+02 -0.1102799620D-01
      0.4899051035D+01  0.2425357632D+00
      0.2451675311D+01  0.4726529041D+00
      0.1182069343D+01  0.3934356931D+00
 D   1 1.00       0.000000000000
      0.5292311007D+00  0.1000000000D+01
 D   1 1.00       0.000000000000
      0.1700000000D+00  0.1000000000D+01
 F   1 1.00       0.000000000000
      0.4414180800D+00  0.1000000000D+01
 F   1 1.00       0.000000000000
      0.2180000000D+01  0.1000000000D+01
 ****

 There are   214 symmetry adapted cartesian basis functions of A   symmetry.
 There are   198 symmetry adapted basis functions of A   symmetry.
   198 basis functions,   377 primitive gaussians,   214 cartesian basis functions
    42 alpha electrons       42 beta electrons
       nuclear repulsion energy       557.0814032212 Hartrees.
 NAtoms=   19 NActive=   19 NUniq=   19 SFac= 1.00D+00 NAtFMM=   60 NAOKFM=F Big=F
 Integral buffers will be    131072 words long.
 Raffenetti 2 integral format.
 Two-electron integral symmetry is turned on.
 One-electron integrals computed using PRISM.
 PrsmSu:  requested number of processors reduced to:   2 ShMem   1 Linda.
   1 Symmetry operations used in ECPInt.
 ECPInt:  NShTT=    2701 NPrTT=   12914 LenC2=    2638 LenP2D=    9070.
 LDataN:  DoStor=T MaxTD1= 7 Len=  274
 NBasis=   198 RedAO= T EigKep=  5.76D-05  NBF=   198
 NBsUse=   198 1.00D-06 EigRej= -1.00D+00 NBFU=   198
 Defaulting to unpruned grid for atomic number  53.
 ExpMin= 4.38D-02 ExpMax= 5.90D+03 ExpMxC= 8.25D+02 IAcc=2 IRadAn=         4 AccDes= 0.00D+00
 Harris functional with IExCor=  402 and IRadAn=       4 diagonalized for initial guess.
 HarFok:  IExCor=  402 AccDes= 0.00D+00 IRadAn=         4 IDoV= 1 UseB2=F ITyADJ=14
 ICtDFT=  3500011 ScaDFX=  1.000000  1.000000  1.000000  1.000000
 Defaulting to unpruned grid for atomic number  53.
 Defaulting to unpruned grid for atomic number  53.
 Defaulting to unpruned grid for atomic number  53.
 Defaulting to unpruned grid for atomic number  53.
 Defaulting to unpruned grid for atomic number  53.
 Defaulting to unpruned grid for atomic number  53.
 Defaulting to unpruned grid for atomic number  53.
 Defaulting to unpruned grid for atomic number  53.
 FoFCou: FMM=F IPFlag=           0 FMFlag=      100000 FMFlg1=           0
         NFxFlg=           0 DoJE=T BraDBF=F KetDBF=T FulRan=T
         wScrn=  0.000000 ICntrl=     500 IOpCl=  0 I1Cent=   200000004 NGrid=           0
         NMat0=    1 NMatS0=      1 NMatT0=    0 NMatD0=    1 NMtDS0=    0 NMtDT0=    0
 Petite list used in FoFCou.
 Requested convergence on RMS density matrix=1.00D-08 within 128 cycles.
 Requested convergence on MAX density matrix=1.00D-06.
 Requested convergence on             energy=1.00D-06.
 No special actions if energy rises.
 Defaulting to unpruned grid for atomic number  53.
 Defaulting to unpruned grid for atomic number  53.
 Defaulting to unpruned grid for atomic number  53.
 Defaulting to unpruned grid for atomic number  53.
 Defaulting to unpruned grid for atomic number  53.
 Defaulting to unpruned grid for atomic number  53.
 Defaulting to unpruned grid for atomic number  53.
 Defaulting to unpruned grid for atomic number  53.
 SCF Done:  E(RB3LYP) =  -682.310563120     A.U. after   16 cycles
            NFock= 16  Conv=0.61D-08     -V/T= 2.3767
 DoSCS=F DFT=T ScalE2(SS,OS)=  1.000000  1.000000
 Range of M.O.s used for correlation:     1   198
 NBasis=   198 NAE=    42 NBE=    42 NFC=     0 NFV=     0
 NROrb=    198 NOA=    42 NOB=    42 NVA=   156 NVB=   156

 **** Warning!!: The largest alpha MO coefficient is  0.34335629D+02

 PrsmSu:  requested number of processors reduced to:   1 ShMem   1 Linda.
 PrsmSu:  requested number of processors reduced to:   4 ShMem   1 Linda.
   1 Symmetry operations used in ECPInt.
 ECPInt:  NShTT=    2701 NPrTT=   12914 LenC2=    2638 LenP2D=    9070.
 LDataN:  DoStor=T MaxTD1= 8 Len=  415
 Number of processors reduced to   4 by ecpmxn.
 Symmetrizing basis deriv contribution to polar:
 IMax=3 JMax=2 DiffMx= 0.00D+00
 G2DrvN: will do    10 centers at a time, making    2 passes.
 Estimated number of processors is:    5
 Calling FoFCou, ICntrl=  3107 FMM=F I1Cent=   0 AccDes= 0.00D+00.
 CoulSu:  requested number of processors reduced to:   5 ShMem   1 Linda.
 Defaulting to unpruned grid for atomic number  53.
 Defaulting to unpruned grid for atomic number  53.
 Defaulting to unpruned grid for atomic number  53.
 Defaulting to unpruned grid for atomic number  53.
 Defaulting to unpruned grid for atomic number  53.
 Defaulting to unpruned grid for atomic number  53.
 Defaulting to unpruned grid for atomic number  53.
 Defaulting to unpruned grid for atomic number  53.
 Calling FoFCou, ICntrl=  3107 FMM=F I1Cent=   0 AccDes= 0.00D+00.
 CoulSu:  requested number of processors reduced to:   5 ShMem   1 Linda.
 End of G2Drv F.D. properties file   721 does not exist.
 End of G2Drv F.D. properties file   722 does not exist.
 End of G2Drv F.D. properties file   788 does not exist.
          IDoAtm=1111111111111111111
          Differentiating once with respect to nuclear coordinates.
 Defaulting to unpruned grid for atomic number  53.
 PrRfSu:  requested number of processors reduced to:   5 ShMem   1 Linda.
 Defaulting to unpruned grid for atomic number  53.
 Defaulting to unpruned grid for atomic number  53.
 Defaulting to unpruned grid for atomic number  53.
 Defaulting to unpruned grid for atomic number  53.
 Defaulting to unpruned grid for atomic number  53.
 Defaulting to unpruned grid for atomic number  53.
 Defaulting to unpruned grid for atomic number  53.
 Defaulting to unpruned grid for atomic number  53.
          There are    60 degrees of freedom in the 1st order CPHF.  IDoFFX=6 NUNeed=     0.
     54 vectors produced by pass  0 Test12= 1.09D-14 1.67D-09 XBig12= 1.43D-01 1.18D-01.
 AX will form    54 AO Fock derivatives at one time.
 PrRfSu:  requested number of processors reduced to:   6 ShMem   1 Linda.
     54 vectors produced by pass  1 Test12= 1.09D-14 1.67D-09 XBig12= 6.61D-02 6.48D-02.
 PrRfSu:  requested number of processors reduced to:   6 ShMem   1 Linda.
     54 vectors produced by pass  2 Test12= 1.09D-14 1.67D-09 XBig12= 9.42D-04 6.15D-03.
 PrRfSu:  requested number of processors reduced to:   6 ShMem   1 Linda.
     54 vectors produced by pass  3 Test12= 1.09D-14 1.67D-09 XBig12= 1.61D-05 6.90D-04.
 PrRfSu:  requested number of processors reduced to:   6 ShMem   1 Linda.
     54 vectors produced by pass  4 Test12= 1.09D-14 1.67D-09 XBig12= 5.13D-08 4.06D-05.
 PrRfSu:  requested number of processors reduced to:   6 ShMem   1 Linda.
     46 vectors produced by pass  5 Test12= 1.09D-14 1.67D-09 XBig12= 6.97D-11 8.49D-07.
 PrRfSu:  requested number of processors reduced to:   6 ShMem   1 Linda.
      9 vectors produced by pass  6 Test12= 1.09D-14 1.67D-09 XBig12= 1.13D-13 3.48D-08.
 PrRfSu:  requested number of processors reduced to:   7 ShMem   1 Linda.
      1 vectors produced by pass  7 Test12= 1.09D-14 1.67D-09 XBig12= 2.06D-15 6.60D-09.
 InvSVY:  IOpt=1 It=  1 EMax= 7.22D-16
 Solved reduced A of dimension   326 with    60 vectors.
 End of Minotr F.D. properties file   721 does not exist.
 End of Minotr F.D. properties file   722 does not exist.
 End of Minotr F.D. properties file   788 does not exist.

 **********************************************************************

            Population analysis using the SCF density.

 **********************************************************************

 Orbital symmetries:
       Occupied  (A) (A) (A) (A) (A) (A) (A) (A) (A) (A) (A) (A)
                 (A) (A) (A) (A) (A) (A) (A) (A) (A) (A) (A) (A)
                 (A) (A) (A) (A) (A) (A) (A) (A) (A) (A) (A) (A)
                 (A) (A) (A) (A) (A) (A)
       Virtual   (A) (A) (A) (A) (A) (A) (A) (A) (A) (A) (A) (A)
                 (A) (A) (A) (A) (A) (A) (A) (A) (A) (A) (A) (A)
                 (A) (A) (A) (A) (A) (A) (A) (A) (A) (A) (A) (A)
                 (A) (A) (A) (A) (A) (A) (A) (A) (A) (A) (A) (A)
                 (A) (A) (A) (A) (A) (A) (A) (A) (A) (A) (A) (A)
                 (A) (A) (A) (A) (A) (A) (A) (A) (A) (A) (A) (A)
                 (A) (A) (A) (A) (A) (A) (A) (A) (A) (A) (A) (A)
                 (A) (A) (A) (A) (A) (A) (A) (A) (A) (A) (A) (A)
                 (A) (A) (A) (A) (A) (A) (A) (A) (A) (A) (A) (A)
                 (A) (A) (A) (A) (A) (A) (A) (A) (A) (A) (A) (A)
                 (A) (A) (A) (A) (A) (A) (A) (A) (A) (A) (A) (A)
                 (A) (A) (A) (A) (A) (A) (A) (A) (A) (A) (A) (A)
                 (A) (A) (A) (A) (A) (A) (A) (A) (A) (A) (A) (A)
 The electronic state is 1-A.
 Alpha  occ. eigenvalues --  -19.21262 -19.14526 -19.10905 -10.36197 -10.22706
 Alpha  occ. eigenvalues --  -10.21282 -10.19278  -6.87645  -4.90130  -4.88959
 Alpha  occ. eigenvalues --   -4.88839  -1.95014  -1.94590  -1.94489  -1.93473
 Alpha  occ. eigenvalues --   -1.93470  -1.04403  -0.98299  -0.93974  -0.80234
 Alpha  occ. eigenvalues --   -0.74642  -0.70577  -0.65695  -0.59244  -0.53030
 Alpha  occ. eigenvalues --   -0.51773  -0.49221  -0.47036  -0.46006  -0.43656
 Alpha  occ. eigenvalues --   -0.42912  -0.41625  -0.40779  -0.40300  -0.37839
 Alpha  occ. eigenvalues --   -0.34681  -0.32696  -0.29688  -0.29166  -0.27049
 Alpha  occ. eigenvalues --   -0.25539  -0.24069
 Alpha virt. eigenvalues --   -0.11181  -0.04201  -0.00437   0.01392   0.02047
 Alpha virt. eigenvalues --    0.02702   0.03750   0.04452   0.05693   0.05863
 Alpha virt. eigenvalues --    0.06374   0.07220   0.08473   0.08911   0.10364
 Alpha virt. eigenvalues --    0.11102   0.11947   0.12794   0.13303   0.14354
 Alpha virt. eigenvalues --    0.15204   0.15880   0.17495   0.18486   0.18724
 Alpha virt. eigenvalues --    0.19822   0.21164   0.21898   0.21943   0.22570
 Alpha virt. eigenvalues --    0.23551   0.23767   0.24527   0.26365   0.26905
 Alpha virt. eigenvalues --    0.27516   0.28572   0.28783   0.30460   0.31110
 Alpha virt. eigenvalues --    0.32191   0.33058   0.34254   0.35054   0.36076
 Alpha virt. eigenvalues --    0.37017   0.37301   0.38485   0.40528   0.42604
 Alpha virt. eigenvalues --    0.43828   0.46521   0.50399   0.57968   0.64812
 Alpha virt. eigenvalues --    0.65041   0.65609   0.66496   0.68315   0.70956
 Alpha virt. eigenvalues --    0.72110   0.72765   0.73913   0.76005   0.78011
 Alpha virt. eigenvalues --    0.82242   0.84679   0.84903   0.85797   0.89590
 Alpha virt. eigenvalues --    0.90829   0.94202   0.94791   0.95987   0.96956
 Alpha virt. eigenvalues --    0.97508   0.98979   1.00608   1.03040   1.08423
 Alpha virt. eigenvalues --    1.10999   1.13336   1.13880   1.15256   1.16354
 Alpha virt. eigenvalues --    1.16845   1.19114   1.22014   1.23086   1.27284
 Alpha virt. eigenvalues --    1.28523   1.30010   1.31556   1.33367   1.34957
 Alpha virt. eigenvalues --    1.35929   1.37766   1.38860   1.39567   1.41815
 Alpha virt. eigenvalues --    1.43456   1.44206   1.45528   1.49208   1.52698
 Alpha virt. eigenvalues --    1.54169   1.57275   1.59692   1.62166   1.64169
 Alpha virt. eigenvalues --    1.66174   1.72242   1.76191   1.80451   1.82087
 Alpha virt. eigenvalues --    1.86041   1.87556   1.93195   1.94293   1.96979
 Alpha virt. eigenvalues --    1.98427   2.02163   2.09354   2.12048   2.13027
 Alpha virt. eigenvalues --    2.18647   2.22511   2.22857   2.26195   2.28486
 Alpha virt. eigenvalues --    2.31090   2.33673   2.38324   2.39336   2.41795
 Alpha virt. eigenvalues --    2.41886   2.44992   2.51345   2.56241   2.75535
 Alpha virt. eigenvalues --    2.85956   2.87549   2.91962   3.01707   3.02155
 Alpha virt. eigenvalues --    3.02476   3.03085   3.13190   3.13540   3.30649
 Alpha virt. eigenvalues --    4.28075  34.49384  34.50093  34.60538  42.75351
 Alpha virt. eigenvalues --  117.78075
          Condensed to atoms (all electrons):
               1          2          3          4          5          6
     1  C    6.199327   0.113459   0.121540   0.018334   0.002283   0.003721
     2  O    0.113459   8.645792  -0.017885  -0.078604   0.010455   0.012201
     3  O    0.121540  -0.017885   8.489230  -0.051191   0.018197  -0.002735
     4  O    0.018334  -0.078604  -0.051191   8.739279   0.017280  -0.103853
     5  C    0.002283   0.010455   0.018197   0.017280   5.173255   0.434032
     6  H    0.003721   0.012201  -0.002735  -0.103853   0.434032   0.576381
     7  H    0.010522  -0.003309   0.000931  -0.062202   0.404022  -0.036822
     8  H   -0.006564   0.001243  -0.000598  -0.023866   0.377029  -0.049084
     9  H   -0.047477   0.003012   0.118044   0.136080  -0.014954   0.001666
    10  H    0.049336   0.035315   0.001545   0.117755  -0.007316  -0.007833
    11  C   -0.514098  -0.068591  -0.044664  -0.008334  -0.000434  -0.003129
    12  H   -0.066317  -0.007853   0.001949   0.000246   0.000838   0.000066
    13  H   -0.073322   0.012200   0.000511  -0.000082  -0.000806  -0.000008
    14  H   -0.062753  -0.008393   0.001559   0.000342   0.000837   0.000523
    15  C   -0.131427   0.018735   0.048581   0.040338  -0.029601  -0.002615
    16  H   -0.017574  -0.000403  -0.035674  -0.001039   0.000849   0.000002
    17  H    0.026257  -0.000470  -0.023211   0.001015   0.000165  -0.000022
    18  H   -0.073830   0.005201  -0.096931  -0.003973  -0.002423   0.000607
    19  I    0.191368  -0.078371  -0.050391  -0.000356  -0.000822   0.000023
               7          8          9         10         11         12
     1  C    0.010522  -0.006564  -0.047477   0.049336  -0.514098  -0.066317
     2  O   -0.003309   0.001243   0.003012   0.035315  -0.068591  -0.007853
     3  O    0.000931  -0.000598   0.118044   0.001545  -0.044664   0.001949
     4  O   -0.062202  -0.023866   0.136080   0.117755  -0.008334   0.000246
     5  C    0.404022   0.377029  -0.014954  -0.007316  -0.000434   0.000838
     6  H   -0.036822  -0.049084   0.001666  -0.007833  -0.003129   0.000066
     7  H    0.552346  -0.034304  -0.002668   0.005617  -0.004336  -0.000003
     8  H   -0.034304   0.547712   0.000592  -0.005081   0.002115   0.000000
     9  H   -0.002668   0.000592   0.291109  -0.009951   0.023792  -0.000028
    10  H    0.005617  -0.005081  -0.009951   0.314095  -0.023730  -0.000195
    11  C   -0.004336   0.002115   0.023792  -0.023730   6.155982   0.407712
    12  H   -0.000003   0.000000  -0.000028  -0.000195   0.407712   0.448443
    13  H    0.000004   0.000000  -0.000033  -0.000106   0.388683  -0.025379
    14  H   -0.000052   0.000002   0.000262  -0.000068   0.410855  -0.026097
    15  C   -0.004466   0.002847  -0.001847  -0.003347  -0.038485   0.005486
    16  H    0.000008   0.000000   0.002861   0.000023   0.014726   0.000023
    17  H    0.000044   0.000002  -0.005179  -0.000034  -0.013519  -0.000032
    18  H   -0.000168   0.000020  -0.002526   0.000447   0.024814   0.001209
    19  I    0.000002   0.000019   0.002387   0.001305   0.033742  -0.005299
              13         14         15         16         17         18
     1  C   -0.073322  -0.062753  -0.131427  -0.017574   0.026257  -0.073830
     2  O    0.012200  -0.008393   0.018735  -0.000403  -0.000470   0.005201
     3  O    0.000511   0.001559   0.048581  -0.035674  -0.023211  -0.096931
     4  O   -0.000082   0.000342   0.040338  -0.001039   0.001015  -0.003973
     5  C   -0.000806   0.000837  -0.029601   0.000849   0.000165  -0.002423
     6  H   -0.000008   0.000523  -0.002615   0.000002  -0.000022   0.000607
     7  H    0.000004  -0.000052  -0.004466   0.000008   0.000044  -0.000168
     8  H    0.000000   0.000002   0.002847   0.000000   0.000002   0.000020
     9  H   -0.000033   0.000262  -0.001847   0.002861  -0.005179  -0.002526
    10  H   -0.000106  -0.000068  -0.003347   0.000023  -0.000034   0.000447
    11  C    0.388683   0.410855  -0.038485   0.014726  -0.013519   0.024814
    12  H   -0.025379  -0.026097   0.005486   0.000023  -0.000032   0.001209
    13  H    0.508060  -0.031411  -0.000053   0.001016   0.000301  -0.010781
    14  H   -0.031411   0.454922  -0.022276   0.000608   0.000224   0.005150
    15  C   -0.000053  -0.022276   5.272402   0.396491   0.360403   0.436893
    16  H    0.001016   0.000608   0.396491   0.519085  -0.031556  -0.052669
    17  H    0.000301   0.000224   0.360403  -0.031556   0.506135  -0.042547
    18  H   -0.010781   0.005150   0.436893  -0.052669  -0.042547   0.614680
    19  I    0.001878   0.005921   0.022527   0.000917  -0.000527   0.002472
              19
     1  C    0.191368
     2  O   -0.078371
     3  O   -0.050391
     4  O   -0.000356
     5  C   -0.000822
     6  H    0.000023
     7  H    0.000002
     8  H    0.000019
     9  H    0.002387
    10  H    0.001305
    11  C    0.033742
    12  H   -0.005299
    13  H    0.001878
    14  H    0.005921
    15  C    0.022527
    16  H    0.000917
    17  H   -0.000527
    18  H    0.002472
    19  I   24.784478
 Mulliken charges:
               1
     1  C    0.257216
     2  O   -0.593733
     3  O   -0.478805
     4  O   -0.737168
     5  C   -0.382887
     6  H    0.176880
     7  H    0.174833
     8  H    0.187916
     9  H    0.504859
    10  H    0.532225
    11  C   -0.743100
    12  H    0.265232
    13  H    0.229331
    14  H    0.269843
    15  C   -0.370587
    16  H    0.202308
    17  H    0.222553
    18  H    0.194354
    19  I    0.088729
 Sum of Mulliken charges =   0.00000
 Mulliken charges with hydrogens summed into heavy atoms:
               1
     1  C    0.257216
     2  O   -0.061509
     3  O    0.026054
     4  O   -0.737168
     5  C    0.156743
    11  C    0.021306
    15  C    0.248628
    19  I    0.088729
 APT charges:
               1
     1  C   -0.081175
     2  O   -0.420973
     3  O   -0.451668
     4  O   -0.408778
     5  C   -1.496143
     6  H    0.151108
     7  H    0.538831
     8  H    0.647863
     9  H    0.505536
    10  H    0.498215
    11  C   -1.392698
    12  H    0.557343
    13  H    0.422301
    14  H    0.554967
    15  C   -1.095595
    16  H    0.336748
    17  H    0.727088
    18  H    0.160877
    19  I    0.246154
 Sum of APT charges =   0.00000
 APT charges with hydrogens summed into heavy atoms:
               1
     1  C   -0.081175
     2  O    0.077242
     3  O    0.053868
     4  O   -0.408778
     5  C   -0.158341
    11  C    0.141912
    15  C    0.129118
    19  I    0.246154
 Electronic spatial extent (au):  <R**2>=           1874.4383
 Charge=              0.0000 electrons
 Dipole moment (field-independent basis, Debye):
    X=              0.8369    Y=              3.7017    Z=              2.5762  Tot=              4.5869
 Quadrupole moment (field-independent basis, Debye-Ang):
   XX=            -66.7114   YY=            -72.0352   ZZ=            -73.1663
   XY=             -7.1484   XZ=             -4.5507   YZ=              1.4003
 Traceless Quadrupole moment (field-independent basis, Debye-Ang):
   XX=              3.9262   YY=             -1.3976   ZZ=             -2.5286
   XY=             -7.1484   XZ=             -4.5507   YZ=              1.4003
 Octapole moment (field-independent basis, Debye-Ang**2):
  XXX=             79.8730  YYY=              1.1200  ZZZ=             -0.0748  XYY=             19.2846
  XXY=              2.9050  XXZ=              1.6196  XZZ=             31.8478  YZZ=              0.1736
  YYZ=             -1.1467  XYZ=              6.3144
 Hexadecapole moment (field-independent basis, Debye-Ang**3):
 XXXX=          -1632.0252 YYYY=           -541.5136 ZZZZ=           -332.5757 XXXY=            -51.0977
 XXXZ=            -42.3452 YYYX=            -31.5890 YYYZ=              0.0494 ZZZX=            -16.9964
 ZZZY=              1.3918 XXYY=           -357.9602 XXZZ=           -359.9881 YYZZ=           -162.8662
 XXYZ=            -21.3141 YYXZ=             -8.2943 ZZXY=            -18.5044
 N-N= 5.570814032212D+02 E-N=-2.645423446372D+03  KE= 4.956276817224D+02
  Exact polarizability:   0.000   0.000   0.000   0.000   0.000   0.000
 Approx polarizability: 203.209   6.139 166.293  -2.313 -16.735 141.544
 PrsmSu:  requested number of processors reduced to:   1 ShMem   1 Linda.
 PrsmSu:  requested number of processors reduced to:   2 ShMem   1 Linda.
   1 Symmetry operations used in ECPInt.
 ECPInt:  NShTT=    2701 NPrTT=   12914 LenC2=    2638 LenP2D=    9070.
 LDataN:  DoStor=T MaxTD1= 9 Len=  602
 Calling FoFJK, ICntrl=    100147 FMM=F ISym2X=0 I1Cent= 0 IOpClX= 0 NMat=1 NMatS=1 NMatT=0.
 CoulSu:  requested number of processors reduced to:   2 ShMem   1 Linda.
 Defaulting to unpruned grid for atomic number  53.
 Defaulting to unpruned grid for atomic number  53.
 Defaulting to unpruned grid for atomic number  53.
 Defaulting to unpruned grid for atomic number  53.
 Defaulting to unpruned grid for atomic number  53.
 Defaulting to unpruned grid for atomic number  53.
 Defaulting to unpruned grid for atomic number  53.
 Defaulting to unpruned grid for atomic number  53.
 ***** Axes restored to original set *****
 -------------------------------------------------------------------
 Center     Atomic                   Forces (Hartrees/Bohr)
 Number     Number              X              Y              Z
 -------------------------------------------------------------------
      1        6           0.037624536    0.139444899   -0.029896812
      2        8          -0.017222027   -0.100968966   -0.002236427
      3        8           0.003000312    0.063870498    0.034445416
      4        8          -0.004942611   -0.010485295   -0.000410389
      5        6          -0.007915566   -0.010205692    0.027705477
      6        1           0.012505054   -0.004971702   -0.039325026
      7        1          -0.021633505    0.004680101   -0.011891831
      8        1           0.000504725    0.021369398    0.012601289
      9        1           0.029301281   -0.024208528   -0.011594373
     10        1          -0.021222730   -0.027876371    0.027087693
     11        6           0.005896605   -0.030198187    0.029261830
     12        1           0.017970481   -0.006243935    0.003381964
     13        1          -0.005762128   -0.016866033   -0.013648254
     14        1          -0.015340195    0.024963866   -0.006098506
     15        6           0.036805482   -0.003459865   -0.016481320
     16        1          -0.011108976   -0.032781785   -0.008310842
     17        1          -0.036961024    0.011565861    0.022111986
     18        1          -0.006058266    0.019074988   -0.031792071
     19       53           0.004558552   -0.016703251    0.015090195
 -------------------------------------------------------------------
 Cartesian Forces:  Max     0.139444899 RMS     0.031209065
 FormGI is forming the generalized inverse of G from B-inverse, IUseBI=4.
 GSVD:  received Info=                   1 from GESDD.

 GradGradGradGradGradGradGradGradGradGradGradGradGradGradGradGradGradGrad
 Berny optimization.
 Internal  Forces:  Max     0.103454971 RMS     0.030408637
 Search for a saddle point.
 Step number   1 out of a maximum of   79
 All quantities printed in internal units (Hartrees-Bohrs-Radians)
 Swapping is turned off.
 Second derivative matrix not updated -- analytic derivatives used.
 ITU=  0
     Eigenvalues ---   -0.22625  -0.03235  -0.01901  -0.01478  -0.00944
     Eigenvalues ---   -0.00019   0.00308   0.00948   0.01097   0.01634
     Eigenvalues ---    0.02922   0.03059   0.05845   0.06168   0.06351
     Eigenvalues ---    0.06600   0.07324   0.08093   0.08769   0.10119
     Eigenvalues ---    0.10792   0.11445   0.11655   0.12086   0.12783
     Eigenvalues ---    0.13664   0.14090   0.14364   0.16356   0.18475
     Eigenvalues ---    0.18634   0.20045   0.20675   0.21197   0.23841
     Eigenvalues ---    0.27200   0.31890   0.38728   0.38764   0.39908
     Eigenvalues ---    0.40502   0.41756   0.42213   0.43369   0.43922
     Eigenvalues ---    0.44201   0.44379   0.45716   0.52059   1.37146
     Eigenvalues ---    4.17830
 Eigenvectors required to have negative eigenvalues:
                          R8        R1        D1        R5        A15
   1                   -0.37782   0.33084   0.30551   0.27521  -0.24219
                          A16       A5        D21       D10       A8
   1                   -0.22856  -0.22522  -0.21015  -0.20402  -0.19604
 RFO step:  Lambda0=1.497708606D-03 Lambda=-1.71072122D-01.
 Linear search not attempted -- option 19 set.
 Maximum step size (   0.300) exceeded in Quadratic search.
    -- Step size scaled by   0.323
 Iteration  1 RMS(Cart)=  0.17185374 RMS(Int)=  0.00816768
 Iteration  2 RMS(Cart)=  0.01520129 RMS(Int)=  0.00026426
 Iteration  3 RMS(Cart)=  0.00009162 RMS(Int)=  0.00026022
 Iteration  4 RMS(Cart)=  0.00000002 RMS(Int)=  0.00026022
 Variable       Old X    -DE/DX   Delta X   Delta X   Delta X     New X
                                 (Linear)    (Quad)   (Total)
    R1        2.96687  -0.10345   0.00000  -0.17750  -0.17750   2.78937
    R2        2.90712  -0.01129   0.00000  -0.00268  -0.00268   2.90444
    R3        3.79835   0.02157   0.00000   0.04810   0.04810   3.84645
    R4        2.14831   0.02422   0.00000   0.06968   0.06968   2.21799
    R5        2.38105  -0.05736   0.00000  -0.14221  -0.14221   2.23884
    R6        2.65768   0.03866   0.00000   0.02305   0.02305   2.68073
    R7        2.68898   0.01714   0.00000   0.00503   0.00503   2.69401
    R8        3.00175  -0.03690   0.00000   0.01912   0.01912   3.02087
    R9        2.39995   0.00619   0.00000  -0.06323  -0.06323   2.33672
   R10        1.98421   0.03811   0.00000   0.02111   0.02111   2.00532
   R11        2.00736   0.02441   0.00000   0.01343   0.01343   2.02080
   R12        2.01776   0.02333   0.00000   0.01296   0.01296   2.03073
   R13        2.02923   0.01539   0.00000   0.00765   0.00765   2.03688
   R14        2.01396   0.02031   0.00000   0.01120   0.01120   2.02516
   R15        1.98612   0.02894   0.00000   0.01425   0.01425   2.00037
   R16        1.98660   0.03264   0.00000   0.01285   0.01285   1.99945
   R17        1.98391   0.03378   0.00000   0.01566   0.01566   1.99957
   R18        1.98421   0.02450   0.00000   0.02352   0.02352   2.00773
    A1        1.74165   0.03220   0.00000   0.06032   0.06055   1.80219
    A2        1.97237  -0.00539   0.00000   0.00153   0.00217   1.97454
    A3        2.12494  -0.02042   0.00000  -0.04149  -0.04168   2.08326
    A4        1.99910   0.01499   0.00000   0.03246   0.03246   2.03157
    A5        1.77782  -0.00487   0.00000  -0.04478  -0.04478   1.73304
    A6        2.17587  -0.01610   0.00000  -0.02321  -0.02293   2.15294
    A7        1.59212   0.06242   0.00000   0.06180   0.06193   1.65405
    A8        1.70886  -0.01694   0.00000  -0.03248  -0.03192   1.67694
    A9        1.85957   0.01826   0.00000   0.01122   0.01120   1.87077
   A10        1.93505   0.00270   0.00000   0.00090   0.00090   1.93595
   A11        1.92865  -0.00557   0.00000   0.00175   0.00173   1.93038
   A12        1.98604  -0.01300   0.00000  -0.01279  -0.01279   1.97325
   A13        1.81975   0.00223   0.00000   0.00532   0.00527   1.82502
   A14        1.93059  -0.00418   0.00000  -0.00553  -0.00553   1.92507
   A15        2.57536   0.01544   0.00000  -0.03266  -0.03266   2.54270
   A16        2.69434   0.04030   0.00000  -0.05292  -0.05292   2.64142
   A17        1.91446  -0.01551   0.00000  -0.00946  -0.00946   1.90499
   A18        1.90800   0.01560   0.00000   0.01028   0.01030   1.91830
   A19        1.98593  -0.00869   0.00000  -0.00781  -0.00781   1.97811
   A20        1.91247  -0.00282   0.00000  -0.00191  -0.00189   1.91058
   A21        1.79050   0.01116   0.00000   0.01062   0.01060   1.80110
   A22        1.94875  -0.00096   0.00000  -0.00226  -0.00224   1.94651
   A23        1.86063   0.01275   0.00000   0.01258   0.01190   1.87253
   A24        2.21859  -0.05231   0.00000  -0.05821  -0.05857   2.16003
   A25        1.73123   0.05178   0.00000   0.03188   0.03197   1.76321
   A26        1.96401   0.00171   0.00000   0.00293   0.00218   1.96618
   A27        1.80488   0.00790   0.00000   0.01698   0.01662   1.82150
   A28        1.82582  -0.00425   0.00000   0.01364   0.01400   1.83982
    D1        1.90434   0.03812   0.00000   0.09867   0.09810   2.00244
    D2       -2.09597   0.03249   0.00000   0.09101   0.09158  -2.00439
    D3        1.23022   0.00434   0.00000   0.02927   0.02903   1.25925
    D4       -2.95560   0.00100   0.00000   0.02746   0.02721  -2.92839
    D5       -0.76378   0.00561   0.00000   0.02679   0.02652  -0.73726
    D6       -0.95101  -0.00350   0.00000   0.00109   0.00136  -0.94965
    D7        1.14637  -0.00684   0.00000  -0.00072  -0.00047   1.14589
    D8       -2.94501  -0.00223   0.00000  -0.00139  -0.00116  -2.94616
    D9        0.06343   0.01251   0.00000   0.07981   0.07981   0.14323
   D10       -1.76326  -0.10277   0.00000   0.03287   0.03287  -1.73039
   D11        3.07483   0.01909   0.00000   0.03838   0.03824   3.11307
   D12       -0.82348  -0.02447   0.00000  -0.01057  -0.00984  -0.83332
   D13        1.20619  -0.01145   0.00000   0.00531   0.00472   1.21090
   D14       -1.43690  -0.00603   0.00000   0.01707   0.01728  -1.41962
   D15        0.73270  -0.00830   0.00000   0.00927   0.00945   0.74215
   D16        2.87973  -0.01565   0.00000   0.00407   0.00423   2.88396
   D17        0.31705   0.01495   0.00000   0.01752   0.01736   0.33440
   D18        2.48665   0.01268   0.00000   0.00972   0.00953   2.49617
   D19       -1.64951   0.00534   0.00000   0.00452   0.00431  -1.64520
   D20        1.66053  -0.02465   0.00000  -0.00280  -0.00255   1.65797
   D21       -0.03286  -0.08611   0.00000  -0.05080  -0.05105  -0.08390
   D22       -2.21887  -0.00984   0.00000  -0.09717  -0.09696  -2.31583
   D23       -0.03256  -0.01676   0.00000  -0.11336  -0.11357  -0.14613
         Item               Value     Threshold  Converged?
 Maximum Force            0.103455     0.000450     NO 
 RMS     Force            0.030409     0.000300     NO 
 Maximum Displacement     0.466710     0.001800     NO 
 RMS     Displacement     0.176943     0.001200     NO 
 Predicted change in Energy=-5.566762D-02
 GradGradGradGradGradGradGradGradGradGradGradGradGradGradGradGradGradGrad

                          Input orientation:                          
 ---------------------------------------------------------------------
 Center     Atomic      Atomic             Coordinates (Angstroms)
 Number     Number       Type             X           Y           Z
 ---------------------------------------------------------------------
      1          6           0        0.751058    0.416010   -0.414465
      2          8           0        1.253614    1.801718   -0.336785
      3          8           0       -1.073994    0.338084    0.206960
      4          8           0       -0.548355    2.909577    0.652798
      5          6           0       -0.867551    3.947447   -0.270948
      6          1           0       -0.293362    3.775383   -1.146612
      7          1           0       -1.919602    3.980413   -0.459706
      8          1           0       -0.524466    4.897884    0.094780
      9          1           0       -1.198994    1.450557    0.594777
     10          1           0        0.513345    2.601688    0.098699
     11          6           0        0.703550    0.142511   -1.926153
     12          1           0        1.709626    0.035716   -2.297913
     13          1           0        0.154771   -0.757974   -2.117043
     14          1           0        0.323485    0.955418   -2.487636
     15          6           0       -1.893801    0.404846   -0.948822
     16          1           0       -1.849240   -0.540970   -1.420990
     17          1           0       -2.867748    0.818381   -0.955834
     18          1           0       -1.313339    1.038796   -1.573291
     19         53           0        1.757969   -0.869115    0.801122
 ---------------------------------------------------------------------
                    Distance matrix (angstroms):
                    1          2          3          4          5
     1  C    0.000000
     2  O    1.476070   0.000000
     3  O    1.929522   2.802792   0.000000
     4  O    3.007556   2.335320   2.662262   0.000000
     5  C    3.887356   3.017918   3.646713   1.425611   0.000000
     6  H    3.593360   2.635206   3.775787   2.013086   1.061172
     7  H    4.454148   3.851120   3.798164   2.065109   1.069359
     8  H    4.687588   3.596396   4.594164   2.065265   1.074614
     9  H    2.427253   2.646962   1.184745   1.598574   2.663418
    10  H    2.257661   1.173711   2.766816   1.236539   1.963308
    11  C    1.536964   2.362547   2.783538   3.984332   4.436846
    12  H    2.147289   2.678195   3.756908   4.697259   5.104123
    13  H    2.152340   3.305873   2.848192   4.649444   5.156956
    14  H    2.184449   2.491490   3.097564   3.800154   3.909542
    15  C    2.698321   3.497436   1.418581   3.263294   3.750030
    16  H    2.947957   4.036259   2.005982   4.230741   4.736264
    17  H    3.681133   4.282032   2.190965   3.512888   3.776363
    18  H    2.447953   2.949618   1.928102   3.006742   3.217931
    19  I    2.035453   2.946618   3.135343   4.429407   5.589451
                    6          7          8          9         10
     6  H    0.000000
     7  H    1.777226   0.000000
     8  H    1.689518   1.759435   0.000000
     9  H    3.042601   2.833970   3.548105   0.000000
    10  H    1.891860   2.851654   2.519838   2.122099   0.000000
    11  C    3.846983   4.874514   5.310910   3.418442   3.191200
    12  H    4.395744   5.666651   5.861469   4.339297   3.709319
    13  H    4.657670   5.431584   6.110831   3.750234   4.040473
    14  H    3.182932   4.277212   4.788626   3.473382   3.071707
    15  C    3.736448   3.608959   4.811609   1.989715   3.423123
    16  H    4.596405   4.622978   5.799458   2.907287   4.215159
    17  H    3.925267   3.338199   4.820488   2.364061   3.965352
    18  H    2.951494   3.203239   4.277539   2.209784   2.928303
    19  I    5.438106   6.215476   6.242332   3.763919   3.753527
                   11         12         13         14         15
    11  C    0.000000
    12  H    1.077868   0.000000
    13  H    1.071667   1.755058   0.000000
    14  H    1.058551   1.674285   1.761112   0.000000
    15  C    2.787512   3.865357   2.629360   2.754530   0.000000
    16  H    2.690552   3.710402   2.132519   2.845636   1.058062
    17  H    3.761979   4.833848   3.601239   3.542481   1.058128
    18  H    2.235101   3.266429   2.383148   1.876745   1.062446
    19  I    3.094061   3.228788   3.331408   4.025245   4.245079
                   16         17         18         19
    16  H    0.000000
    17  H    1.761126   0.000000
    18  H    1.675126   1.687017   0.000000
    19  I    4.249402   5.227982   4.325609   0.000000
 Stoichiometry    C4H11IO3
 Framework group  C1[X(C4H11IO3)]
 Deg. of freedom    51
 Full point group                 C1      NOp   1
 Largest Abelian subgroup         C1      NOp   1
 Largest concise Abelian subgroup C1      NOp   1
                         Standard orientation:                         
 ---------------------------------------------------------------------
 Center     Atomic      Atomic             Coordinates (Angstroms)
 Number     Number       Type             X           Y           Z
 ---------------------------------------------------------------------
      1          6           0       -0.111315    0.222744    0.483091
      2          8           0       -0.867177   -0.950519    0.963621
      3          8           0       -0.978473    0.979810   -1.065439
      4          8           0       -2.549180   -1.128534   -0.646625
      5          6           0       -3.758316   -1.069122    0.106254
      6          1           0       -3.495247   -0.815331    1.102483
      7          1           0       -4.448301   -0.380373   -0.333147
      8          1           0       -4.203468   -2.044081    0.184295
      9          1           0       -1.819244    0.163691   -1.240582
     10          1           0       -1.817648   -1.248935    0.343018
     11          6           0       -0.287194    1.244287    1.617893
     12          1           0        0.299568    0.933884    2.467104
     13          1           0        0.039756    2.211492    1.292180
     14          1           0       -1.272352    1.276894    2.003808
     15          6           0       -1.787512    2.044140   -0.591068
     16          1           0       -1.142888    2.851544   -0.362911
     17          1           0       -2.682268    2.357269   -1.061171
     18          1           0       -2.083640    1.667228    0.357108
     19         53           0        1.763215   -0.242106   -0.159654
 ---------------------------------------------------------------------
 Rotational constants (GHZ):      1.8849096      0.5687284      0.5253670
 Basis read from rwf:  (5D, 7F)
 Pseudo-potential data read from rwf file.
 There are   214 symmetry adapted cartesian basis functions of A   symmetry.
 There are   198 symmetry adapted basis functions of A   symmetry.
   198 basis functions,   377 primitive gaussians,   214 cartesian basis functions
    42 alpha electrons       42 beta electrons
       nuclear repulsion energy       562.7246343458 Hartrees.
 NAtoms=   19 NActive=   19 NUniq=   19 SFac= 1.00D+00 NAtFMM=   60 NAOKFM=F Big=F
 Integral buffers will be    131072 words long.
 Raffenetti 2 integral format.
 Two-electron integral symmetry is turned on.
 One-electron integrals computed using PRISM.
 PrsmSu:  requested number of processors reduced to:   2 ShMem   1 Linda.
   1 Symmetry operations used in ECPInt.
 ECPInt:  NShTT=    2701 NPrTT=   12914 LenC2=    2639 LenP2D=    9073.
 LDataN:  DoStor=T MaxTD1= 7 Len=  274
 NBasis=   198 RedAO= T EigKep=  5.69D-05  NBF=   198
 NBsUse=   198 1.00D-06 EigRej= -1.00D+00 NBFU=   198
 Defaulting to unpruned grid for atomic number  53.
 Initial guess from the checkpoint file:  "/lustre/SCRATCH5/gau/Gau-24235.chk"
 B after Tr=     0.000000    0.000000    0.000000
         Rot=    0.996402    0.084507   -0.003725   -0.005183 Ang=   9.72 deg.
 ExpMin= 4.38D-02 ExpMax= 5.90D+03 ExpMxC= 8.25D+02 IAcc=2 IRadAn=         4 AccDes= 0.00D+00
 Harris functional with IExCor=  402 and IRadAn=       4 diagonalized for initial guess.
 HarFok:  IExCor=  402 AccDes= 0.00D+00 IRadAn=         4 IDoV= 1 UseB2=F ITyADJ=14
 ICtDFT=  3500011 ScaDFX=  1.000000  1.000000  1.000000  1.000000
 Defaulting to unpruned grid for atomic number  53.
 Defaulting to unpruned grid for atomic number  53.
 Defaulting to unpruned grid for atomic number  53.
 Defaulting to unpruned grid for atomic number  53.
 Defaulting to unpruned grid for atomic number  53.
 Defaulting to unpruned grid for atomic number  53.
 Defaulting to unpruned grid for atomic number  53.
 Defaulting to unpruned grid for atomic number  53.
 FoFCou: FMM=F IPFlag=           0 FMFlag=      100000 FMFlg1=           0
         NFxFlg=           0 DoJE=T BraDBF=F KetDBF=T FulRan=T
         wScrn=  0.000000 ICntrl=     500 IOpCl=  0 I1Cent=   200000004 NGrid=           0
         NMat0=    1 NMatS0=      1 NMatT0=    0 NMatD0=    1 NMtDS0=    0 NMtDT0=    0
 Petite list used in FoFCou.
 Requested convergence on RMS density matrix=1.00D-08 within 128 cycles.
 Requested convergence on MAX density matrix=1.00D-06.
 Requested convergence on             energy=1.00D-06.
 No special actions if energy rises.
 Defaulting to unpruned grid for atomic number  53.
 Defaulting to unpruned grid for atomic number  53.
 Defaulting to unpruned grid for atomic number  53.
 Defaulting to unpruned grid for atomic number  53.
 Defaulting to unpruned grid for atomic number  53.
 Defaulting to unpruned grid for atomic number  53.
 Defaulting to unpruned grid for atomic number  53.
 Defaulting to unpruned grid for atomic number  53.
 SCF Done:  E(RB3LYP) =  -682.365015731     A.U. after   13 cycles
            NFock= 13  Conv=0.53D-08     -V/T= 2.3768
 PrsmSu:  requested number of processors reduced to:   2 ShMem   1 Linda.
 PrsmSu:  requested number of processors reduced to:   5 ShMem   1 Linda.
   1 Symmetry operations used in ECPInt.
 ECPInt:  NShTT=    2701 NPrTT=   12914 LenC2=    2639 LenP2D=    9073.
 LDataN:  DoStor=T MaxTD1= 8 Len=  415
 Calling FoFJK, ICntrl=      2127 FMM=F ISym2X=0 I1Cent= 0 IOpClX= 0 NMat=1 NMatS=1 NMatT=0.
 CoulSu:  requested number of processors reduced to:   5 ShMem   1 Linda.
 Defaulting to unpruned grid for atomic number  53.
 Defaulting to unpruned grid for atomic number  53.
 Defaulting to unpruned grid for atomic number  53.
 Defaulting to unpruned grid for atomic number  53.
 Defaulting to unpruned grid for atomic number  53.
 Defaulting to unpruned grid for atomic number  53.
 Defaulting to unpruned grid for atomic number  53.
 Defaulting to unpruned grid for atomic number  53.
 ***** Axes restored to original set *****
 -------------------------------------------------------------------
 Center     Atomic                   Forces (Hartrees/Bohr)
 Number     Number              X              Y              Z
 -------------------------------------------------------------------
      1        6           0.036745372    0.127372635   -0.036880196
      2        8          -0.017908256   -0.093983917   -0.003395306
      3        8          -0.006530836    0.051956165    0.032826230
      4        8           0.000540256   -0.002896347   -0.007936723
      5        6          -0.000612690   -0.009216106    0.023059551
      6        1           0.004703629   -0.002396139   -0.031970662
      7        1          -0.017847745    0.003365806   -0.007210856
      8        1           0.000003356    0.016224876    0.010756832
      9        1           0.030801566   -0.021659097   -0.011024109
     10        1          -0.024943484   -0.023978165    0.031968058
     11        6           0.002694607   -0.024004145    0.025422133
     12        1           0.013514215   -0.005866500    0.004096508
     13        1          -0.004559912   -0.014183070   -0.009817694
     14        1          -0.012840059    0.019473394   -0.006298430
     15        6           0.033395534   -0.000356864   -0.023935168
     16        1          -0.010836588   -0.024992020   -0.007229252
     17        1          -0.026007868    0.005230266    0.024137536
     18        1          -0.005088959    0.017263560   -0.023057834
     19       53           0.004777862   -0.017354332    0.016489381
 -------------------------------------------------------------------
 Cartesian Forces:  Max     0.127372635 RMS     0.028334826

 GradGradGradGradGradGradGradGradGradGradGradGradGradGradGradGradGradGrad
 Berny optimization.
 FormGI is forming the generalized inverse of G from B-inverse, IUseBI=4.
 Internal  Forces:  Max     0.093597834 RMS     0.023662430
 Search for a saddle point.
 Step number   2 out of a maximum of   79
 All quantities printed in internal units (Hartrees-Bohrs-Radians)
 Swapping is turned off.
 Update second derivatives using D2CorX and points    1    2
 ITU=  0  0
     Eigenvalues ---   -0.22751  -0.02957  -0.01819  -0.01515  -0.00699
     Eigenvalues ---   -0.00024   0.00312   0.00991   0.01164   0.01630
     Eigenvalues ---    0.02985   0.03408   0.05848   0.06168   0.06478
     Eigenvalues ---    0.06941   0.07325   0.08521   0.08756   0.10101
     Eigenvalues ---    0.10742   0.11466   0.11655   0.12246   0.12965
     Eigenvalues ---    0.13691   0.14090   0.14435   0.16354   0.18478
     Eigenvalues ---    0.18756   0.20073   0.20673   0.21373   0.24081
     Eigenvalues ---    0.27199   0.31883   0.38727   0.38765   0.39908
     Eigenvalues ---    0.40496   0.41753   0.42219   0.43375   0.43914
     Eigenvalues ---    0.44206   0.44361   0.45679   0.52414   1.37176
     Eigenvalues ---    4.19245
 Eigenvectors required to have negative eigenvalues:
                          R8        R1        R5        D1        A15
   1                    0.38166  -0.36057  -0.29802  -0.28316   0.23239
                          D10       A16       A5        D21       R9
   1                    0.21749   0.21466   0.21066   0.20293  -0.18771
 RFO step:  Lambda0=3.009662485D-05 Lambda=-1.34336175D-01.
 Linear search not attempted -- option 19 set.
 Maximum step size (   0.300) exceeded in Quadratic search.
    -- Step size scaled by   0.407
 Iteration  1 RMS(Cart)=  0.24845547 RMS(Int)=  0.01460754
 Iteration  2 RMS(Cart)=  0.03668319 RMS(Int)=  0.00046950
 Iteration  3 RMS(Cart)=  0.00066640 RMS(Int)=  0.00039288
 Iteration  4 RMS(Cart)=  0.00000029 RMS(Int)=  0.00039288
 Variable       Old X    -DE/DX   Delta X   Delta X   Delta X     New X
                                 (Linear)    (Quad)   (Total)
    R1        2.78937  -0.09360   0.00000  -0.16173  -0.16173   2.62764
    R2        2.90444  -0.00877   0.00000  -0.00281  -0.00281   2.90163
    R3        3.84645   0.02317   0.00000   0.06774   0.06774   3.91419
    R4        2.21799   0.02382   0.00000   0.08180   0.08180   2.29979
    R5        2.23884  -0.04857   0.00000  -0.09970  -0.09970   2.13915
    R6        2.68073   0.02929   0.00000   0.02445   0.02445   2.70518
    R7        2.69401   0.01238   0.00000   0.00468   0.00468   2.69869
    R8        3.02087  -0.03113   0.00000  -0.05990  -0.05990   2.96096
    R9        2.33672  -0.00373   0.00000  -0.07285  -0.07285   2.26387
[...]
 ,-0.02181759,0.00536236,-0.07777829,0.01289714,0.25674187,-0.00325402,
 0.00099411,0.00047668,0.00178031,-0.00177539,0.00019414,-0.00257494,-0
 .01179187,-0.00764992,-0.13061157,0.04651714,-0.00545812,0.56581576,-0
 .00027903,-0.00532413,0.00267463,-0.00274846,0.00939226,0.00445559,-0.
 00065952,0.00587752,0.00140266,0.05037711,-0.15597683,0.02672974,0.080
 31728,0.50776695,0.00087244,0.00258472,-0.00143913,0.00195142,-0.00510
 730,-0.00578099,-0.00209815,-0.00415619,-0.00221146,-0.01829070,0.0412
 7290,-0.08465140,-0.03414716,0.03169001,0.59609405,0.00055861,0.000125
 72,-0.00025853,-0.00025092,-0.00031554,0.00013778,0.00057408,0.0021719
 3,0.00149850,0.01296996,0.02988520,0.00116041,-0.14502545,-0.13676105,
 -0.02252376,0.14889386,-0.00127759,0.00021197,0.00025410,0.00060269,-0
 .00008425,-0.00050701,-0.00047654,-0.00298420,-0.00205020,-0.00667431,
 -0.03587651,-0.00017094,-0.12586186,-0.22517895,-0.03420498,0.13247710
 ,0.25497230,0.00002208,-0.00020843,0.00013205,0.00013545,0.00032889,-0
 .00001378,0.00046119,0.00121654,0.00062392,0.00478444,0.01225939,0.003
 00924,-0.02440792,-0.03706040,-0.06055463,0.02709044,0.03363705,0.0559
 3428,0.00064136,0.00071434,-0.00072770,-0.00008697,-0.00065332,0.00090
 997,-0.00023931,0.00110088,0.00068734,-0.01031745,0.01030702,-0.019651
 34,-0.07418748,-0.00878816,-0.06585416,-0.00331034,-0.00190419,-0.0181
 2654,0.07628113,0.00050585,-0.00007825,0.00020246,-0.00026645,-0.00037
 781,-0.00051271,-0.00042605,-0.00050646,-0.00068173,0.01775574,-0.0091
 6795,0.03097974,-0.01037664,-0.05530118,-0.02835364,-0.00608924,0.0010
 2811,-0.02583680,0.00086402,0.05935381,-0.00045125,-0.00047633,0.00017
 615,-0.00041620,0.00104518,0.00077453,0.00066413,0.00126518,0.00056704
 ,-0.00578155,0.00830578,-0.00045669,-0.06967301,-0.02276445,-0.2949818
 9,0.00015137,-0.00093181,-0.00235715,0.08129837,0.01938045,0.31467661,
 -0.00036041,-0.00126189,0.00069856,-0.00048026,0.00199307,0.00133138,0
 .00027244,0.00066981,0.00026648,-0.01995112,0.00925082,0.01067219,-0.2
 1686995,-0.00438360,0.13240956,-0.01198829,-0.00033492,0.01167514,0.01
 084273,-0.00087700,-0.00616764,0.23702445,0.00095634,0.00149577,-0.000
 89111,0.00049189,-0.00245054,-0.00180507,-0.00073837,-0.00031792,0.000
 17377,0.03455503,-0.00869725,-0.01901460,-0.01298583,-0.04995313,0.005
 76029,-0.02015078,0.00301245,0.01770147,0.00199098,0.00114339,-0.00306
 260,-0.00412213,0.05685178,0.00006970,0.00005201,0.00007355,-0.0002654
 3,0.00033602,0.00076581,-0.00019834,-0.00024647,-0.00008291,-0.0122551
 9,0.00100207,0.00980317,0.13941323,0.00041793,-0.16454287,-0.00552738,
 0.00025680,0.00462173,0.02443664,0.00112053,-0.01618548,-0.14562921,-0
 .00387093,0.16675310,0.01198346,0.02185959,0.00637462,-0.00020199,-0.0
 0874100,-0.00241201,-0.04302075,0.01802301,0.00852882,-0.07454573,-0.0
 2150884,-0.00448483,0.01662672,0.01299320,0.00435305,-0.00320309,0.004
 44423,-0.00138268,-0.00036547,0.00077260,-0.00098062,-0.00028974,0.000
 71776,0.00060783,0.12529531,0.05145655,0.01852551,-0.01547505,-0.00516
 028,-0.03204798,-0.00558366,-0.00613655,0.00806324,0.02880384,-0.00075
 476,-0.03843500,-0.01073914,0.01512571,-0.02226452,0.00449462,-0.00186
 113,0.00542193,-0.00120419,-0.00286360,0.00257839,-0.00214386,-0.00160
 865,0.00103626,-0.00011272,0.00413312,0.02982264,0.02291275,-0.0074122
 0,-0.00483555,-0.00449094,-0.00611720,-0.00224121,-0.00676683,0.026126
 47,-0.01198558,-0.00882797,-0.00803864,-0.04003281,0.01126922,0.004951
 62,0.00117844,-0.00223182,0.00300065,-0.00103862,-0.00057448,0.0020390
 3,-0.00088016,-0.00028033,-0.00091472,0.00024282,-0.00985954,-0.028895
 10,0.05621825,0.02075207,0.02235123,-0.02308595,-0.01833607,-0.0346528
 3,-0.00742147,-0.00768566,0.01146609,0.00736974,-0.11162715,0.02035522
 ,0.07317229,-0.01411808,0.01260829,0.00259898,0.00111170,-0.00160636,0
 .00002944,0.00089833,-0.00186643,0.00164602,0.00197819,-0.00075554,-0.
 00070779,-0.02184711,-0.03319451,0.00794079,0.15059268,-0.01132257,-0.
 03861602,0.00811709,-0.00464662,0.01812957,0.01588030,0.00911058,-0.00
 749685,-0.00746718,-0.00670600,-0.05943604,0.01040459,0.02153813,-0.00
 933481,-0.01319799,0.00024961,0.00003285,-0.00094497,-0.00065721,0.001
 80038,-0.00061193,0.00031898,-0.00178916,0.00106546,-0.02105103,0.0178
 0691,0.02169945,0.01343447,0.07331406,-0.02289285,-0.03417180,0.029529
 50,-0.00058631,0.04648670,-0.00959470,0.01195378,-0.00898929,-0.010943
 27,0.08990417,-0.00759788,-0.12309035,-0.01045429,-0.00986846,0.015814
 36,0.00044246,0.00070322,-0.00017761,-0.00258216,0.00185907,-0.0011678
 0,-0.00461301,0.00556148,-0.00137398,0.00693474,0.02662776,0.01211630,
 -0.06940928,-0.02885380,0.09838691,-0.06585129,-0.00519431,0.00189284,
 0.00908800,-0.01375566,-0.00744596,-0.01932668,0.02424528,0.02724807,0
 .00411644,0.00345682,-0.00144257,0.00039248,-0.00012198,0.00004091,-0.
 00008574,0.00018043,-0.00001493,-0.00008234,-0.00007719,0.00005544,0.0
 0001412,-0.00009101,-0.00002739,-0.00495795,-0.00792730,-0.00185492,-0
 .00226377,0.00125053,0.00323731,0.58529801,0.00523257,-0.13384255,-0.0
 6048633,-0.00544771,-0.04866700,-0.02163276,0.00233347,0.00129068,-0.0
 0309861,0.00401569,-0.00064572,-0.00316999,-0.00018389,0.00061355,-0.0
 0032243,-0.00001270,-0.00003543,0.00002789,-0.00004315,-0.00001705,0.0
 0005619,0.00016094,-0.00016945,0.00002419,-0.00069495,-0.00125617,0.00
 022589,-0.00513194,0.00302801,0.00550989,0.01753154,0.54826333,0.01395
 667,-0.07214992,-0.12718612,-0.00229686,0.01019306,0.01298354,0.002203
 37,-0.00587393,-0.00403717,-0.00220168,0.00035881,0.00155562,0.0000893
 2,-0.00024731,0.00028934,-0.00000769,0.00001560,-0.00002790,0.00002112
 ,0.00001625,-0.00003976,-0.00008174,0.00011620,-0.00003605,0.00043075,
 0.00105596,0.00009765,0.00258025,-0.00064137,-0.00230549,-0.00667597,-
 0.06269297,0.51000982,-0.00361593,-0.00018052,-0.00019629,0.00111290,-
 0.00048249,-0.00046393,0.00168876,0.00026918,-0.00019749,0.00024964,0.
 00014730,-0.00008731,0.00003168,0.00003653,-0.00002508,-0.00000578,0.0
 0001457,0.00000175,-0.00000716,-0.00001563,0.00001013,0.00000849,-0.00
 001307,-0.00000444,-0.00016067,-0.00055932,-0.00019394,-0.00011464,0.0
 0025451,0.00020117,-0.30819167,0.04257125,0.05638438,0.33081531,0.0240
 9431,-0.00441722,-0.00393565,-0.00202628,0.00085913,0.00019261,0.00257
 219,-0.00329359,-0.00369027,-0.00071183,-0.00051378,0.00030519,-0.0000
 9154,0.00005523,0.00000189,0.00001662,-0.00003336,0.00000213,0.0000190
 2,0.00000430,-0.00000058,-0.00000359,0.00001441,0.00000321,0.00079627,
 0.00136560,0.00023600,0.00041851,-0.00030839,-0.00057538,0.04028420,-0
 .05393809,-0.00848622,-0.04551722,0.05584358,0.02209927,-0.00403352,-0
 .00540343,-0.00113428,0.00243374,0.00025261,0.00324771,-0.00528323,-0.
 00385992,-0.00088183,-0.00077482,0.00017697,-0.00010319,0.00003145,-0.
 00002285,0.00002383,-0.00003708,0.00001171,0.00001629,0.00000254,-0.00
 000376,-0.00000194,0.00001748,0.00000376,0.00111693,0.00176081,0.00055
 150,0.00049454,-0.00037266,-0.00060352,0.05276104,-0.00823873,-0.05587
 293,-0.05884323,0.01192581,0.06184014,-0.00095879,0.00343771,-0.000121
 70,0.00168401,0.00066152,0.00034352,-0.00025062,-0.00039658,-0.0007577
 8,-0.00006330,-0.00031834,-0.00022563,-0.00004647,0.00003500,-0.000031
 57,0.00000307,-0.00001561,-0.00000075,0.00000311,0.00001486,0.00000073
 ,0.00000459,-0.00000423,0.00001214,0.00017117,0.00036993,0.00017521,0.
 00020119,0.00012736,0.00024445,-0.09283358,-0.09483614,0.03897272,-0.0
 1041936,-0.02745763,0.01037719,0.09692441,-0.01064443,-0.01940096,0.01
 468898,0.00062554,-0.00495355,-0.00573187,0.00084279,0.00209963,0.0002
 2151,0.00140769,0.00025055,-0.00081273,-0.00000078,0.00020602,-0.00012
 085,-0.00001057,0.00001188,0.00001302,-0.00001961,-0.00002445,0.000035
 52,0.00004691,-0.00007162,0.00000746,-0.00051922,-0.00123048,-0.000393
 01,-0.00147964,0.00088170,0.00158750,-0.09337461,-0.24436542,0.0811874
 2,0.00229441,0.00645442,-0.00230193,0.10218900,0.26441269,-0.01153723,
 -0.01883953,0.00915522,0.00128390,-0.00589572,-0.00248771,-0.00034681,
 0.00121753,0.00062059,0.00076637,0.00013855,-0.00060723,-0.00005679,0.
 00009530,-0.00002863,-0.00000685,0.00000098,0.00000155,-0.00000583,-0.
 00000732,0.00000754,0.00002198,-0.00001779,0.00000758,-0.00031032,-0.0
 0050724,-0.00010203,-0.00066339,0.00027123,0.00112316,0.04121345,0.087
 54491,-0.08596583,0.00151964,0.00542277,-0.00298298,-0.04394976,-0.090
 19459,0.08976956,0.00006523,0.00043112,0.00124451,-0.00014661,-0.00121
 899,0.00091644,0.00011157,-0.00044043,-0.00069209,-0.00009164,-0.00027
 026,0.00000346,-0.00008074,0.00006713,-0.00001558,0.00000390,-0.000022
 00,-0.00000649,0.00002101,0.00000543,0.00000391,0.00000358,0.00000069,
 0.00000825,0.00013300,0.00048510,0.00003967,0.00005857,-0.00003138,-0.
 00002348,-0.10213583,0.03211168,-0.09954046,-0.01237209,0.00876675,-0.
 02753833,0.00656948,-0.00222316,0.01223299,0.10925224,-0.01174002,0.00
 440278,-0.02005543,0.00113496,0.00213790,0.00088966,-0.00087943,0.0004
 4354,0.00125250,-0.00017020,0.00023612,0.00023007,-0.00000088,-0.00002
 714,0.00001198,-0.00000151,0.00001015,-0.00000263,0.00001150,-0.000011
 53,-0.00000183,-0.00001085,0.00001346,0.00000115,-0.00015763,-0.000230
 49,-0.00014850,0.00033695,-0.00015270,-0.00022829,0.03198925,-0.071403
 98,0.06072813,0.00170452,-0.00202663,0.00445357,0.01470005,-0.00527100
 ,0.02139639,-0.03805304,0.07172464,-0.01168617,0.00560941,-0.02212685,
 0.00185525,0.00093616,0.00332894,0.00062001,-0.00003381,0.00122505,0.0
 0000804,0.00027351,0.00021715,-0.00005660,0.00005960,-0.00003478,0.000
 00769,0.00001228,0.00000777,0.00002178,-0.00005012,0.00003758,-0.00000
 489,-0.00000285,-0.00001140,-0.00020612,-0.00043322,-0.00032285,0.0001
 3339,-0.00016984,-0.00027741,-0.10008012,0.06109195,-0.23027821,0.0026
 8415,-0.00185830,0.00680515,-0.00458461,0.00182970,-0.00770040,0.11182
 634,-0.06597405,0.25184581,-0.03596489,0.00284747,-0.01157893,0.005315
 38,0.00142594,-0.00090632,-0.13389499,0.00048052,-0.04664705,0.0034118
 6,0.01301236,0.00257080,0.00300480,-0.00262579,0.00097412,-0.00055041,
 0.00060765,-0.00030072,-0.00018209,0.00026258,-0.00057852,-0.00023653,
 0.00031208,0.00027391,-0.00420640,-0.01942537,-0.00893868,-0.00176977,
 -0.00044493,0.00020378,0.00109557,0.00041124,0.00217793,-0.00001070,-0
 .00133815,-0.00172002,-0.00004332,-0.00003677,0.00070354,-0.00115066,0
 .00147038,-0.00053330,0.50533872,-0.00211389,-0.00134461,0.00305450,-0
 .00084266,-0.00041475,0.00132048,0.00375766,-0.06994347,-0.01269024,0.
 00055831,-0.00657656,0.00062128,-0.00119623,-0.00091325,-0.00054028,0.
 00024470,-0.00044526,0.00009080,0.00005678,-0.00024863,-0.00007776,0.0
 0004350,0.00002088,0.00005972,-0.01043549,0.01091597,-0.00675524,0.000
 23010,-0.00007960,-0.00088471,0.00118343,-0.00003984,-0.00060841,-0.00
 037717,-0.00043804,-0.00016989,0.00103661,-0.00069591,0.00034734,0.000
 31231,0.00056135,-0.00012130,-0.00320476,0.59839202,-0.02152805,0.0011
 5703,0.01874858,0.00722475,0.00717675,-0.00527209,-0.05210229,-0.01616
 933,-0.14514525,0.00127557,0.00639777,0.00272103,0.00170621,-0.0025828
 9,0.00165525,-0.00021100,0.00020009,-0.00045677,-0.00028410,0.00052241
 ,-0.00056921,-0.00020263,0.00008800,-0.00014861,-0.00778363,-0.0062625
 1,-0.00914475,0.00067879,-0.00163905,-0.00116988,0.00418494,-0.0003526
 8,0.00068710,-0.00010056,-0.00062763,-0.00101875,0.00013067,-0.0000456
 0,0.00019464,0.00086715,-0.00021710,-0.00073610,-0.09213085,0.01101101
 ,0.52757771,0.00249985,-0.00224238,-0.00176677,-0.00092968,0.00037658,
 0.00082233,-0.01090311,-0.02731458,-0.02089889,-0.00064956,-0.00343413
 ,-0.00022691,-0.00068102,0.00019301,-0.00021799,0.00018683,-0.00019324
 ,0.00005095,-0.00000358,-0.00007275,0.00012723,0.00004762,-0.00007703,
 -0.00008539,-0.00098624,0.00546631,0.00084530,0.00053639,-0.00000849,-
 0.00030449,-0.00070875,-0.00039788,0.00049990,0.00018541,0.00018368,-0
 .00004269,-0.00057194,0.00070029,-0.00013170,-0.00084130,0.00005036,0.
 00050288,-0.04983173,-0.01129530,0.00034120,0.05728021,0.00171274,-0.0
 0085734,-0.00108935,-0.00057572,0.00039444,0.00020011,-0.00517288,0.00
 650136,-0.00279607,-0.00020984,-0.00032988,0.00006053,-0.00006380,-0.0
 0007229,0.00018928,-0.00001527,-0.00002729,-0.00008319,0.00000060,0.00
 010081,-0.00011984,0.00000465,0.00001788,0.00001147,0.00056921,0.00139
 111,0.00105544,0.00037682,-0.00007739,-0.00009330,0.00083154,0.0002305
 9,-0.00060212,0.00026499,0.00019079,0.00052162,0.00027060,0.00001779,-
 0.00031022,0.00013999,-0.00038661,0.00063900,-0.01729618,-0.29364793,-
 0.08474923,0.01911418,0.30948308,0.00277291,0.00003966,-0.00074935,-0.
 00042605,-0.00036282,0.00065640,-0.01268302,-0.02437328,-0.01691754,-0
 .00039469,-0.00332108,-0.00035264,-0.00070015,0.00024335,-0.00046916,0
 .00013413,-0.00018077,0.00014740,0.00007709,-0.00015686,0.00013707,0.0
 0003743,0.00000077,0.00004437,-0.00062581,0.00571259,0.00110343,0.0003
 4374,0.00007241,-0.00033361,-0.00001327,-0.00033765,0.00040965,0.00005
 070,0.00023977,0.00002562,-0.00000288,0.00019268,0.00003763,0.00054230
 ,0.00011565,-0.00016159,-0.00319586,-0.08060998,-0.07915541,0.01267738
 ,0.09548353,0.08920373,0.00561773,0.00080023,-0.00474403,-0.00084532,-
 0.00175226,0.00065845,-0.03493647,0.00467423,0.00413068,0.00039488,-0.
 00126064,-0.00073520,-0.00032610,0.00035057,-0.00016633,0.00013008,-0.
 00003916,0.00006055,-0.00004394,-0.00010892,0.00020684,0.00007121,-0.0
 0015668,-0.00013672,-0.00058209,0.00138299,0.00081715,-0.00063913,0.00
 073673,0.00081895,-0.00010716,-0.00021138,-0.00029833,0.00005890,0.000
 07337,0.00014998,-0.00004843,0.00005801,-0.00004290,0.00005389,-0.0000
 6377,0.00013870,-0.22708518,0.05391826,0.11430864,0.00416348,-0.000053
 00,-0.00046360,0.25710265,-0.00075245,-0.00057000,-0.00053390,0.000037
 62,0.00024564,-0.00008038,-0.00222827,0.00227410,0.00154666,0.00045908
 ,0.00008997,-0.00017518,-0.00006638,0.00006203,-0.00005790,0.00007616,
 -0.00000227,0.00005272,-0.00010130,-0.00003410,0.00015361,-0.00001035,
 -0.00006061,-0.00013822,-0.00073969,-0.00006956,0.00003249,-0.00024115
 ,0.00023790,0.00032256,0.00025515,-0.00006403,0.00005795,0.00011470,0.
 00015626,0.00021053,-0.00015744,0.00022015,-0.00028503,-0.00000217,-0.
 00027429,0.00018659,0.05563533,-0.06972057,-0.03400980,0.02593813,-0.0
 0550310,-0.01598963,-0.05963094,0.06618834,0.00268890,0.00121812,-0.00
 443696,-0.00083998,-0.00188554,0.00114790,-0.03291695,0.00684842,0.010
 90212,0.00041142,0.00043845,-0.00024714,0.00007228,-0.00016318,0.00016
 275,-0.00003341,0.00002124,-0.00005229,0.00004781,0.00001010,-0.000124
 23,0.00002274,-0.00000741,0.00004355,-0.00049605,-0.00069385,0.0006257
 5,-0.00032685,0.00033735,0.00033041,-0.00003946,-0.00011694,-0.0006041
 3,0.00016297,0.00007917,0.00036817,-0.00005991,0.00010961,-0.00003637,
 0.00008966,-0.00005874,0.00066659,0.12204459,-0.03565664,-0.12257856,0
 .00863578,-0.00120624,-0.00431084,-0.11755262,0.03798421,0.12833353,0.
 00258433,0.00277932,-0.00265325,0.00050960,-0.00117096,0.00099401,-0.0
 0357578,0.01624601,-0.02974706,-0.00055274,-0.00066473,-0.00001760,-0.
 00007922,-0.00011866,0.00016670,-0.00000027,-0.00003402,-0.00004369,0.
 00013274,0.00000410,-0.00010858,0.00000660,0.00000378,0.00002945,0.000
 49675,0.00210618,0.00082327,0.00036351,-0.00024720,-0.00052617,-0.0003
 8253,0.00001629,0.00008388,0.00004904,0.00004935,0.00011580,0.00000805
 ,-0.00006919,-0.00001406,-0.00044910,0.00041963,0.00010953,-0.06184686
 ,-0.03433975,0.04230292,0.00108901,0.00030238,0.00183267,-0.00224875,-
 0.01863705,0.01876767,0.06417018,-0.00164766,0.00027198,0.00161272,0.0
 0070390,0.00023453,-0.00079253,0.00564881,0.00688851,-0.00085365,0.000
 32348,0.00072455,0.00027330,0.00012463,-0.00025341,-0.00007782,-0.0000
 1767,0.00002682,-0.00001610,-0.00003959,-0.00015704,-0.00011686,0.0000
 0584,0.00000416,0.00003984,0.00006476,-0.00074812,-0.00087013,-0.00024
 981,0.00004128,0.00015540,0.00003454,-0.00040734,0.00072468,-0.0000729
 5,0.00013767,-0.00031204,-0.00012457,0.00020704,-0.00009295,0.00025847
 ,-0.00016627,-0.00061098,-0.03229975,-0.16482434,0.12125950,-0.0071216
 8,-0.01756324,0.02312139,0.00091793,0.00684378,-0.00760831,0.03348326,
 0.16881317,0.00554448,0.00139901,-0.00199882,-0.00079534,-0.00259118,0
 .00125197,-0.01135162,0.01084110,-0.02409982,-0.00008196,-0.00211921,-
 0.00034520,-0.00055131,0.00056487,-0.00076066,0.00013484,-0.00008354,0
 .00025335,0.00006896,-0.00038890,0.00033791,0.00005296,-0.00003223,0.0
 0002584,0.00058844,0.00386246,0.00057378,-0.00046243,0.00036771,0.0001
 2270,-0.00047430,-0.00022219,0.00004072,0.00001739,0.00008552,0.000155
 83,0.00006833,-0.00000959,-0.00000727,0.00017440,-0.00006198,0.0002539
 8,0.03750384,0.12051157,-0.18811628,-0.00105138,-0.00707513,0.01073602
 ,0.00339709,0.01061583,-0.00981853,-0.03249996,-0.13566735,0.21123712,
 -0.00749892,-0.01068576,0.00831250,0.00559390,0.01210303,-0.00595757,-
 0.01989209,0.00355141,-0.01216512,-0.00144620,0.00225903,0.00148381,0.
 00020325,-0.00049187,0.00000329,-0.00001179,0.00011313,-0.00002771,0.0
 0000572,-0.00000886,-0.00000679,-0.00009772,0.00006610,-0.00001388,-0.
 00033917,-0.00103441,-0.00080390,0.00190874,-0.00190549,-0.00254876,-0
 .00307733,0.00257506,-0.00629757,0.00069786,-0.00012805,-0.00013706,-0
 .00033327,0.00021334,-0.00067623,0.00099550,-0.00074029,-0.00075597,-0
 .00139282,0.00246358,0.00132228,0.00011810,-0.00020101,0.00003699,-0.0
 0073026,0.00005102,-0.00067861,-0.00027454,0.00000808,-0.00028245,0.02
 557103,-0.00580754,-0.00927671,-0.00834042,0.00547263,-0.01682735,0.02
 070464,0.00949972,0.00227876,0.00389801,0.00250548,-0.00158432,-0.0010
 2731,-0.00022192,0.00062609,0.00013370,-0.00001160,-0.00006094,0.00002
 681,0.00000500,-0.00008473,0.00006592,0.00011844,-0.00010075,-0.000029
 50,-0.00052589,-0.00064523,0.00017770,-0.00239946,0.00201830,0.0024493
 4,-0.00070066,0.00142591,-0.00315182,-0.00045358,-0.00011227,0.0001663
 6,0.00046792,0.00125152,-0.00028461,-0.00031722,0.00042072,-0.00138372
 ,0.00020613,-0.00055745,-0.00115672,0.00013493,0.00013723,0.00011026,0
 .00036442,-0.00001963,0.00035019,-0.00012875,-0.00007373,0.00000326,-0
 .00820804,0.02118457,0.00780934,-0.02195826,-0.00363914,-0.00233060,0.
 03262611,-0.01589757,-0.01226415,-0.00027986,-0.00196694,-0.00310325,0
 .00214195,0.00392950,0.00003738,-0.00063004,0.00028427,0.00001900,0.00
 006434,-0.00006427,0.00022092,-0.00014452,0.00005171,-0.00020702,0.000
 19985,-0.00000396,-0.00039354,-0.00026751,-0.00212436,0.00508918,-0.00
 431678,-0.00638571,-0.01256513,0.00619037,-0.01971985,-0.00092003,0.00
 067997,-0.00042332,-0.00059037,-0.00026323,-0.00099902,-0.00013265,-0.
 00233053,-0.00273844,0.00007774,0.00109773,0.00192736,0.00022325,-0.00
 003627,-0.00005119,-0.00054729,0.00010689,-0.00037174,0.00038447,-0.00
 016813,0.00015734,0.01919275,-0.01271208,0.04803533\\0.00008137,-0.000
 04311,0.00000374,-0.00003049,0.00002687,0.00000829,-0.00001541,0.00004
 490,0.00007616,0.00005620,-0.00001255,0.00006854,-0.00002731,-0.000001
 26,-0.00001612,-0.00001615,0.00000572,-0.00001167,-0.00000397,-0.00000
 364,-0.00001030,-0.00001402,-0.00000305,-0.00001300,-0.00001312,-0.000
 00103,-0.00009163,-0.00005264,-0.00000784,-0.00002759,-0.00001855,0.00
 000690,0.00000919,0.00001235,-0.00000022,0.00001764,-0.00000007,0.0000
 0022,0.00000912,0.00000270,0.00000197,0.00000395,0.00003876,-0.0000080
 7,-0.00001809,0.00001075,-0.00001822,0.00000547,0.00000215,-0.00001188
 ,0.00000682,0.00000156,-0.00000557,-0.00001097,-0.00001412,0.00002987,
 -0.00000954\\\@


 AN AIRPLANE IS A COLLECTION OF SPARE PARTS
 FLYING IN CLOSE FORMATION.
 Job cpu time:       0 days  0 hours 24 minutes 49.0 seconds.
 File lengths (MBytes):  RWF=     95 Int=      0 D2E=      0 Chk=      4 Scr=      1
 Normal termination of Gaussian 09 at Wed Feb 18 17:43:21 2015.
