 Entering Gaussian System, Link 0=g09
 Initial command:
 /opt/gridware/applications/gaussian/g09/l1.exe "/lustre/SCRATCH5/gau/Gau-12523.inp" -scrdir="/lustre/SCRATCH5/gau/"
 Entering Link 1 = /opt/gridware/applications/gaussian/g09/l1.exe PID=     12524.
  
 Copyright (c) 1988,1990,1992,1993,1995,1998,2003,2009,2013,
            Gaussian, Inc.  All Rights Reserved.
  
 This is part of the Gaussian(R) 09 program.  It is based on
 the Gaussian(R) 03 system (copyright 2003, Gaussian, Inc.),
 the Gaussian(R) 98 system (copyright 1998, Gaussian, Inc.),
 the Gaussian(R) 94 system (copyright 1995, Gaussian, Inc.),
 the Gaussian 92(TM) system (copyright 1992, Gaussian, Inc.),
 the Gaussian 90(TM) system (copyright 1990, Gaussian, Inc.),
 the Gaussian 88(TM) system (copyright 1988, Gaussian, Inc.),
 the Gaussian 86(TM) system (copyright 1986, Carnegie Mellon
 University), and the Gaussian 82(TM) system (copyright 1983,
 Carnegie Mellon University). Gaussian is a federally registered
 trademark of Gaussian, Inc.
  
 This software contains proprietary and confidential information,
 including trade secrets, belonging to Gaussian, Inc.
  
 This software is provided under written license and may be
 used, copied, transmitted, or stored only in accord with that
 written license.
  
 The following legend is applicable only to US Government
 contracts under FAR:
  
                    RESTRICTED RIGHTS LEGEND
  
 Use, reproduction and disclosure by the US Government is
 subject to restrictions as set forth in subparagraphs (a)
 and (c) of the Commercial Computer Software - Restricted
 Rights clause in FAR 52.227-19.
  
 Gaussian, Inc.
 340 Quinnipiac St., Bldg. 40, Wallingford CT 06492
  
  
 ---------------------------------------------------------------
 Warning -- This program may not be used in any manner that
 competes with the business of Gaussian, Inc. or will provide
 assistance to any competitor of Gaussian, Inc.  The licensee
 of this program is prohibited from giving any competitor of
 Gaussian, Inc. access to this program.  By using this program,
 the user acknowledges that Gaussian, Inc. is engaged in the
 business of creating and licensing software in the field of
 computational chemistry and represents and warrants to the
 licensee that it is not a competitor of Gaussian, Inc. and that
 it will not use this program in any manner prohibited above.
 ---------------------------------------------------------------
  

 Cite this work as:
 Gaussian 09, Revision D.01,
 M. J. Frisch, G. W. Trucks, H. B. Schlegel, G. E. Scuseria, 
 M. A. Robb, J. R. Cheeseman, G. Scalmani, V. Barone, B. Mennucci, 
 G. A. Petersson, H. Nakatsuji, M. Caricato, X. Li, H. P. Hratchian, 
 A. F. Izmaylov, J. Bloino, G. Zheng, J. L. Sonnenberg, M. Hada, 
 M. Ehara, K. Toyota, R. Fukuda, J. Hasegawa, M. Ishida, T. Nakajima, 
 Y. Honda, O. Kitao, H. Nakai, T. Vreven, J. A. Montgomery, Jr., 
 J. E. Peralta, F. Ogliaro, M. Bearpark, J. J. Heyd, E. Brothers, 
 K. N. Kudin, V. N. Staroverov, T. Keith, R. Kobayashi, J. Normand, 
 K. Raghavachari, A. Rendell, J. C. Burant, S. S. Iyengar, J. Tomasi, 
 M. Cossi, N. Rega, J. M. Millam, M. Klene, J. E. Knox, J. B. Cross, 
 V. Bakken, C. Adamo, J. Jaramillo, R. Gomperts, R. E. Stratmann, 
 O. Yazyev, A. J. Austin, R. Cammi, C. Pomelli, J. W. Ochterski, 
 R. L. Martin, K. Morokuma, V. G. Zakrzewski, G. A. Voth, 
 P. Salvador, J. J. Dannenberg, S. Dapprich, A. D. Daniels, 
 O. Farkas, J. B. Foresman, J. V. Ortiz, J. Cioslowski, 
 and D. J. Fox, Gaussian, Inc., Wallingford CT, 2013.
 
 ******************************************
 Gaussian 09:  EM64L-G09RevD.01 24-Apr-2013
                23-Feb-2015 
 ******************************************
 %nprocshared=8
 Will use up to    8 processors via shared memory.
 %nprocl=1
 Will use up to    1 processors via Linda.
 ----------------------------------------------------------------------
 # opt=(calcfc,ts,noeigentest) freq=noraman b3lyp/gen geom=connectivity
  pseudo=read gfinput
 ----------------------------------------------------------------------
 1/5=1,10=4,11=1,14=-1,18=20,26=3,38=1,57=2/1,3;
 2/9=110,12=2,17=6,18=5,40=1/2;
 3/5=7,11=2,16=1,17=8,24=10,25=1,30=1,71=2,74=-5,140=1/1,2,3;
 4//1;
 5/5=2,38=5/2;
 8/6=4,10=90,11=11/1;
 11/6=1,8=1,9=11,15=111,16=1/1,2,10;
 10/6=1,13=1/2;
 6/7=2,8=2,9=2,10=2,28=1/1;
 7/10=1,18=20,25=1/1,2,3,16;
 1/5=1,10=4,11=1,14=-1,18=20,26=3/3(2);
 2/9=110/2;
 99//99;
 2/9=110/2;
 3/5=7,6=1,11=2,16=1,17=8,25=1,30=1,71=1,74=-5,82=7/1,2,3;
 4/5=5,16=3,69=1/1;
 5/5=2,38=5/2;
 7//1,2,3,16;
 1/5=1,11=1,14=-1,18=20,26=3/3(-5);
 2/9=110/2;
 6/7=2,8=2,9=2,10=2,19=2,28=1/1;
 99/9=1/99;
 ------------------------
 ts624cl-6-31+g(d)/dgdzvp
 ------------------------
 Symbolic Z-matrix:
 Charge =  0 Multiplicity = 1
 C                     0.88456   0.11663   0.41891 
 C                    -0.39856   2.08642  -0.60959 
 H                    -1.16612   2.27151  -1.36713 
 H                    -0.77958   2.23626   0.40602 
 H                     0.47888   2.71442  -0.79914 
 C                     2.12077   0.93679   0.59068 
 H                     2.88275   0.36133   1.14581 
 H                     2.57087   1.21375  -0.37438 
 H                     1.92442   1.84967   1.16978 
 O                     0.01831   0.71086  -0.79507 
 O                    -1.76363  -0.8697   -0.10176 
 C                    -3.04071  -0.26804   0.23386 
 H                    -3.56304  -0.12891  -0.71933 
 H                    -3.57601  -0.99358   0.85919 
 H                    -2.90073   0.67793   0.76431 
 H                    -1.12805  -0.88883   0.81811 
 H                    -1.03451  -0.03214  -0.7197 
 Cl                    1.32383  -1.44391  -0.5023 
 O                     0.04404  -0.08688   1.34089 
 
 Add virtual bond connecting atoms H16        and O11        Dist= 2.11D+00.
 Add virtual bond connecting atoms H17        and O11        Dist= 2.40D+00.
 Add virtual bond connecting atoms H17        and O10        Dist= 2.44D+00.
 Add virtual bond connecting atoms C1         and O10        Dist= 3.03D+00.
 Add virtual bond connecting atoms O19        and H16        Dist= 2.86D+00.

 GradGradGradGradGradGradGradGradGradGradGradGradGradGradGradGradGradGrad
 Berny optimization.
 Initialization pass.
                           ----------------------------
                           !    Initial Parameters    !
                           ! (Angstroms and Degrees)  !
 --------------------------                            --------------------------
 ! Name  Definition              Value          Derivative Info.                !
 --------------------------------------------------------------------------------
 ! R1    R(1,6)                  1.4934         calculate D2E/DX2 analytically  !
 ! R2    R(1,10)                 1.6054         calculate D2E/DX2 analytically  !
 ! R3    R(1,18)                 1.8646         calculate D2E/DX2 analytically  !
 ! R4    R(1,19)                 1.2641         calculate D2E/DX2 analytically  !
 ! R5    R(2,3)                  1.0942         calculate D2E/DX2 analytically  !
 ! R6    R(2,4)                  1.095          calculate D2E/DX2 analytically  !
 ! R7    R(2,5)                  1.0955         calculate D2E/DX2 analytically  !
 ! R8    R(2,10)                 1.4493         calculate D2E/DX2 analytically  !
 ! R9    R(6,7)                  1.1045         calculate D2E/DX2 analytically  !
 ! R10   R(6,8)                  1.1003         calculate D2E/DX2 analytically  !
 ! R11   R(6,9)                  1.0988         calculate D2E/DX2 analytically  !
 ! R12   R(10,17)                1.2908         calculate D2E/DX2 analytically  !
 ! R13   R(11,12)                1.4511         calculate D2E/DX2 analytically  !
 ! R14   R(11,16)                1.1182         calculate D2E/DX2 analytically  !
 ! R15   R(11,17)                1.2708         calculate D2E/DX2 analytically  !
 ! R16   R(12,13)                1.0958         calculate D2E/DX2 analytically  !
 ! R17   R(12,14)                1.0973         calculate D2E/DX2 analytically  !
 ! R18   R(12,15)                1.0935         calculate D2E/DX2 analytically  !
 ! R19   R(16,19)                1.5133         calculate D2E/DX2 analytically  !
 ! A1    A(6,1,10)             109.29           calculate D2E/DX2 analytically  !
 ! A2    A(6,1,18)             108.7494         calculate D2E/DX2 analytically  !
 ! A3    A(6,1,19)             123.7047         calculate D2E/DX2 analytically  !
 ! A4    A(10,1,18)             93.6298         calculate D2E/DX2 analytically  !
 ! A5    A(10,1,19)            104.6163         calculate D2E/DX2 analytically  !
 ! A6    A(18,1,19)            112.4725         calculate D2E/DX2 analytically  !
 ! A7    A(3,2,4)              112.0175         calculate D2E/DX2 analytically  !
 ! A8    A(3,2,5)              110.1863         calculate D2E/DX2 analytically  !
 ! A9    A(3,2,10)             105.8855         calculate D2E/DX2 analytically  !
 ! A10   A(4,2,5)              111.1443         calculate D2E/DX2 analytically  !
 ! A11   A(4,2,10)             110.4062         calculate D2E/DX2 analytically  !
 ! A12   A(5,2,10)             106.9508         calculate D2E/DX2 analytically  !
 ! A13   A(1,6,7)              110.0441         calculate D2E/DX2 analytically  !
 ! A14   A(1,6,8)              112.0838         calculate D2E/DX2 analytically  !
 ! A15   A(1,6,9)              111.652          calculate D2E/DX2 analytically  !
 ! A16   A(7,6,8)              106.8439         calculate D2E/DX2 analytically  !
 ! A17   A(7,6,9)              106.9335         calculate D2E/DX2 analytically  !
 ! A18   A(8,6,9)              109.0408         calculate D2E/DX2 analytically  !
 ! A19   A(1,10,2)             114.1896         calculate D2E/DX2 analytically  !
 ! A20   A(1,10,17)            100.5379         calculate D2E/DX2 analytically  !
 ! A21   A(2,10,17)            107.7134         calculate D2E/DX2 analytically  !
 ! A22   A(12,11,16)           108.4848         calculate D2E/DX2 analytically  !
 ! A23   A(12,11,17)           110.1294         calculate D2E/DX2 analytically  !
 ! A24   A(16,11,17)            94.8855         calculate D2E/DX2 analytically  !
 ! A25   A(11,12,13)           105.722          calculate D2E/DX2 analytically  !
 ! A26   A(11,12,14)           106.6785         calculate D2E/DX2 analytically  !
 ! A27   A(11,12,15)           110.9905         calculate D2E/DX2 analytically  !
 ! A28   A(13,12,14)           110.3134         calculate D2E/DX2 analytically  !
 ! A29   A(13,12,15)           111.9091         calculate D2E/DX2 analytically  !
 ! A30   A(14,12,15)           110.9771         calculate D2E/DX2 analytically  !
 ! A31   A(11,16,19)           135.6682         calculate D2E/DX2 analytically  !
 ! A32   A(10,17,11)           151.1314         calculate D2E/DX2 analytically  !
 ! A33   A(1,19,16)            110.3856         calculate D2E/DX2 analytically  !
 ! D1    D(10,1,6,7)          -159.762          calculate D2E/DX2 analytically  !
 ! D2    D(10,1,6,8)           -41.0181         calculate D2E/DX2 analytically  !
 ! D3    D(10,1,6,9)            81.6562         calculate D2E/DX2 analytically  !
 ! D4    D(18,1,6,7)           -58.8302         calculate D2E/DX2 analytically  !
 ! D5    D(18,1,6,8)            59.9137         calculate D2E/DX2 analytically  !
 ! D6    D(18,1,6,9)          -177.412          calculate D2E/DX2 analytically  !
 ! D7    D(19,1,6,7)            76.5385         calculate D2E/DX2 analytically  !
 ! D8    D(19,1,6,8)          -164.7176         calculate D2E/DX2 analytically  !
 ! D9    D(19,1,6,9)           -42.0433         calculate D2E/DX2 analytically  !
 ! D10   D(6,1,10,2)           -59.7896         calculate D2E/DX2 analytically  !
 ! D11   D(6,1,10,17)         -174.8027         calculate D2E/DX2 analytically  !
 ! D12   D(18,1,10,2)         -171.101          calculate D2E/DX2 analytically  !
 ! D13   D(18,1,10,17)          73.8859         calculate D2E/DX2 analytically  !
 ! D14   D(19,1,10,2)           74.5458         calculate D2E/DX2 analytically  !
 ! D15   D(19,1,10,17)         -40.4674         calculate D2E/DX2 analytically  !
 ! D16   D(6,1,19,16)          176.7496         calculate D2E/DX2 analytically  !
 ! D17   D(10,1,19,16)          50.9937         calculate D2E/DX2 analytically  !
 ! D18   D(18,1,19,16)         -49.2991         calculate D2E/DX2 analytically  !
 ! D19   D(3,2,10,1)          -166.3283         calculate D2E/DX2 analytically  !
 ! D20   D(3,2,10,17)          -55.5997         calculate D2E/DX2 analytically  !
 ! D21   D(4,2,10,1)           -44.879          calculate D2E/DX2 analytically  !
 ! D22   D(4,2,10,17)           65.8496         calculate D2E/DX2 analytically  !
 ! D23   D(5,2,10,1)            76.1679         calculate D2E/DX2 analytically  !
 ! D24   D(5,2,10,17)         -173.1035         calculate D2E/DX2 analytically  !
 ! D25   D(1,10,17,11)          13.1394         calculate D2E/DX2 analytically  !
 ! D26   D(2,10,17,11)        -106.6587         calculate D2E/DX2 analytically  !
 ! D27   D(16,11,12,13)        171.4295         calculate D2E/DX2 analytically  !
 ! D28   D(16,11,12,14)        -71.1302         calculate D2E/DX2 analytically  !
 ! D29   D(16,11,12,15)         49.8827         calculate D2E/DX2 analytically  !
 ! D30   D(17,11,12,13)         68.8279         calculate D2E/DX2 analytically  !
 ! D31   D(17,11,12,14)       -173.7318         calculate D2E/DX2 analytically  !
 ! D32   D(17,11,12,15)        -52.7189         calculate D2E/DX2 analytically  !
 ! D33   D(12,11,16,19)       -103.5454         calculate D2E/DX2 analytically  !
 ! D34   D(17,11,16,19)          9.581          calculate D2E/DX2 analytically  !
 ! D35   D(12,11,17,10)        114.9612         calculate D2E/DX2 analytically  !
 ! D36   D(16,11,17,10)          3.2308         calculate D2E/DX2 analytically  !
 ! D37   D(11,16,19,1)         -43.6502         calculate D2E/DX2 analytically  !
 --------------------------------------------------------------------------------
 Trust Radius=3.00D-01 FncErr=1.00D-07 GrdErr=1.00D-06
 Number of steps in this run=     99 maximum allowed number of steps=    114.
 Search for a saddle point of order  1.
 GradGradGradGradGradGradGradGradGradGradGradGradGradGradGradGradGradGrad

                          Input orientation:                          
 ---------------------------------------------------------------------
 Center     Atomic      Atomic             Coordinates (Angstroms)
 Number     Number       Type             X           Y           Z
 ---------------------------------------------------------------------
      1          6           0        0.884558    0.116628    0.418907
      2          6           0       -0.398563    2.086422   -0.609586
      3          1           0       -1.166118    2.271506   -1.367134
      4          1           0       -0.779578    2.236265    0.406015
      5          1           0        0.478877    2.714415   -0.799143
      6          6           0        2.120771    0.936787    0.590683
      7          1           0        2.882752    0.361331    1.145809
      8          1           0        2.570868    1.213746   -0.374381
      9          1           0        1.924419    1.849674    1.169780
     10          8           0        0.018310    0.710864   -0.795072
     11          8           0       -1.763632   -0.869703   -0.101762
     12          6           0       -3.040711   -0.268041    0.233857
     13          1           0       -3.563040   -0.128910   -0.719331
     14          1           0       -3.576005   -0.993577    0.859193
     15          1           0       -2.900725    0.677932    0.764309
     16          1           0       -1.128054   -0.888828    0.818105
     17          1           0       -1.034514   -0.032144   -0.719698
     18         17           0        1.323828   -1.443907   -0.502301
     19          8           0        0.044036   -0.086882    1.340889
 ---------------------------------------------------------------------
                    Distance matrix (angstroms):
                    1          2          3          4          5
     1  C    0.000000
     2  C    2.565986   0.000000
     3  H    3.469685   1.094201   0.000000
     4  H    2.694880   1.095021   1.815134   0.000000
     5  H    2.897709   1.095540   1.795770   1.806860   0.000000
     6  C    1.493449   3.018170   4.051933   3.183515   2.790590
     7  H    2.140338   4.101753   5.133907   4.180351   3.885673
     8  H    2.162548   3.103934   4.008675   3.588879   2.609379
     9  H    2.156054   2.935718   4.020609   2.836263   2.591144
    10  O    1.605381   1.449258   2.041012   2.099067   2.055810
    11  O    2.873474   3.295447   3.438805   3.297459   4.284984
    12  C    3.948411   3.638109   3.539289   3.378448   4.727540
    13  H    4.597500   3.864409   3.453532   3.822057   4.942465
    14  H    4.617687   4.662600   4.628699   4.296191   5.739456
    15  H    3.842230   3.183119   3.176695   2.656321   4.244214
    16  H    2.284931   3.379729   3.842451   3.171350   4.263928
    17  H    2.236379   2.214696   2.396518   2.545172   3.136917
    18  Cl   1.864632   3.929550   4.555443   4.335092   4.253669
    19  O    1.264098   2.953557   3.789440   2.636160   3.551913
                    6          7          8          9         10
     6  C    0.000000
     7  H    1.104504   0.000000
     8  H    1.100292   1.770554   0.000000
     9  H    1.098758   1.770351   1.790736   0.000000
    10  O    2.528181   3.477675   2.635417   2.964925   0.000000
    11  O    4.339524   4.965960   4.816946   4.755371   2.480764
    12  C    5.312234   6.026208   5.835706   5.478429   3.372619
    13  H    5.929381   6.728099   6.288604   6.131537   3.679270
    14  H    6.020935   6.605563   6.646655   6.199613   4.308226
    15  H    5.031160   5.804686   5.614449   4.981907   3.309610
    16  H    3.733558   4.213888   4.418695   4.115903   2.544701
    17  H    3.551302   4.356594   3.830178   3.983296   1.290806
    18  Cl   2.738145   2.899206   2.938468   3.742224   2.536362
    19  O    2.433831   2.880496   3.319437   2.704694   2.280217
                   11         12         13         14         15
    11  O    0.000000
    12  C    1.451058   0.000000
    13  H    2.041577   1.095788   0.000000
    14  H    2.055110   1.097264   1.799876   0.000000
    15  H    2.106712   1.093545   1.814068   1.805256   0.000000
    16  H    1.118249   2.094034   2.978312   2.450536   2.366431
    17  H    1.270812   2.233773   2.530377   3.142678   2.487816
    18  Cl   3.165841   4.579715   5.065353   5.105372   4.894216
    19  O    2.441662   3.282378   4.154187   3.762821   3.096611
                   16         17         18         19
    16  H    0.000000
    17  H    1.762809   0.000000
    18  Cl   2.839597   2.757193   0.000000
    19  O    1.513346   2.326432   2.622353   0.000000
 Stoichiometry    C4H11ClO3
 Framework group  C1[X(C4H11ClO3)]
 Deg. of freedom    51
 Full point group                 C1      NOp   1
 Largest Abelian subgroup         C1      NOp   1
 Largest concise Abelian subgroup C1      NOp   1
                         Standard orientation:                         
 ---------------------------------------------------------------------
 Center     Atomic      Atomic             Coordinates (Angstroms)
 Number     Number       Type             X           Y           Z
 ---------------------------------------------------------------------
      1          6           0        0.884558    0.116628    0.418907
      2          6           0       -0.398563    2.086422   -0.609586
      3          1           0       -1.166118    2.271506   -1.367134
      4          1           0       -0.779578    2.236265    0.406015
      5          1           0        0.478877    2.714415   -0.799143
      6          6           0        2.120771    0.936787    0.590683
      7          1           0        2.882752    0.361331    1.145809
      8          1           0        2.570868    1.213746   -0.374381
      9          1           0        1.924419    1.849674    1.169780
     10          8           0        0.018310    0.710864   -0.795072
     11          8           0       -1.763632   -0.869703   -0.101762
     12          6           0       -3.040711   -0.268041    0.233857
     13          1           0       -3.563040   -0.128910   -0.719331
     14          1           0       -3.576005   -0.993577    0.859193
     15          1           0       -2.900725    0.677932    0.764309
     16          1           0       -1.128054   -0.888828    0.818105
     17          1           0       -1.034514   -0.032144   -0.719698
     18         17           0        1.323828   -1.443907   -0.502301
     19          8           0        0.044036   -0.086882    1.340889
 ---------------------------------------------------------------------
 Rotational constants (GHZ):      2.0335794      1.2248437      0.9612350
 General basis read from cards:  (5D, 7F)
 ======================================================================================================
                                       Pseudopotential Parameters
 ======================================================================================================
  Center     Atomic      Valence      Angular      Power
  Number     Number     Electrons     Momentum     of R      Exponent        Coefficient   SO-Coeffient
 ======================================================================================================
    1          6
                                   No pseudopotential on this center.
    2          6
                                   No pseudopotential on this center.
    3          1
                                   No pseudopotential on this center.
    4          1
                                   No pseudopotential on this center.
    5          1
                                   No pseudopotential on this center.
    6          6
                                   No pseudopotential on this center.
    7          1
                                   No pseudopotential on this center.
    8          1
                                   No pseudopotential on this center.
    9          1
                                   No pseudopotential on this center.
   10          8
                                   No pseudopotential on this center.
   11          8
                                   No pseudopotential on this center.
   12          6
                                   No pseudopotential on this center.
   13          1
                                   No pseudopotential on this center.
   14          1
                                   No pseudopotential on this center.
   15          1
                                   No pseudopotential on this center.
   16          1
                                   No pseudopotential on this center.
   17          1
                                   No pseudopotential on this center.
   18         17
                                   No pseudopotential on this center.
   19          8
                                   No pseudopotential on this center.
 ======================================================================================================
 AO basis set in the form of general basis input (Overlap normalization):
      1 0
 S   6 1.00       0.000000000000
      0.3047524880D+04  0.1834737132D-02
      0.4573695180D+03  0.1403732281D-01
      0.1039486850D+03  0.6884262226D-01
      0.2921015530D+02  0.2321844432D+00
      0.9286662960D+01  0.4679413484D+00
      0.3163926960D+01  0.3623119853D+00
 SP   3 1.00       0.000000000000
      0.7868272350D+01 -0.1193324198D+00  0.6899906659D-01
      0.1881288540D+01 -0.1608541517D+00  0.3164239610D+00
      0.5442492580D+00  0.1143456438D+01  0.7443082909D+00
 SP   1 1.00       0.000000000000
      0.1687144782D+00  0.1000000000D+01  0.1000000000D+01
 SP   1 1.00       0.000000000000
      0.4380000000D-01  0.1000000000D+01  0.1000000000D+01
 D   1 1.00       0.000000000000
      0.8000000000D+00  0.1000000000D+01
 ****
      2 0
 S   6 1.00       0.000000000000
      0.3047524880D+04  0.1834737132D-02
      0.4573695180D+03  0.1403732281D-01
      0.1039486850D+03  0.6884262226D-01
      0.2921015530D+02  0.2321844432D+00
      0.9286662960D+01  0.4679413484D+00
      0.3163926960D+01  0.3623119853D+00
 SP   3 1.00       0.000000000000
      0.7868272350D+01 -0.1193324198D+00  0.6899906659D-01
      0.1881288540D+01 -0.1608541517D+00  0.3164239610D+00
      0.5442492580D+00  0.1143456438D+01  0.7443082909D+00
 SP   1 1.00       0.000000000000
      0.1687144782D+00  0.1000000000D+01  0.1000000000D+01
 SP   1 1.00       0.000000000000
      0.4380000000D-01  0.1000000000D+01  0.1000000000D+01
 D   1 1.00       0.000000000000
      0.8000000000D+00  0.1000000000D+01
 ****
      3 0
 S   3 1.00       0.000000000000
      0.1873113696D+02  0.3349460434D-01
      0.2825394365D+01  0.2347269535D+00
      0.6401216923D+00  0.8137573261D+00
 S   1 1.00       0.000000000000
      0.1612777588D+00  0.1000000000D+01
 ****
      4 0
 S   3 1.00       0.000000000000
      0.1873113696D+02  0.3349460434D-01
      0.2825394365D+01  0.2347269535D+00
      0.6401216923D+00  0.8137573261D+00
 S   1 1.00       0.000000000000
      0.1612777588D+00  0.1000000000D+01
 ****
      5 0
 S   3 1.00       0.000000000000
      0.1873113696D+02  0.3349460434D-01
      0.2825394365D+01  0.2347269535D+00
      0.6401216923D+00  0.8137573261D+00
 S   1 1.00       0.000000000000
      0.1612777588D+00  0.1000000000D+01
 ****
      6 0
 S   6 1.00       0.000000000000
      0.3047524880D+04  0.1834737132D-02
      0.4573695180D+03  0.1403732281D-01
      0.1039486850D+03  0.6884262226D-01
      0.2921015530D+02  0.2321844432D+00
      0.9286662960D+01  0.4679413484D+00
      0.3163926960D+01  0.3623119853D+00
 SP   3 1.00       0.000000000000
      0.7868272350D+01 -0.1193324198D+00  0.6899906659D-01
      0.1881288540D+01 -0.1608541517D+00  0.3164239610D+00
      0.5442492580D+00  0.1143456438D+01  0.7443082909D+00
 SP   1 1.00       0.000000000000
      0.1687144782D+00  0.1000000000D+01  0.1000000000D+01
 SP   1 1.00       0.000000000000
      0.4380000000D-01  0.1000000000D+01  0.1000000000D+01
 D   1 1.00       0.000000000000
      0.8000000000D+00  0.1000000000D+01
 ****
      7 0
 S   3 1.00       0.000000000000
      0.1873113696D+02  0.3349460434D-01
      0.2825394365D+01  0.2347269535D+00
      0.6401216923D+00  0.8137573261D+00
 S   1 1.00       0.000000000000
      0.1612777588D+00  0.1000000000D+01
 ****
      8 0
 S   3 1.00       0.000000000000
      0.1873113696D+02  0.3349460434D-01
      0.2825394365D+01  0.2347269535D+00
      0.6401216923D+00  0.8137573261D+00
 S   1 1.00       0.000000000000
      0.1612777588D+00  0.1000000000D+01
 ****
      9 0
 S   3 1.00       0.000000000000
      0.1873113696D+02  0.3349460434D-01
      0.2825394365D+01  0.2347269535D+00
      0.6401216923D+00  0.8137573261D+00
 S   1 1.00       0.000000000000
      0.1612777588D+00  0.1000000000D+01
 ****
     10 0
 S   6 1.00       0.000000000000
      0.5484671660D+04  0.1831074430D-02
      0.8252349460D+03  0.1395017220D-01
      0.1880469580D+03  0.6844507810D-01
      0.5296450000D+02  0.2327143360D+00
      0.1689757040D+02  0.4701928980D+00
      0.5799635340D+01  0.3585208530D+00
 SP   3 1.00       0.000000000000
      0.1553961625D+02 -0.1107775495D+00  0.7087426823D-01
      0.3599933586D+01 -0.1480262627D+00  0.3397528391D+00
      0.1013761750D+01  0.1130767015D+01  0.7271585773D+00
 SP   1 1.00       0.000000000000
      0.2700058226D+00  0.1000000000D+01  0.1000000000D+01
 SP   1 1.00       0.000000000000
      0.8450000000D-01  0.1000000000D+01  0.1000000000D+01
 D   1 1.00       0.000000000000
      0.8000000000D+00  0.1000000000D+01
 ****
     11 0
 S   6 1.00       0.000000000000
      0.5484671660D+04  0.1831074430D-02
      0.8252349460D+03  0.1395017220D-01
      0.1880469580D+03  0.6844507810D-01
      0.5296450000D+02  0.2327143360D+00
      0.1689757040D+02  0.4701928980D+00
      0.5799635340D+01  0.3585208530D+00
 SP   3 1.00       0.000000000000
      0.1553961625D+02 -0.1107775495D+00  0.7087426823D-01
      0.3599933586D+01 -0.1480262627D+00  0.3397528391D+00
      0.1013761750D+01  0.1130767015D+01  0.7271585773D+00
 SP   1 1.00       0.000000000000
      0.2700058226D+00  0.1000000000D+01  0.1000000000D+01
 SP   1 1.00       0.000000000000
      0.8450000000D-01  0.1000000000D+01  0.1000000000D+01
 D   1 1.00       0.000000000000
      0.8000000000D+00  0.1000000000D+01
 ****
     12 0
 S   6 1.00       0.000000000000
      0.3047524880D+04  0.1834737132D-02
      0.4573695180D+03  0.1403732281D-01
      0.1039486850D+03  0.6884262226D-01
      0.2921015530D+02  0.2321844432D+00
      0.9286662960D+01  0.4679413484D+00
      0.3163926960D+01  0.3623119853D+00
 SP   3 1.00       0.000000000000
      0.7868272350D+01 -0.1193324198D+00  0.6899906659D-01
      0.1881288540D+01 -0.1608541517D+00  0.3164239610D+00
      0.5442492580D+00  0.1143456438D+01  0.7443082909D+00
 SP   1 1.00       0.000000000000
      0.1687144782D+00  0.1000000000D+01  0.1000000000D+01
 SP   1 1.00       0.000000000000
      0.4380000000D-01  0.1000000000D+01  0.1000000000D+01
 D   1 1.00       0.000000000000
      0.8000000000D+00  0.1000000000D+01
 ****
     13 0
 S   3 1.00       0.000000000000
      0.1873113696D+02  0.3349460434D-01
      0.2825394365D+01  0.2347269535D+00
      0.6401216923D+00  0.8137573261D+00
 S   1 1.00       0.000000000000
      0.1612777588D+00  0.1000000000D+01
 ****
     14 0
 S   3 1.00       0.000000000000
      0.1873113696D+02  0.3349460434D-01
      0.2825394365D+01  0.2347269535D+00
      0.6401216923D+00  0.8137573261D+00
 S   1 1.00       0.000000000000
      0.1612777588D+00  0.1000000000D+01
 ****
     15 0
 S   3 1.00       0.000000000000
      0.1873113696D+02  0.3349460434D-01
      0.2825394365D+01  0.2347269535D+00
      0.6401216923D+00  0.8137573261D+00
 S   1 1.00       0.000000000000
      0.1612777588D+00  0.1000000000D+01
 ****
     16 0
 S   3 1.00       0.000000000000
      0.1873113696D+02  0.3349460434D-01
      0.2825394365D+01  0.2347269535D+00
      0.6401216923D+00  0.8137573261D+00
 S   1 1.00       0.000000000000
      0.1612777588D+00  0.1000000000D+01
 ****
     17 0
 S   3 1.00       0.000000000000
      0.1873113696D+02  0.3349460434D-01
      0.2825394365D+01  0.2347269535D+00
      0.6401216923D+00  0.8137573261D+00
 S   1 1.00       0.000000000000
      0.1612777588D+00  0.1000000000D+01
 ****
     18 0
 S   6 1.00       0.000000000000
      0.2635145800D+05  0.1732429991D-02
      0.3945056700D+04  0.1331093993D-01
      0.8924383500D+03  0.6667482966D-01
      0.2494174300D+03  0.2300505688D+00
      0.7972157200D+02  0.4742306876D+00
      0.2683114500D+02  0.3595239882D+00
 S   3 1.00       0.000000000000
      0.5278530100D+02 -0.9562959024D-01
      0.5615642900D+01  0.5880840315D+00
      0.2105907600D+01  0.4866982312D+00
 S   2 1.00       0.000000000000
      0.3558614900D+01  0.2945274744D+00
      0.4847980700D+00 -0.1122243115D+01
 S   1 1.00       0.000000000000
      0.1733309800D+00  0.1000000000D+01
 P   5 1.00       0.000000000000
      0.2710782100D+03 -0.1092567000D-01
      0.6354720800D+02 -0.7759090999D-01
      0.1973710900D+02 -0.2775158500D+00
      0.6788993700D+01 -0.5031933099D+00
      0.2348030300D+01 -0.3348425899D+00
 P   2 1.00       0.000000000000
      0.1106686400D+01 -0.3596313011D+00
      0.3829680400D+00 -0.7109402424D+00
 P   1 1.00       0.000000000000
      0.1251133000D+00  0.1000000000D+01
 D   1 1.00       0.000000000000
      0.7500000000D+00  0.1000000000D+01
 ****
     19 0
 S   6 1.00       0.000000000000
      0.5484671660D+04  0.1831074430D-02
      0.8252349460D+03  0.1395017220D-01
      0.1880469580D+03  0.6844507810D-01
      0.5296450000D+02  0.2327143360D+00
      0.1689757040D+02  0.4701928980D+00
      0.5799635340D+01  0.3585208530D+00
 SP   3 1.00       0.000000000000
      0.1553961625D+02 -0.1107775495D+00  0.7087426823D-01
      0.3599933586D+01 -0.1480262627D+00  0.3397528391D+00
      0.1013761750D+01  0.1130767015D+01  0.7271585773D+00
 SP   1 1.00       0.000000000000
      0.2700058226D+00  0.1000000000D+01  0.1000000000D+01
 SP   1 1.00       0.000000000000
      0.8450000000D-01  0.1000000000D+01  0.1000000000D+01
 D   1 1.00       0.000000000000
      0.8000000000D+00  0.1000000000D+01
 ****

 There are   174 symmetry adapted cartesian basis functions of A   symmetry.
 There are   166 symmetry adapted basis functions of A   symmetry.
   166 basis functions,   310 primitive gaussians,   174 cartesian basis functions
    38 alpha electrons       38 beta electrons
       nuclear repulsion energy       523.1875724889 Hartrees.
 NAtoms=   19 NActive=   19 NUniq=   19 SFac= 1.00D+00 NAtFMM=   60 NAOKFM=F Big=F
 Integral buffers will be    131072 words long.
 Raffenetti 2 integral format.
 Two-electron integral symmetry is turned on.
 One-electron integrals computed using PRISM.
   1 Symmetry operations used in ECPInt.
 ECPInt:  NShTT=    2145 NPrTT=   11364 LenC2=    2114 LenP2D=    7975.
 LDataN:  DoStor=T MaxTD1= 4 Len=   56
 NBasis=   166 RedAO= T EigKep=  6.49D-05  NBF=   166
 NBsUse=   166 1.00D-06 EigRej= -1.00D+00 NBFU=   166
 ExpMin= 4.38D-02 ExpMax= 2.64D+04 ExpMxC= 3.95D+03 IAcc=2 IRadAn=         4 AccDes= 0.00D+00
 Harris functional with IExCor=  402 and IRadAn=       4 diagonalized for initial guess.
 HarFok:  IExCor=  402 AccDes= 0.00D+00 IRadAn=         4 IDoV= 1 UseB2=F ITyADJ=14
 ICtDFT=  3500011 ScaDFX=  1.000000  1.000000  1.000000  1.000000
 FoFCou: FMM=F IPFlag=           0 FMFlag=      100000 FMFlg1=           0
         NFxFlg=           0 DoJE=T BraDBF=F KetDBF=T FulRan=T
         wScrn=  0.000000 ICntrl=     500 IOpCl=  0 I1Cent=   200000004 NGrid=           0
         NMat0=    1 NMatS0=      1 NMatT0=    0 NMatD0=    1 NMtDS0=    0 NMtDT0=    0
 Petite list used in FoFCou.
 Requested convergence on RMS density matrix=1.00D-08 within 128 cycles.
 Requested convergence on MAX density matrix=1.00D-06.
 Requested convergence on             energy=1.00D-06.
 No special actions if energy rises.
 SCF Done:  E(RB3LYP) =  -844.826614143     A.U. after   13 cycles
            NFock= 13  Conv=0.80D-08     -V/T= 2.0058
 DoSCS=F DFT=T ScalE2(SS,OS)=  1.000000  1.000000
 Range of M.O.s used for correlation:     1   166
 NBasis=   166 NAE=    38 NBE=    38 NFC=     0 NFV=     0
 NROrb=    166 NOA=    38 NOB=    38 NVA=   128 NVB=   128

 **** Warning!!: The largest alpha MO coefficient is  0.28305701D+02

   1 Symmetry operations used in ECPInt.
 ECPInt:  NShTT=    2145 NPrTT=   11364 LenC2=    2114 LenP2D=    7975.
 LDataN:  DoStor=T MaxTD1= 5 Len=  102
 Number of processors reduced to   5 by ecpmxn.
 Symmetrizing basis deriv contribution to polar:
 IMax=3 JMax=2 DiffMx= 0.00D+00
 G2DrvN: will do    20 centers at a time, making    1 passes.
 Calling FoFCou, ICntrl=  3107 FMM=F I1Cent=   0 AccDes= 0.00D+00.
 End of G2Drv F.D. properties file   721 does not exist.
 End of G2Drv F.D. properties file   722 does not exist.
 End of G2Drv F.D. properties file   788 does not exist.
          IDoAtm=1111111111111111111
          Differentiating once with respect to nuclear coordinates.
          There are    60 degrees of freedom in the 1st order CPHF.  IDoFFX=6 NUNeed=     0.
     54 vectors produced by pass  0 Test12= 8.11D-15 1.67D-09 XBig12= 1.98D-01 7.73D-02.
 AX will form    54 AO Fock derivatives at one time.
     54 vectors produced by pass  1 Test12= 8.11D-15 1.67D-09 XBig12= 2.41D-02 1.91D-02.
     54 vectors produced by pass  2 Test12= 8.11D-15 1.67D-09 XBig12= 3.62D-04 2.55D-03.
     54 vectors produced by pass  3 Test12= 8.11D-15 1.67D-09 XBig12= 1.02D-06 1.32D-04.
     54 vectors produced by pass  4 Test12= 8.11D-15 1.67D-09 XBig12= 1.40D-09 4.93D-06.
     40 vectors produced by pass  5 Test12= 8.11D-15 1.67D-09 XBig12= 1.54D-12 1.37D-07.
      5 vectors produced by pass  6 Test12= 8.11D-15 1.67D-09 XBig12= 3.99D-15 6.42D-09.
 InvSVY:  IOpt=1 It=  1 EMax= 4.44D-16
 Solved reduced A of dimension   315 with    60 vectors.
 End of Minotr F.D. properties file   721 does not exist.
 End of Minotr F.D. properties file   722 does not exist.
 End of Minotr F.D. properties file   788 does not exist.

 **********************************************************************

            Population analysis using the SCF density.

 **********************************************************************

 Orbital symmetries:
       Occupied  (A) (A) (A) (A) (A) (A) (A) (A) (A) (A) (A) (A)
                 (A) (A) (A) (A) (A) (A) (A) (A) (A) (A) (A) (A)
                 (A) (A) (A) (A) (A) (A) (A) (A) (A) (A) (A) (A)
                 (A) (A)
       Virtual   (A) (A) (A) (A) (A) (A) (A) (A) (A) (A) (A) (A)
                 (A) (A) (A) (A) (A) (A) (A) (A) (A) (A) (A) (A)
                 (A) (A) (A) (A) (A) (A) (A) (A) (A) (A) (A) (A)
                 (A) (A) (A) (A) (A) (A) (A) (A) (A) (A) (A) (A)
                 (A) (A) (A) (A) (A) (A) (A) (A) (A) (A) (A) (A)
                 (A) (A) (A) (A) (A) (A) (A) (A) (A) (A) (A) (A)
                 (A) (A) (A) (A) (A) (A) (A) (A) (A) (A) (A) (A)
                 (A) (A) (A) (A) (A) (A) (A) (A) (A) (A) (A) (A)
                 (A) (A) (A) (A) (A) (A) (A) (A) (A) (A) (A) (A)
                 (A) (A) (A) (A) (A) (A) (A) (A) (A) (A) (A) (A)
                 (A) (A) (A) (A) (A) (A) (A) (A)
 The electronic state is 1-A.
 Alpha  occ. eigenvalues -- -101.51548 -19.20049 -19.19515 -19.11832 -10.33687
 Alpha  occ. eigenvalues --  -10.25516 -10.25002 -10.19181  -9.42063  -7.18832
 Alpha  occ. eigenvalues --   -7.17985  -7.17960  -1.08680  -1.04406  -1.00382
 Alpha  occ. eigenvalues --   -0.81308  -0.74516  -0.71893  -0.70594  -0.57634
 Alpha  occ. eigenvalues --   -0.55256  -0.54091  -0.50002  -0.48341  -0.47267
 Alpha  occ. eigenvalues --   -0.46299  -0.44914  -0.43707  -0.42044  -0.40861
 Alpha  occ. eigenvalues --   -0.38788  -0.37435  -0.36045  -0.30985  -0.29551
 Alpha  occ. eigenvalues --   -0.28600  -0.26825  -0.26224
 Alpha virt. eigenvalues --   -0.00804   0.00865   0.01171   0.02017   0.03066
 Alpha virt. eigenvalues --    0.03439   0.04543   0.05146   0.06621   0.07231
 Alpha virt. eigenvalues --    0.07865   0.08104   0.09295   0.09754   0.11219
 Alpha virt. eigenvalues --    0.11396   0.13065   0.15046   0.15854   0.16182
 Alpha virt. eigenvalues --    0.16624   0.17544   0.18497   0.19236   0.19905
 Alpha virt. eigenvalues --    0.20375   0.20766   0.21935   0.23420   0.24675
 Alpha virt. eigenvalues --    0.25375   0.26533   0.28563   0.29105   0.29391
 Alpha virt. eigenvalues --    0.31100   0.31998   0.32548   0.33386   0.34724
 Alpha virt. eigenvalues --    0.35918   0.37903   0.39336   0.44018   0.46330
 Alpha virt. eigenvalues --    0.50186   0.53786   0.55273   0.59579   0.62471
 Alpha virt. eigenvalues --    0.63689   0.64226   0.66869   0.69882   0.70396
 Alpha virt. eigenvalues --    0.71880   0.75086   0.75730   0.79667   0.85009
 Alpha virt. eigenvalues --    0.87194   0.90030   0.91528   0.92941   0.93043
 Alpha virt. eigenvalues --    0.94275   0.95769   0.96454   0.98175   1.01656
 Alpha virt. eigenvalues --    1.03942   1.04351   1.06415   1.08223   1.08489
 Alpha virt. eigenvalues --    1.12156   1.13228   1.20569   1.21433   1.23010
 Alpha virt. eigenvalues --    1.24132   1.27670   1.29139   1.32983   1.34064
 Alpha virt. eigenvalues --    1.35660   1.38449   1.44702   1.46479   1.49941
 Alpha virt. eigenvalues --    1.52654   1.56214   1.57512   1.61339   1.65279
 Alpha virt. eigenvalues --    1.70776   1.72523   1.74400   1.78885   1.82739
 Alpha virt. eigenvalues --    1.85557   1.87118   1.95757   1.98872   2.02350
 Alpha virt. eigenvalues --    2.03454   2.06130   2.10372   2.13112   2.14003
 Alpha virt. eigenvalues --    2.16452   2.18478   2.22387   2.25135   2.27485
 Alpha virt. eigenvalues --    2.30110   2.30725   2.35042   2.38236   2.42706
 Alpha virt. eigenvalues --    2.50351   2.55592   2.64129   2.76584   2.81642
 Alpha virt. eigenvalues --    2.84301   2.89679   3.08271
          Condensed to atoms (all electrons):
               1          2          3          4          5          6
     1  C    5.498673  -0.093296  -0.000424  -0.032055  -0.001441  -0.358765
     2  C   -0.093296   5.259035   0.393277   0.416608   0.389835   0.012959
     3  H   -0.000424   0.393277   0.507514  -0.030117  -0.023518   0.001703
     4  H   -0.032055   0.416608  -0.030117   0.505462  -0.032985   0.004548
     5  H   -0.001441   0.389835  -0.023518  -0.032985   0.496151  -0.000732
     6  C   -0.358765   0.012959   0.001703   0.004548  -0.000732   6.229148
     7  H   -0.049675   0.000972   0.000000   0.000014  -0.000010   0.396483
     8  H   -0.081295  -0.003924  -0.000006   0.000150   0.000642   0.418901
     9  H   -0.011889   0.005165   0.000053   0.000038  -0.001213   0.347939
    10  O    0.057754   0.011365  -0.046242  -0.072120  -0.038399  -0.055929
    11  O    0.036743   0.010293  -0.000551   0.000698  -0.001349  -0.001338
    12  C   -0.006451  -0.016726  -0.000843  -0.003630   0.001730  -0.005251
    13  H    0.000703  -0.001838   0.000087   0.000028   0.000001   0.000160
    14  H   -0.000751   0.001882   0.000009   0.000007  -0.000001  -0.000097
    15  H   -0.005555  -0.001024  -0.000259   0.001192   0.000037   0.000614
    16  H   -0.033541   0.000163  -0.000012   0.000258   0.000018   0.023456
    17  H   -0.003703  -0.014722  -0.002776  -0.000035   0.001339   0.002498
    18  Cl   0.393092   0.019633  -0.000353   0.000070   0.000051  -0.087308
    19  O    0.334220   0.013833  -0.001277   0.015620  -0.002161  -0.135590
               7          8          9         10         11         12
     1  C   -0.049675  -0.081295  -0.011889   0.057754   0.036743  -0.006451
     2  C    0.000972  -0.003924   0.005165   0.011365   0.010293  -0.016726
     3  H    0.000000  -0.000006   0.000053  -0.046242  -0.000551  -0.000843
     4  H    0.000014   0.000150   0.000038  -0.072120   0.000698  -0.003630
     5  H   -0.000010   0.000642  -0.001213  -0.038399  -0.001349   0.001730
     6  C    0.396483   0.418901   0.347939  -0.055929  -0.001338  -0.005251
     7  H    0.457401  -0.023781  -0.023614   0.007434   0.000098  -0.000102
     8  H   -0.023781   0.478377  -0.030807  -0.000209   0.000405  -0.000081
     9  H   -0.023614  -0.030807   0.496681  -0.006255  -0.000083  -0.000200
    10  O    0.007434  -0.000209  -0.006255   8.850749  -0.057686   0.015543
    11  O    0.000098   0.000405  -0.000083  -0.057686   8.784928   0.037769
    12  C   -0.000102  -0.000081  -0.000200   0.015543   0.037769   5.153465
    13  H    0.000000   0.000000   0.000000  -0.000890  -0.040610   0.394664
    14  H    0.000000   0.000000   0.000000  -0.001008  -0.040770   0.390038
    15  H    0.000000  -0.000001   0.000002   0.001236  -0.083485   0.407166
    16  H   -0.000029  -0.000087   0.000003  -0.007640   0.080757  -0.002497
    17  H   -0.000072   0.000066  -0.000044   0.120178   0.091246  -0.008432
    18  Cl  -0.006716  -0.001847   0.005559  -0.131057   0.000396  -0.000534
    19  O   -0.003997   0.007241  -0.004619  -0.160021  -0.107448   0.013631
              13         14         15         16         17         18
     1  C    0.000703  -0.000751  -0.005555  -0.033541  -0.003703   0.393092
     2  C   -0.001838   0.001882  -0.001024   0.000163  -0.014722   0.019633
     3  H    0.000087   0.000009  -0.000259  -0.000012  -0.002776  -0.000353
     4  H    0.000028   0.000007   0.001192   0.000258  -0.000035   0.000070
     5  H    0.000001  -0.000001   0.000037   0.000018   0.001339   0.000051
     6  C    0.000160  -0.000097   0.000614   0.023456   0.002498  -0.087308
     7  H    0.000000   0.000000   0.000000  -0.000029  -0.000072  -0.006716
     8  H    0.000000   0.000000  -0.000001  -0.000087   0.000066  -0.001847
     9  H    0.000000   0.000000   0.000002   0.000003  -0.000044   0.005559
    10  O   -0.000890  -0.001008   0.001236  -0.007640   0.120178  -0.131057
    11  O   -0.040610  -0.040770  -0.083485   0.080757   0.091246   0.000396
    12  C    0.394664   0.390038   0.407166  -0.002497  -0.008432  -0.000534
    13  H    0.499053  -0.024470  -0.032801   0.002101  -0.003174  -0.000001
    14  H   -0.024470   0.496316  -0.030371  -0.003595   0.001769  -0.000008
    15  H   -0.032801  -0.030371   0.531360   0.001901   0.001251  -0.000039
    16  H    0.002101  -0.003595   0.001901   0.275964  -0.004592  -0.005612
    17  H   -0.003174   0.001769   0.001251  -0.004592   0.268770  -0.000457
    18  Cl  -0.000001  -0.000008  -0.000039  -0.005612  -0.000457  17.071926
    19  O   -0.000877  -0.000037   0.005596   0.135528  -0.005942  -0.123535
              19
     1  C    0.334220
     2  C    0.013833
     3  H   -0.001277
     4  H    0.015620
     5  H   -0.002161
     6  C   -0.135590
     7  H   -0.003997
     8  H    0.007241
     9  H   -0.004619
    10  O   -0.160021
    11  O   -0.107448
    12  C    0.013631
    13  H   -0.000877
    14  H   -0.000037
    15  H    0.005596
    16  H    0.135528
    17  H   -0.005942
    18  Cl  -0.123535
    19  O    8.544806
 Mulliken charges:
               1
     1  C    0.357654
     2  C   -0.403489
     3  H    0.203736
     4  H    0.226250
     5  H    0.212004
     6  C   -0.793399
     7  H    0.245593
     8  H    0.236256
     9  H    0.223283
    10  O   -0.486802
    11  O   -0.710014
    12  C   -0.369260
    13  H    0.207865
    14  H    0.211088
    15  H    0.203180
    16  H    0.537456
    17  H    0.556831
    18  Cl  -0.133262
    19  O   -0.524971
 Sum of Mulliken charges =   0.00000
 Mulliken charges with hydrogens summed into heavy atoms:
               1
     1  C    0.357654
     2  C    0.238501
     6  C   -0.088267
    10  O   -0.486802
    11  O    0.384273
    12  C    0.252873
    18  Cl  -0.133262
    19  O   -0.524971
 APT charges:
               1
     1  C    0.108358
     2  C   -1.354246
     3  H    0.520421
     4  H    0.352173
     5  H    0.510444
     6  C   -1.560049
     7  H    0.600332
     8  H    0.485747
     9  H    0.490163
    10  O   -0.173867
    11  O   -0.333112
    12  C   -1.487093
    13  H    0.542160
    14  H    0.626768
    15  H    0.291351
    16  H    0.496075
    17  H    0.504764
    18  Cl  -0.090140
    19  O   -0.530250
 Sum of APT charges =   0.00000
 APT charges with hydrogens summed into heavy atoms:
               1
     1  C    0.108358
     2  C    0.028791
     6  C    0.016193
    10  O   -0.173867
    11  O    0.667727
    12  C   -0.026813
    18  Cl  -0.090140
    19  O   -0.530250
 Electronic spatial extent (au):  <R**2>=           1338.4291
 Charge=              0.0000 electrons
 Dipole moment (field-independent basis, Debye):
    X=             -3.0207    Y=              4.0031    Z=             -0.3272  Tot=              5.0256
 Quadrupole moment (field-independent basis, Debye-Ang):
   XX=            -47.3168   YY=            -56.6953   ZZ=            -62.1533
   XY=              2.6500   XZ=              1.0945   YZ=             -2.4172
 Traceless Quadrupole moment (field-independent basis, Debye-Ang):
   XX=              8.0716   YY=             -1.3068   ZZ=             -6.7648
   XY=              2.6500   XZ=              1.0945   YZ=             -2.4172
 Octapole moment (field-independent basis, Debye-Ang**2):
  XXX=            -27.4117  YYY=              9.2552  ZZZ=             -7.8381  XYY=             -3.2527
  XXY=              4.2873  XXZ=              6.5512  XZZ=             -5.8724  YZZ=             -0.6010
  YYZ=             -0.4826  XYZ=              3.7262
 Hexadecapole moment (field-independent basis, Debye-Ang**3):
 XXXX=           -902.2148 YYYY=           -525.0105 ZZZZ=           -249.1852 XXXY=             20.2059
 XXXZ=              2.1289 YYYX=              1.2791 YYYZ=             -5.1319 ZZZX=              1.7371
 ZZZY=             -2.4679 XXYY=           -257.9988 XXZZ=           -191.3742 YYZZ=           -122.6980
 XXYZ=             -9.6132 YYXZ=             -5.3227 ZZXY=              1.9132
 N-N= 5.231875724889D+02 E-N=-3.039898141594D+03  KE= 8.399476831247D+02
  Exact polarizability:   0.000   0.000   0.000   0.000   0.000   0.000
 Approx polarizability: 110.560  -3.560 115.167  -4.984   6.814 107.518
   1 Symmetry operations used in ECPInt.
 ECPInt:  NShTT=    2145 NPrTT=   11364 LenC2=    2114 LenP2D=    7975.
 LDataN:  DoStor=T MaxTD1= 6 Len=  172
 Calling FoFJK, ICntrl=    100147 FMM=F ISym2X=0 I1Cent= 0 IOpClX= 0 NMat=1 NMatS=1 NMatT=0.
 ***** Axes restored to original set *****
 -------------------------------------------------------------------
 Center     Atomic                   Forces (Hartrees/Bohr)
 Number     Number              X              Y              Z
 -------------------------------------------------------------------
      1        6          -0.030209428   -0.010760290   -0.005375998
      2        6           0.008231970   -0.007186500   -0.004160237
      3        1           0.000206289    0.003255103    0.002213481
      4        1          -0.001062960    0.001569848   -0.000510330
      5        1          -0.004010944    0.002909491    0.000859123
      6        6           0.019280970    0.010676179    0.004394635
      7        1          -0.007338126    0.001157794   -0.002346215
      8        1          -0.003582751   -0.002346440    0.002776122
      9        1          -0.002842832   -0.002125368   -0.001056722
     10        8          -0.019357418    0.011296415   -0.018746567
     11        8           0.009239926    0.010978862    0.014416468
     12        6           0.003226545   -0.012726283   -0.004939430
     13        1          -0.002442151    0.001998973    0.004376931
     14        1          -0.002085222    0.004824647   -0.001333870
     15        1          -0.001360434    0.000960551    0.000328942
     16        1          -0.005805345    0.013810035   -0.035033633
     17        1           0.014094178   -0.009310511    0.018549681
     18       17           0.014167529   -0.017581171   -0.006265739
     19        8           0.011650204   -0.001401336    0.031853358
 -------------------------------------------------------------------
 Cartesian Forces:  Max     0.035033633 RMS     0.011201874
 FormGI is forming the generalized inverse of G from B-inverse, IUseBI=4.

 GradGradGradGradGradGradGradGradGradGradGradGradGradGradGradGradGradGrad
 Berny optimization.
 Internal  Forces:  Max     0.021151596 RMS     0.006313708
 Search for a saddle point.
 Step number   1 out of a maximum of   99
 All quantities printed in internal units (Hartrees-Bohrs-Radians)
 Swapping is turned off.
 Second derivative matrix not updated -- analytic derivatives used.
 ITU=  0
     Eigenvalues ---   -0.05334   0.00173   0.00231   0.00262   0.00303
     Eigenvalues ---    0.00382   0.00613   0.01212   0.02370   0.03012
     Eigenvalues ---    0.03393   0.04429   0.04600   0.05421   0.06164
     Eigenvalues ---    0.06442   0.06531   0.06581   0.06616   0.07460
     Eigenvalues ---    0.08293   0.10445   0.11332   0.12379   0.12639
     Eigenvalues ---    0.13626   0.13766   0.13898   0.14580   0.14718
     Eigenvalues ---    0.17074   0.17991   0.18594   0.18760   0.18902
     Eigenvalues ---    0.19076   0.19484   0.20965   0.32369   0.32575
     Eigenvalues ---    0.32841   0.33303   0.33439   0.33759   0.33867
     Eigenvalues ---    0.33947   0.34084   0.34174   0.35860   0.36322
     Eigenvalues ---    0.59159
 Eigenvectors required to have negative eigenvalues:
                          R12       R15       R19       R2        R14
   1                    0.58493  -0.57575  -0.39366  -0.25384   0.23081
                          A31       R4        D16       A32       A3
   1                    0.08195   0.07942   0.06525  -0.06118  -0.06054
 RFO step:  Lambda0=5.846284603D-04 Lambda=-2.39989294D-02.
 Linear search not attempted -- option 19 set.
 Maximum step size (   0.300) exceeded in Quadratic search.
    -- Step size scaled by   0.746
 Iteration  1 RMS(Cart)=  0.03444895 RMS(Int)=  0.00201357
 Iteration  2 RMS(Cart)=  0.00244599 RMS(Int)=  0.00065918
 Iteration  3 RMS(Cart)=  0.00000612 RMS(Int)=  0.00065916
 Iteration  4 RMS(Cart)=  0.00000001 RMS(Int)=  0.00065916
 Variable       Old X    -DE/DX   Delta X   Delta X   Delta X     New X
                                 (Linear)    (Quad)   (Total)
    R1        2.82221   0.00904   0.00000   0.02614   0.02614   2.84835
    R2        3.03373   0.01273   0.00000   0.02574   0.02589   3.05962
    R3        3.52364   0.02115   0.00000   0.08159   0.08159   3.60523
    R4        2.38880   0.00457   0.00000  -0.00085  -0.00049   2.38831
    R5        2.06774  -0.00113   0.00000  -0.00040  -0.00040   2.06734
    R6        2.06929   0.00012   0.00000   0.00263   0.00263   2.07192
    R7        2.07027  -0.00169   0.00000  -0.00231  -0.00231   2.06796
    R8        2.73870  -0.00063   0.00000  -0.01629  -0.01629   2.72241
    R9        2.08721  -0.00685   0.00000  -0.01555  -0.01555   2.07166
   R10        2.07925  -0.00449   0.00000  -0.01040  -0.01040   2.06885
   R11        2.07635  -0.00182   0.00000  -0.00437  -0.00437   2.07198
   R12        2.43927  -0.01308   0.00000   0.01556   0.01465   2.45392
   R13        2.74210  -0.00007   0.00000  -0.00573  -0.00573   2.73637
   R14        2.11318  -0.02028   0.00000  -0.10057  -0.10031   2.01287
   R15        2.40149  -0.01208   0.00000  -0.16356  -0.16443   2.23705
   R16        2.07074  -0.00239   0.00000  -0.00604  -0.00604   2.06470
   R17        2.07353  -0.00293   0.00000  -0.00733  -0.00733   2.06620
   R18        2.06650   0.00082   0.00000   0.00151   0.00151   2.06801
   R19        2.85981   0.00070   0.00000   0.03742   0.03823   2.89804
    A1        1.90747  -0.00260   0.00000  -0.01030  -0.01132   1.89616
    A2        1.89804  -0.00394   0.00000  -0.01957  -0.01961   1.87843
    A3        2.15905  -0.00893   0.00000  -0.03708  -0.03675   2.12231
    A4        1.63415   0.00611   0.00000   0.02352   0.02352   1.65767
    A5        1.82590   0.00712   0.00000   0.04578   0.04672   1.87261
    A6        1.96302   0.00665   0.00000   0.01736   0.01507   1.97808
    A7        1.95507  -0.00347   0.00000  -0.02130  -0.02137   1.93371
    A8        1.92311  -0.00398   0.00000  -0.01542  -0.01576   1.90736
    A9        1.84805   0.00436   0.00000   0.01730   0.01711   1.86516
   A10        1.93983  -0.00318   0.00000  -0.01447  -0.01469   1.92515
   A11        1.92695   0.00059   0.00000   0.00873   0.00860   1.93555
   A12        1.86664   0.00652   0.00000   0.02912   0.02886   1.89550
   A13        1.92063  -0.00396   0.00000  -0.02046  -0.02063   1.90000
   A14        1.95623  -0.00172   0.00000  -0.00603  -0.00609   1.95014
   A15        1.94869  -0.00333   0.00000  -0.02357  -0.02377   1.92492
   A16        1.86478   0.00335   0.00000   0.02076   0.02073   1.88551
   A17        1.86634   0.00333   0.00000   0.01661   0.01628   1.88263
   A18        1.90312   0.00288   0.00000   0.01583   0.01574   1.91886
   A19        1.99298   0.00337   0.00000  -0.00441  -0.00368   1.98931
   A20        1.75472  -0.01105   0.00000  -0.04730  -0.04694   1.70778
   A21        1.87995   0.00623   0.00000   0.02826   0.02689   1.90685
   A22        1.89342   0.00190   0.00000   0.02692   0.02726   1.92068
   A23        1.92212   0.00616   0.00000   0.05227   0.05172   1.97384
   A24        1.65606  -0.00279   0.00000  -0.04068  -0.04151   1.61455
   A25        1.84520   0.00633   0.00000   0.02027   0.02016   1.86536
   A26        1.86189   0.00602   0.00000   0.01560   0.01550   1.87739
   A27        1.93715  -0.00028   0.00000  -0.00232  -0.00233   1.93482
   A28        1.92533  -0.00414   0.00000  -0.00787  -0.00810   1.91723
   A29        1.95318  -0.00372   0.00000  -0.01349  -0.01350   1.93968
   A30        1.93692  -0.00334   0.00000  -0.00951  -0.00952   1.92740
   A31        2.36786   0.01550   0.00000   0.10200   0.10326   2.47112
   A32        2.63774   0.00843   0.00000   0.06598   0.06482   2.70256
   A33        1.92659  -0.02043   0.00000  -0.09769  -0.09769   1.82890
    D1       -2.78837  -0.00201   0.00000  -0.01223  -0.01189  -2.80026
    D2       -0.71590  -0.00153   0.00000  -0.00362  -0.00338  -0.71928
    D3        1.42517  -0.00148   0.00000  -0.00475  -0.00457   1.42060
    D4       -1.02678   0.00220   0.00000   0.00200   0.00200  -1.02478
    D5        1.04569   0.00268   0.00000   0.01062   0.01051   1.05620
    D6       -3.09642   0.00272   0.00000   0.00948   0.00932  -3.08710
    D7        1.33585  -0.00215   0.00000  -0.03729  -0.03738   1.29847
    D8       -2.87486  -0.00167   0.00000  -0.02868  -0.02886  -2.90373
    D9       -0.73379  -0.00162   0.00000  -0.02981  -0.03005  -0.76384
   D10       -1.04352   0.00349   0.00000   0.02305   0.02344  -1.02009
   D11       -3.05088   0.00122   0.00000   0.01931   0.02034  -3.03055
   D12       -2.98628   0.00583   0.00000   0.03686   0.03765  -2.94862
   D13        1.28955   0.00356   0.00000   0.03312   0.03455   1.32411
   D14        1.30107  -0.00441   0.00000   0.00262   0.00313   1.30420
   D15       -0.70629  -0.00669   0.00000  -0.00112   0.00003  -0.70625
   D16        3.08486  -0.00615   0.00000  -0.06315  -0.06209   3.02278
   D17        0.89001  -0.00243   0.00000  -0.06477  -0.06240   0.82761
   D18       -0.86043  -0.01495   0.00000  -0.11878  -0.11820  -0.97863
   D19       -2.90298   0.00454   0.00000   0.02360   0.02384  -2.87914
   D20       -0.97040  -0.00335   0.00000  -0.01889  -0.01889  -0.98929
   D21       -0.78329   0.00334   0.00000   0.01337   0.01343  -0.76985
   D22        1.14929  -0.00455   0.00000  -0.02911  -0.02929   1.12000
   D23        1.32938   0.00384   0.00000   0.01886   0.01892   1.34830
   D24       -3.02123  -0.00405   0.00000  -0.02363  -0.02381  -3.04503
   D25        0.22933   0.00121   0.00000   0.00295   0.00381   0.23314
   D26       -1.86155   0.00019   0.00000   0.01912   0.02016  -1.84139
   D27        2.99201  -0.00058   0.00000  -0.01203  -0.01208   2.97993
   D28       -1.24146   0.00059   0.00000  -0.00387  -0.00372  -1.24518
   D29        0.87062   0.00014   0.00000  -0.00700  -0.00695   0.86366
   D30        1.20127  -0.00085   0.00000   0.00030   0.00016   1.20143
   D31       -3.03219   0.00032   0.00000   0.00846   0.00852  -3.02368
   D32       -0.92012  -0.00013   0.00000   0.00533   0.00528  -0.91483
   D33       -1.80721  -0.00174   0.00000  -0.02677  -0.02731  -1.83452
   D34        0.16722   0.00425   0.00000   0.01978   0.01787   0.18509
   D35        2.00645   0.00221   0.00000   0.01120   0.01073   2.01718
   D36        0.05639  -0.00013   0.00000  -0.01319  -0.01246   0.04393
   D37       -0.76184  -0.00082   0.00000   0.03019   0.02869  -0.73314
         Item               Value     Threshold  Converged?
 Maximum Force            0.021152     0.000450     NO 
 RMS     Force            0.006314     0.000300     NO 
 Maximum Displacement     0.119847     0.001800     NO 
 RMS     Displacement     0.034407     0.001200     NO 
 Predicted change in Energy=-1.237111D-02
 GradGradGradGradGradGradGradGradGradGradGradGradGradGradGradGradGradGrad

                          Input orientation:                          
 ---------------------------------------------------------------------
 Center     Atomic      Atomic             Coordinates (Angstroms)
 Number     Number       Type             X           Y           Z
 ---------------------------------------------------------------------
      1          6           0        0.871528    0.101911    0.421894
      2          6           0       -0.384280    2.084799   -0.619179
      3          1           0       -1.172254    2.292836   -1.348998
      4          1           0       -0.743806    2.258473    0.401946
      5          1           0        0.480952    2.720638   -0.830388
      6          6           0        2.114468    0.937816    0.589997
      7          1           0        2.858171    0.358515    1.149579
      8          1           0        2.553412    1.210274   -0.375229
      9          1           0        1.889096    1.842481    1.167045
     10          8           0        0.001266    0.708690   -0.801171
     11          8           0       -1.742839   -0.822981   -0.106465
     12          6           0       -3.039914   -0.274906    0.231149
     13          1           0       -3.577858   -0.130893   -0.708868
     14          1           0       -3.560047   -1.013468    0.847165
     15          1           0       -2.934549    0.669358    0.774151
     16          1           0       -1.116054   -0.834768    0.754685
     17          1           0       -1.044175   -0.050059   -0.668458
     18         17           0        1.367636   -1.491536   -0.502514
     19          8           0        0.076727   -0.103600    1.382799
 ---------------------------------------------------------------------
                    Distance matrix (angstroms):
                    1          2          3          4          5
     1  C    0.000000
     2  C    2.567631   0.000000
     3  H    3.480410   1.093992   0.000000
     4  H    2.694524   1.096411   1.802928   0.000000
     5  H    2.928906   1.094316   1.784673   1.797853   0.000000
     6  C    1.507280   3.003567   4.049483   3.154239   2.804339
     7  H    2.131226   4.077015   5.121407   4.140415   3.892437
     8  H    2.166242   3.074791   4.000094   3.546035   2.604507
     9  H    2.149483   2.901302   3.988127   2.773193   2.596877
    10  O    1.619082   1.440639   2.046162   2.098678   2.068547
    11  O    2.823031   3.250191   3.402613   3.279010   4.245768
    12  C    3.934178   3.652897   3.546592   3.423345   4.743062
    13  H    4.596723   3.887965   3.474358   3.869732   4.961848
    14  H    4.589529   4.672784   4.632098   4.339934   5.752165
    15  H    3.864234   3.232447   3.201426   2.731882   4.295107
    16  H    2.222296   3.308604   3.769688   3.135463   4.207587
    17  H    2.209498   2.235063   2.443092   2.562285   3.166859
    18  Cl   1.907806   3.984092   4.635628   4.397590   4.316957
    19  O    1.263837   3.001588   3.842599   2.686026   3.610805
                    6          7          8          9         10
     6  C    0.000000
     7  H    1.096275   0.000000
     8  H    1.094790   1.772967   0.000000
     9  H    1.096447   1.772446   1.794327   0.000000
    10  O    2.540368   3.477062   2.635614   2.953517   0.000000
    11  O    4.297008   4.913540   4.760686   4.681609   2.422919
    12  C    5.307270   6.002678   5.818827   5.445583   3.358857
    13  H    5.935635   6.716831   6.285103   6.107441   3.677438
    14  H    6.006143   6.570183   6.619188   6.160513   4.285532
    15  H    5.059501   5.813190   5.633061   4.979773   3.331996
    16  H    3.688556   4.168253   4.350159   4.045816   2.459950
    17  H    3.540710   4.324407   3.823226   3.943965   1.298561
    18  Cl   2.766422   2.893751   2.953311   3.764972   2.607136
    19  O    2.421874   2.829201   3.309214   2.668045   2.331359
                   11         12         13         14         15
    11  O    0.000000
    12  C    1.448024   0.000000
    13  H    2.051627   1.092591   0.000000
    14  H    2.061053   1.093384   1.788992   0.000000
    15  H    2.103030   1.094343   1.803772   1.796797   0.000000
    16  H    1.065165   2.070936   2.949221   2.452262   2.360021
    17  H    1.183797   2.200641   2.535294   3.091096   2.484391
    18  Cl   3.206068   4.630869   5.133404   5.131494   4.980776
    19  O    2.458909   3.327025   4.210915   3.786936   3.167917
                   16         17         18         19
    16  H    0.000000
    17  H    1.626736   0.000000
    18  Cl   2.860176   2.814644   0.000000
    19  O    1.533577   2.338149   2.673428   0.000000
 Stoichiometry    C4H11ClO3
 Framework group  C1[X(C4H11ClO3)]
 Deg. of freedom    51
 Full point group                 C1      NOp   1
 Largest Abelian subgroup         C1      NOp   1
 Largest concise Abelian subgroup C1      NOp   1
                         Standard orientation:                         
 ---------------------------------------------------------------------
 Center     Atomic      Atomic             Coordinates (Angstroms)
 Number     Number       Type             X           Y           Z
 ---------------------------------------------------------------------
      1          6           0        0.855562    0.137459    0.419347
      2          6           0       -0.461181    2.080223   -0.622090
      3          1           0       -1.255470    2.263542   -1.351689
      4          1           0       -0.825504    2.243182    0.399100
      5          1           0        0.383955    2.742343   -0.833913
      6          6           0        2.072201    1.011365    0.586602
      7          1           0        2.833624    0.455517    1.146143
      8          1           0        2.502170    1.296799   -0.378913
      9          1           0        1.819261    1.908906    1.163348
     10          8           0       -0.033458    0.716575   -0.803639
     11          8           0       -1.729245   -0.867835   -0.107588
     12          6           0       -3.042474   -0.359862    0.230297
     13          1           0       -3.584958   -0.232921   -0.709571
     14          1           0       -3.539355   -1.113837    0.846835
     15          1           0       -2.966068    0.587442    0.772850
     16          1           0       -1.102069   -0.859909    0.753321
     17          1           0       -1.054957   -0.073988   -0.670189
     18         17           0        1.400214   -1.440343   -0.504568
     19          8           0        0.067838   -0.092033    1.380652
 ---------------------------------------------------------------------
 Rotational constants (GHZ):      1.9966160      1.2114002      0.9517523
 Basis read from rwf:  (5D, 7F)
 Pseudo-potential data read from rwf file.
 There are   174 symmetry adapted cartesian basis functions of A   symmetry.
 There are   166 symmetry adapted basis functions of A   symmetry.
   166 basis functions,   310 primitive gaussians,   174 cartesian basis functions
    38 alpha electrons       38 beta electrons
       nuclear repulsion energy       520.7040281563 Hartrees.
 NAtoms=   19 NActive=   19 NUniq=   19 SFac= 1.00D+00 NAtFMM=   60 NAOKFM=F Big=F
 Integral buffers will be    131072 words long.
 Raffenetti 2 integral format.
 Two-electron integral symmetry is turned on.
 One-electron integrals computed using PRISM.
   1 Symmetry operations used in ECPInt.
 ECPInt:  NShTT=    2145 NPrTT=   11364 LenC2=    2115 LenP2D=    7968.
 LDataN:  DoStor=T MaxTD1= 4 Len=   56
 NBasis=   166 RedAO= T EigKep=  6.93D-05  NBF=   166
 NBsUse=   166 1.00D-06 EigRej= -1.00D+00 NBFU=   166
 Initial guess from the checkpoint file:  "/lustre/SCRATCH5/gau/Gau-12524.chk"
 B after Tr=     0.000000    0.000000    0.000000
         Rot=    0.999890    0.001248    0.000206   -0.014751 Ang=   1.70 deg.
 ExpMin= 4.38D-02 ExpMax= 2.64D+04 ExpMxC= 3.95D+03 IAcc=2 IRadAn=         4 AccDes= 0.00D+00
 Harris functional with IExCor=  402 and IRadAn=       4 diagonalized for initial guess.
 HarFok:  IExCor=  402 AccDes= 0.00D+00 IRadAn=         4 IDoV= 1 UseB2=F ITyADJ=14
 ICtDFT=  3500011 ScaDFX=  1.000000  1.000000  1.000000  1.000000
 FoFCou: FMM=F IPFlag=           0 FMFlag=      100000 FMFlg1=           0
         NFxFlg=           0 DoJE=T BraDBF=F KetDBF=T FulRan=T
         wScrn=  0.000000 ICntrl=     500 IOpCl=  0 I1Cent=   200000004 NGrid=           0
         NMat0=    1 NMatS0=      1 NMatT0=    0 NMatD0=    1 NMtDS0=    0 NMtDT0=    0
 Petite list used in FoFCou.
 Requested convergence on RMS density matrix=1.00D-08 within 128 cycles.
 Requested convergence on MAX density matrix=1.00D-06.
 Requested convergence on             energy=1.00D-06.
 No special actions if energy rises.
 SCF Done:  E(RB3LYP) =  -844.838637931     A.U. after   11 cycles
            NFock= 11  Conv=0.93D-08     -V/T= 2.0058
   1 Symmetry operations used in ECPInt.
 ECPInt:  NShTT=    2145 NPrTT=   11364 LenC2=    2115 LenP2D=    7968.
 LDataN:  DoStor=T MaxTD1= 5 Len=  102
 Calling FoFJK, ICntrl=      2127 FMM=F ISym2X=0 I1Cent= 0 IOpClX= 0 NMat=1 NMatS=1 NMatT=0.
 ***** Axes restored to original set *****
 -------------------------------------------------------------------
 Center     Atomic                   Forces (Hartrees/Bohr)
 Number     Number              X              Y              Z
 -------------------------------------------------------------------
      1        6          -0.012862555   -0.002010811   -0.000176704
      2        6           0.003925824   -0.002848530   -0.001351937
      3        1          -0.000031820    0.001245009    0.000784848
      4        1          -0.000572854    0.000707310   -0.000212395
      5        1          -0.001389729    0.001182208    0.000416101
      6        6           0.006748449    0.004066479    0.001186548
      7        1          -0.002531819    0.000309671   -0.000202096
      8        1          -0.001018332   -0.000967518    0.000774590
      9        1          -0.001153036   -0.000579101   -0.000566801
     10        8          -0.007009968    0.004929226   -0.008496586
     11        8          -0.001242392    0.002240372    0.004131970
     12        6           0.001148287   -0.004793698   -0.001802115
     13        1          -0.000801237    0.000779511    0.001400456
     14        1          -0.000754958    0.001573309   -0.000331990
     15        1          -0.000529967    0.000282980    0.000092556
     16        1          -0.001738867    0.006369316   -0.010212919
     17        1           0.006557768   -0.002497965    0.005614788
     18       17           0.006358225   -0.007195805   -0.002728321
     19        8           0.006898982   -0.002791963    0.011680006
 -------------------------------------------------------------------
 Cartesian Forces:  Max     0.012862555 RMS     0.004187878

 GradGradGradGradGradGradGradGradGradGradGradGradGradGradGradGradGradGrad
 Berny optimization.
 FormGI is forming the generalized inverse of G from B-inverse, IUseBI=4.
 Internal  Forces:  Max     0.008984267 RMS     0.002303344
 Search for a saddle point.
 Step number   2 out of a maximum of   99
 All quantities printed in internal units (Hartrees-Bohrs-Radians)
 Swapping is turned off.
 Update second derivatives using D2CorX and points    1    2
 ITU=  0  0
     Eigenvalues ---   -0.05200   0.00175   0.00247   0.00256   0.00326
     Eigenvalues ---    0.00393   0.00731   0.01275   0.02424   0.03064
     Eigenvalues ---    0.03369   0.04428   0.04600   0.05457   0.06151
     Eigenvalues ---    0.06442   0.06535   0.06579   0.06615   0.07481
     Eigenvalues ---    0.08526   0.10404   0.11393   0.12367   0.12684
     Eigenvalues ---    0.13617   0.13868   0.13917   0.14510   0.14706
     Eigenvalues ---    0.17126   0.17968   0.18606   0.18791   0.18920
     Eigenvalues ---    0.19070   0.19709   0.21255   0.32365   0.32576
     Eigenvalues ---    0.32835   0.33302   0.33434   0.33759   0.33867
     Eigenvalues ---    0.33948   0.34085   0.34173   0.35860   0.36321
     Eigenvalues ---    0.59153
 Eigenvectors required to have negative eigenvalues:
                          R12       R15       R19       R14       R2
   1                    0.58320  -0.54975  -0.41790   0.25325  -0.25239
                          A31       R4        D16       A32       A3
   1                    0.08100   0.07981   0.07148  -0.07041  -0.06278
 RFO step:  Lambda0=2.084319529D-04 Lambda=-4.60085461D-03.
 Linear search not attempted -- option 19 set.
 Iteration  1 RMS(Cart)=  0.03868485 RMS(Int)=  0.00239529
 Iteration  2 RMS(Cart)=  0.00319530 RMS(Int)=  0.00080982
 Iteration  3 RMS(Cart)=  0.00001646 RMS(Int)=  0.00080976
 Iteration  4 RMS(Cart)=  0.00000002 RMS(Int)=  0.00080976
 Variable       Old X    -DE/DX   Delta X   Delta X   Delta X     New X
                                 (Linear)    (Quad)   (Total)
    R1        2.84835   0.00340   0.00000   0.01454   0.01454   2.86289
    R2        3.05962   0.00587   0.00000   0.01746   0.01698   3.07660
    R3        3.60523   0.00898   0.00000   0.04851   0.04851   3.65374
    R4        2.38831   0.00168   0.00000   0.00161   0.00128   2.38959
    R5        2.06734  -0.00026   0.00000   0.00029   0.00029   2.06764
    R6        2.07192   0.00010   0.00000   0.00176   0.00176   2.07368
    R7        2.06796  -0.00050   0.00000  -0.00167  -0.00167   2.06629
    R8        2.72241  -0.00029   0.00000  -0.00790  -0.00790   2.71451
    R9        2.07166  -0.00199   0.00000  -0.00654  -0.00654   2.06512
   R10        2.06885  -0.00133   0.00000  -0.00520  -0.00520   2.06365
   R11        2.07198  -0.00054   0.00000  -0.00185  -0.00185   2.07013
   R12        2.45392  -0.00333   0.00000  -0.00346  -0.00367   2.45025
   R13        2.73637  -0.00014   0.00000  -0.01066  -0.01066   2.72571
   R14        2.01287  -0.00400   0.00000   0.00087   0.00148   2.01435
   R15        2.23705  -0.00126   0.00000  -0.04634  -0.04630   2.19076
   R16        2.06470  -0.00071   0.00000  -0.00180  -0.00180   2.06289
   R17        2.06620  -0.00089   0.00000  -0.00258  -0.00258   2.06362
   R18        2.06801   0.00024   0.00000   0.00220   0.00220   2.07021
   R19        2.89804   0.00179   0.00000  -0.06695  -0.06643   2.83161
    A1        1.89616  -0.00175   0.00000  -0.00956  -0.00947   1.88669
    A2        1.87843  -0.00176   0.00000  -0.01244  -0.01284   1.86558
    A3        2.12231  -0.00321   0.00000  -0.02714  -0.02581   2.09649
    A4        1.65767   0.00255   0.00000   0.01946   0.02002   1.67769
    A5        1.87261   0.00353   0.00000   0.03816   0.03681   1.90942
    A6        1.97808   0.00203   0.00000   0.00373   0.00209   1.98018
    A7        1.93371  -0.00144   0.00000  -0.01602  -0.01604   1.91767
    A8        1.90736  -0.00150   0.00000  -0.00792  -0.00803   1.89933
    A9        1.86516   0.00154   0.00000   0.00834   0.00828   1.87344
   A10        1.92515  -0.00126   0.00000  -0.00728  -0.00738   1.91777
   A11        1.93555   0.00037   0.00000   0.00698   0.00693   1.94247
   A12        1.89550   0.00242   0.00000   0.01682   0.01672   1.91222
   A13        1.90000  -0.00155   0.00000  -0.01657  -0.01666   1.88334
   A14        1.95014  -0.00055   0.00000  -0.00187  -0.00188   1.94826
   A15        1.92492  -0.00138   0.00000  -0.01328  -0.01337   1.91155
   A16        1.88551   0.00132   0.00000   0.01593   0.01593   1.90144
   A17        1.88263   0.00119   0.00000   0.00672   0.00653   1.88916
   A18        1.91886   0.00106   0.00000   0.00972   0.00970   1.92856
   A19        1.98931   0.00073   0.00000  -0.00487  -0.00518   1.98413
   A20        1.70778  -0.00391   0.00000  -0.01472  -0.01492   1.69285
   A21        1.90685   0.00225   0.00000   0.01102   0.01020   1.91704
   A22        1.92068   0.00123   0.00000   0.03524   0.03657   1.95725
   A23        1.97384   0.00280   0.00000   0.04733   0.04652   2.02036
   A24        1.61455  -0.00175   0.00000  -0.05033  -0.05083   1.56372
   A25        1.86536   0.00206   0.00000   0.01360   0.01354   1.87890
   A26        1.87739   0.00198   0.00000   0.00919   0.00913   1.88652
   A27        1.93482  -0.00005   0.00000   0.00401   0.00399   1.93881
   A28        1.91723  -0.00133   0.00000  -0.00419  -0.00429   1.91293
   A29        1.93968  -0.00132   0.00000  -0.01286  -0.01288   1.92680
   A30        1.92740  -0.00115   0.00000  -0.00841  -0.00843   1.91897
   A31        2.47112   0.00591   0.00000   0.10522   0.10590   2.57701
   A32        2.70256   0.00284   0.00000   0.02407   0.02307   2.72563
   A33        1.82890  -0.00687   0.00000  -0.02831  -0.03199   1.79691
    D1       -2.80026  -0.00080   0.00000  -0.05772  -0.05814  -2.85840
    D2       -0.71928  -0.00051   0.00000  -0.04987  -0.05034  -0.76962
    D3        1.42060  -0.00051   0.00000  -0.04815  -0.04866   1.37194
    D4       -1.02478   0.00066   0.00000  -0.04468  -0.04455  -1.06933
    D5        1.05620   0.00095   0.00000  -0.03683  -0.03675   1.01945
    D6       -3.08710   0.00095   0.00000  -0.03510  -0.03508  -3.12218
    D7        1.29847  -0.00145   0.00000  -0.08052  -0.08008   1.21840
    D8       -2.90373  -0.00116   0.00000  -0.07266  -0.07228  -2.97600
    D9       -0.76384  -0.00116   0.00000  -0.07094  -0.07060  -0.83445
   D10       -1.02009   0.00159   0.00000   0.04852   0.04864  -0.97144
   D11       -3.03055   0.00091   0.00000   0.04578   0.04696  -2.98359
   D12       -2.94862   0.00286   0.00000   0.05639   0.05682  -2.89180
   D13        1.32411   0.00219   0.00000   0.05364   0.05514   1.37924
   D14        1.30420  -0.00120   0.00000   0.03518   0.03589   1.34009
   D15       -0.70625  -0.00188   0.00000   0.03243   0.03420  -0.67205
   D16        3.02278  -0.00282   0.00000  -0.08939  -0.08823   2.93454
   D17        0.82761  -0.00111   0.00000  -0.09071  -0.08888   0.73874
   D18       -0.97863  -0.00678   0.00000  -0.13480  -0.13318  -1.11181
   D19       -2.87914   0.00176   0.00000   0.00008   0.00058  -2.87856
   D20       -0.98929  -0.00128   0.00000  -0.01381  -0.01423  -1.00351
   D21       -0.76985   0.00118   0.00000  -0.01016  -0.00974  -0.77959
   D22        1.12000  -0.00186   0.00000  -0.02405  -0.02454   1.09546
   D23        1.34830   0.00144   0.00000  -0.00385  -0.00339   1.34491
   D24       -3.04503  -0.00161   0.00000  -0.01773  -0.01820  -3.06323
   D25        0.23314   0.00036   0.00000   0.01821   0.01686   0.25001
   D26       -1.84139   0.00062   0.00000   0.02678   0.02625  -1.81514
   D27        2.97993  -0.00041   0.00000  -0.01676  -0.01640   2.96353
   D28       -1.24518   0.00011   0.00000  -0.00989  -0.00947  -1.25465
   D29        0.86366  -0.00008   0.00000  -0.01199  -0.01160   0.85206
   D30        1.20143  -0.00027   0.00000   0.00274   0.00231   1.20374
   D31       -3.02368   0.00025   0.00000   0.00961   0.00925  -3.01443
   D32       -0.91483   0.00006   0.00000   0.00751   0.00711  -0.90772
   D33       -1.83452  -0.00124   0.00000  -0.09058  -0.09114  -1.92566
   D34        0.18509   0.00133   0.00000  -0.05264  -0.05484   0.13025
   D35        2.01718   0.00087   0.00000   0.01980   0.01793   2.03510
   D36        0.04393  -0.00030   0.00000  -0.00592  -0.00766   0.03627
   D37       -0.73314   0.00008   0.00000   0.11572   0.11566  -0.61749
         Item               Value     Threshold  Converged?
 Maximum Force            0.008984     0.000450     NO 
 RMS     Force            0.002303     0.000300     NO 
 Maximum Displacement     0.138067     0.001800     NO 
 RMS     Displacement     0.039305     0.001200     NO 
 Predicted change in Energy=-2.506443D-03
 GradGradGradGradGradGradGradGradGradGradGradGradGradGradGradGradGradGrad

                          Input orientation:                          
 ---------------------------------------------------------------------
 Center     Atomic      Atomic             Coordinates (Angstroms)
 Number     Number       Type             X           Y           Z
 ---------------------------------------------------------------------
      1          6           0        0.873344    0.077512    0.405609
      2          6           0       -0.358605    2.081412   -0.623661
      3          1           0       -1.153850    2.316417   -1.337465
      4          1           0       -0.709219    2.266167    0.399618
      5          1           0        0.507388    2.713052   -0.839715
[...]
 ,-0.00333748,0.00253134,0.00529852,-0.01717997,0.06857473,-0.00237964,
 0.00203873,-0.00271925,0.07695475,-0.03643040,-0.27635860,0.00775446,-
 0.00223625,-0.01779826,-0.08535442,0.04667243,0.29535634,-0.00014095,0
 .00051666,-0.00084314,-0.23846393,-0.12001928,0.04712456,-0.01758205,-
 0.01123100,0.00579001,-0.00683211,-0.00420697,0.00060708,0.24970395,-0
 .00384734,0.00090202,-0.00288286,-0.11218084,-0.11729661,0.02931537,0.
 00491819,0.00569462,-0.00208692,0.00390977,0.00543211,-0.00004753,0.12
 630882,0.14360259,0.00164056,0.00091798,-0.00027743,0.04726166,0.02963
 649,-0.06543107,-0.01892633,-0.01231371,0.00597935,0.02611162,0.015972
 96,-0.00448559,-0.04909293,-0.03018096,0.06130179,-0.14477490,-0.05896
 492,-0.01645646,-0.00120153,-0.00137877,-0.00134899,-0.00002039,-0.000
 22306,0.00002440,-0.00034705,0.00013845,0.00006961,-0.00038643,0.00000
 944,-0.00020444,0.52157636,-0.06879139,-0.11655746,-0.01427189,-0.0001
 2024,0.00326421,0.00083237,0.00013002,-0.00035071,-0.00030268,0.000399
 19,-0.00032692,-0.00029665,0.00033949,-0.00000051,0.00012705,-0.047472
 64,0.54483312,-0.01910171,-0.01329090,-0.07473708,-0.00160640,-0.00079
 206,-0.00132210,-0.00021477,-0.00013120,-0.00019264,0.00049662,0.00059
 256,-0.00007342,-0.00118521,0.00054886,0.00035367,-0.03029232,-0.02050
 614,0.59735511,-0.01812881,0.01509933,-0.01587665,0.00040225,-0.001493
 28,0.00028472,0.00007430,0.00011812,-0.00003770,0.00007263,0.00012215,
 0.00002331,0.00011612,0.00019152,0.00006010,-0.15995530,0.08746666,-0.
 10211615,0.17233218,-0.01314638,0.00898681,-0.01124760,0.00014483,-0.0
 0162596,0.00033648,0.00021593,0.00040810,0.00007560,-0.00021065,0.0001
 0437,0.00013197,0.00042062,0.00034715,-0.00026414,0.09059550,-0.116266
 80,0.08308868,-0.09483360,0.12520788,-0.00431864,0.00351982,-0.0046218
 4,0.00039434,-0.00061361,-0.00006467,0.00003264,0.00013959,0.00006645,
 -0.00021128,0.00000876,0.00012317,0.00022267,-0.00016249,-0.00006126,-
 0.10269368,0.08084533,-0.14028104,0.11316804,-0.08765242,0.14873319,-0
 .01054744,-0.00292867,0.02645794,-0.00087715,-0.00017142,0.00034290,0.
 00015338,0.00015237,-0.00004856,0.00021093,-0.00003430,-0.00009585,-0.
 00025480,0.00063000,-0.00016734,-0.10395958,-0.03047939,0.10445568,0.0
 1193292,0.00469399,-0.01853059,0.11165964,-0.00534407,-0.00397384,0.01
 985933,0.00045745,0.00060197,-0.00041714,-0.00018619,-0.00012348,0.000
 11168,-0.00007038,-0.00003173,0.00008905,0.00008274,-0.00020693,0.0001
 8266,-0.02932162,-0.06544398,0.05293854,-0.00833518,-0.00419640,0.0130
 0868,0.03412191,0.06667307,-0.00374419,-0.00289060,0.00397566,-0.00010
 515,0.00039009,-0.00015294,-0.00013498,-0.00011304,0.00007209,-0.00010
 827,-0.00004725,0.00000999,-0.00014536,-0.00021508,0.00014367,0.109514
 47,0.05763260,-0.25335197,0.00901393,0.00314040,-0.01462686,-0.1166903
 5,-0.06110519,0.27140056,0.00727678,-0.02219622,-0.01208670,-0.0006374
 6,0.00046890,-0.00162671,-0.00019509,0.00000844,0.00013244,-0.00067649
 ,0.00019969,-0.00006346,-0.00060356,0.00014509,-0.00037469,-0.07333456
 ,0.06402462,0.04017316,-0.00566393,0.01653972,0.01183738,-0.00460396,0
 .01244504,0.00463273,0.07702468,0.00856323,-0.01748003,-0.00985603,0.0
 0058984,-0.00051781,0.00033243,0.00011190,0.00038209,0.00026732,-0.000
 13017,0.00004456,0.00033686,0.00061706,0.00015336,0.00022369,0.0620469
 5,-0.22766365,-0.10513689,0.00402914,-0.01254900,-0.00812376,-0.002254
 81,0.00912763,0.00424537,-0.07062966,0.24776818,0.00236487,-0.00543096
 ,-0.00454925,-0.00049631,-0.00110086,-0.00017769,0.00025887,0.00044656
 ,0.00014411,-0.00030392,0.00002983,0.00026065,-0.00003736,0.00042491,-
 0.00097573,0.03907199,-0.10585339,-0.11204015,-0.00463240,0.01619168,0
 .01069372,0.00638352,-0.02308745,-0.01083259,-0.04130809,0.11754036,0.
 11660080,-0.04612959,-0.05008056,0.03510837,-0.08711682,0.01799398,-0.
 00918934,-0.00363110,0.03216606,0.00555091,-0.00070315,0.01489182,0.00
 151510,0.01417336,-0.02490173,-0.00569610,-0.01870837,0.01823710,-0.02
 320469,-0.00486505,-0.00548013,-0.00224172,0.00162449,0.00121830,0.000
 29725,0.00096542,-0.00035252,-0.00031205,0.17663779,-0.02737762,-0.039
 87472,-0.02266017,0.01879977,-0.19114931,-0.02755292,0.00822480,-0.024
 39801,-0.00027302,0.00946965,-0.02357500,-0.00969663,0.00607572,-0.038
 81775,-0.00390962,-0.00480816,0.00638301,-0.00609643,-0.00213037,-0.00
 083525,-0.00106138,0.00140642,0.00015876,0.00000283,0.00105226,0.00048
 767,0.00103037,-0.01254742,0.38299033,0.01988033,-0.05114245,-0.016582
 31,-0.01111631,-0.02017975,-0.08251686,-0.00404727,0.02745706,0.006378
 73,0.00535611,-0.03296925,0.00377164,-0.00233424,0.00423150,0.00364420
 ,-0.01233087,0.01021989,-0.00916928,-0.00175421,-0.00259398,0.00027941
 ,-0.00099722,-0.00046885,0.00081449,0.00115342,0.00034198,-0.00000824,
 -0.00552935,0.01367607,0.16826772,0.01407478,-0.00524166,-0.01816691,-
 0.00856988,0.00925679,0.00188385,0.00064405,-0.00111849,0.00094432,0.0
 0022559,-0.00123913,-0.00153938,0.00064328,-0.00372550,-0.00063625,-0.
 00227243,0.00022625,0.00241648,0.00000831,-0.00007517,-0.00013669,-0.0
 0056250,-0.00071501,0.00018869,0.00032211,0.00002398,0.00008553,-0.041
 61843,-0.04934207,0.01885103,0.46975546,0.00378941,-0.01103612,0.01253
 199,-0.00332854,0.00813976,0.00000370,0.00053939,-0.00022139,0.0003478
 3,0.00066675,-0.00078705,-0.00060679,0.00029434,-0.00195492,-0.0001986
 9,-0.00086993,0.00162358,-0.00197117,-0.00056129,-0.00039225,-0.000378
 83,0.00062298,0.00006767,0.00002570,0.00018035,0.00002805,0.00016356,-
 0.05279387,-0.02199539,0.01007453,-0.01972986,0.19995458,0.00398959,0.
 01203974,-0.04496834,0.00542240,-0.00446223,0.00024536,-0.00037494,-0.
 00066893,-0.00017166,-0.00047060,0.00087906,0.00043283,-0.00033439,0.0
 0238988,0.00009084,-0.00072763,-0.00304969,0.00618509,0.00105483,0.000
 63186,0.00044060,-0.00158419,-0.00109641,0.00003023,0.00002635,0.00015
 505,-0.00015694,0.04300504,0.02151587,0.01281666,0.01943328,-0.0116771
 6,0.29410102,-0.00413863,0.00061615,0.00233757,0.00093747,-0.00455087,
 -0.00018747,-0.00021531,0.00027346,-0.00037170,-0.00014170,0.00025444,
 0.00064832,-0.00013242,0.00064424,0.00011136,0.00056450,-0.00012380,-0
 .00026914,0.00008800,0.00007420,0.00002029,0.00014667,0.00017283,-0.00
 002537,-0.00003184,0.00011732,0.00000860,0.00925291,0.00635553,-0.0015
 7742,-0.17923998,0.04158562,0.02240228,0.47643626,0.00171157,-0.000848
 05,0.00058872,-0.00196304,0.00224364,0.00089810,0.00009276,-0.00014581
 ,0.00027061,-0.00020100,-0.00047714,-0.00058833,0.00020899,-0.00089729
 ,-0.00030430,-0.00022744,0.00022766,0.00007795,-0.00006404,-0.00004914
 ,-0.00004467,-0.00001307,-0.00006404,0.00001345,0.00000376,-0.00006183
 ,-0.00000600,-0.00785657,-0.00946406,0.00158543,0.05172399,-0.09358983
 ,-0.00140971,0.05198366,0.58185081,0.00156512,0.00098047,-0.00506316,0
 .00069227,0.00149737,0.00063848,0.00006447,0.00000582,0.00021012,-0.00
 021977,-0.00016503,-0.00051824,0.00011261,0.00009271,-0.00021098,-0.00
 021650,-0.00007196,0.00050768,0.00005505,-0.00000979,0.00003173,-0.000
 17561,-0.00010377,0.00007044,0.00000422,-0.00001384,-0.00002707,0.0008
 1947,0.00140977,0.00105579,0.03699585,-0.00556498,-0.10227735,0.040186
 45,-0.02307289,0.60931615,0.00095008,0.00049058,-0.00232166,-0.0001861
 5,0.00044617,-0.00011196,0.00004174,-0.00017916,0.00012631,-0.00000574
 ,-0.00001837,-0.00004517,0.00006238,-0.00008007,0.00003974,-0.00010603
 ,-0.00005923,0.00026191,0.00002738,0.00000505,0.00001339,-0.00008473,-
 0.00005282,0.00002472,0.00001004,-0.00000225,-0.00001117,-0.00015128,-
 0.00080016,0.00079628,-0.03237990,0.00935488,-0.02777824,-0.11160333,0
 .01312391,-0.11051992,0.13411479,-0.00033595,0.00009977,0.00041393,-0.
 00003458,-0.00007029,-0.00026457,-0.00004500,-0.00006338,0.00012173,0.
 00003143,0.00006129,0.00001422,0.00004573,0.00001259,0.00005984,0.0000
 6624,-0.00001793,-0.00006249,0.00000250,0.00000222,0.00000237,0.000017
 78,0.00002578,-0.00000357,-0.00000589,0.00000137,-0.00000977,0.0002765
 3,0.00011510,0.00007821,0.01238633,-0.00159430,0.01094099,0.01324334,-
 0.05731291,0.02620113,-0.02268987,0.05452968,0.00015014,-0.00005330,0.
 00016256,-0.00009739,0.00011343,-0.00013864,-0.00001664,-0.00005312,0.
 00007739,0.00001856,0.00002383,-0.00000979,0.00002473,-0.00003349,0.00
 003957,-0.00000988,-0.00000560,-0.00004250,-0.00000298,-0.00000555,-0.
 00000246,0.00000821,0.00001052,-0.00000878,-0.00000163,-0.00000097,-0.
 00000530,-0.00044227,-0.00029311,-0.00004399,0.00853544,-0.00295379,0.
 01498645,-0.12125312,0.03079378,-0.26044207,0.12566125,-0.03111936,0.2
 7033880,0.00080445,-0.00067543,0.00108920,-0.00075078,0.00054300,0.000
 00252,0.00003043,-0.00005997,0.00007952,0.00002889,-0.00007997,-0.0000
 6412,0.00005736,-0.00032710,-0.00000561,-0.00009971,0.00012215,-0.0000
 9643,-0.00004837,-0.00002280,-0.00002353,0.00002620,-0.00000302,0.0000
 0287,0.00001720,-0.00001120,0.00001222,-0.00319673,-0.00303279,0.00019
 280,-0.03129983,-0.01900804,0.02564491,-0.09555184,-0.08002957,0.05930
 728,0.01016707,0.01209413,-0.00867224,0.11583499,-0.00001604,0.0000148
 9,-0.00006531,0.00023336,-0.00056094,-0.00014938,0.00000315,0.00007914
 ,-0.00014851,0.00004808,0.00011932,0.00022263,-0.00009982,0.00015389,0
 .00008946,0.00000350,-0.00002455,-0.00000072,0.00000475,0.00001092,0.0
 0000714,0.00000318,-0.00000467,-0.00000242,0.00000763,0.00000398,0.000
 01509,0.00120926,0.00145207,-0.00036908,0.01160602,0.01435029,-0.01235
 154,-0.08805206,-0.19288254,0.11270537,-0.00095690,-0.00122982,0.00048
 600,0.08742997,0.19792872,-0.00040602,0.00021015,0.00002373,0.00017058
 ,-0.00034375,-0.00019912,-0.00000560,-0.00002063,-0.00002353,0.0000183
 4,0.00007964,0.00013598,-0.00002654,0.00009184,0.00009472,0.00005223,-
 0.00003008,-0.00001187,0.00001107,0.00000826,0.00000821,0.00000822,0.0
 0001151,-0.00000349,-0.00000502,0.00000138,-0.00000110,0.00100439,0.00
 096240,-0.00022450,0.00907641,0.00333827,-0.00310506,0.06486998,0.1079
 5858,-0.14017574,0.01221717,0.02012381,-0.01359715,-0.07645977,-0.1174
 1477,0.14453998,-0.00024796,0.00029725,0.00065609,-0.00024487,0.000422
 41,0.00039408,0.00002934,-0.00005537,-0.00001313,-0.00012599,-0.000272
 07,-0.00012742,0.00004839,-0.00010591,-0.00012633,0.00001004,-0.000009
 34,-0.00000071,-0.00000183,-0.00001132,0.00000038,-0.00000884,0.000004
 23,-0.00000646,-0.00001802,-0.00003295,-0.00001985,-0.00077877,-0.0008
 5493,-0.00019343,-0.01249657,0.03444112,0.02095400,-0.05549721,-0.0311
 4962,-0.01852925,0.00049419,-0.01471977,-0.00618647,0.00066002,-0.0109
 9079,-0.00845482,0.06266606,-0.00012656,-0.00005885,-0.00045053,0.0000
 6816,-0.00071831,-0.00009607,-0.00005016,0.00002837,-0.00008385,-0.000
 11068,0.00008593,0.00021669,-0.00006773,0.00011110,0.00008119,0.000027
 70,-0.00002689,0.00000810,0.00001469,0.00000747,0.00000317,0.00000016,
 0.00000825,-0.00000731,0.00000180,0.00002962,0.00000602,0.00136597,0.0
 0106614,-0.00029183,0.01134846,-0.00574565,-0.00573586,-0.02559086,-0.
 24681271,-0.11037783,-0.00073505,0.00625003,0.00304868,-0.00342487,-0.
 01733550,-0.01223395,0.02026180,0.26472713,-0.00010757,-0.00056657,0.0
 0114081,0.00016723,-0.00068365,-0.00016308,0.00003864,0.00014860,-0.00
 031960,0.00013224,0.00012509,0.00038931,-0.00016085,0.00014478,0.00009
 551,0.00000208,0.00006805,-0.00013371,-0.00002245,0.00000403,-0.000011
 29,0.00004918,0.00001838,-0.00001069,0.00001264,0.00001673,0.00003348,
 0.00018727,0.00101709,-0.00044723,0.00698829,-0.00657775,-0.00164893,-
 0.01491553,-0.11053134,-0.12034550,-0.00301451,-0.02444902,-0.01121486
 ,0.00118444,0.01642776,0.01170273,0.01068331,0.12560267,0.12183396,-0.
 02817813,-0.01536330,0.05589754,-0.00104968,-0.00126894,-0.00171076,-0
 .00019181,0.00137617,-0.00039492,0.00059615,-0.00000999,0.00066309,-0.
 00009070,-0.00045148,0.00017424,0.00315410,0.00250099,-0.00618879,-0.0
 0083638,-0.00039685,-0.00036832,0.00188854,0.00123664,-0.00032185,-0.0
 0020440,-0.00021950,0.00003638,-0.02257321,-0.00145770,-0.01126529,-0.
 08357247,-0.00562676,-0.02796663,-0.02722203,0.00570972,-0.01022801,0.
 00137200,-0.00062908,0.00150010,0.00079190,-0.00040577,-0.00096461,0.0
 0280006,-0.00153967,-0.00173905,0.07432367,-0.01151656,-0.00336406,0.0
 1464970,-0.00009145,-0.00158594,0.00025812,-0.00005692,0.00037609,-0.0
 0015120,-0.00003005,-0.00036628,0.00005685,0.00009779,0.00016859,-0.00
 016819,0.00021143,0.00110423,-0.00082169,-0.00025277,-0.00006761,-0.00
 010053,0.00013014,0.00055201,-0.00007782,0.00002880,-0.00002123,-0.000
 10225,-0.00379914,0.00110671,-0.00599680,-0.00190291,-0.03521796,-0.00
 844057,0.00659526,-0.00166824,0.01232183,0.00298933,-0.00119661,-0.001
 17927,-0.00110280,0.00037849,-0.00055898,0.00112512,-0.00064166,0.0005
 4736,-0.01890632,0.05387470,0.00162877,0.00058789,0.04529897,-0.001378
 18,0.00027739,-0.00076388,-0.00007076,0.00075426,-0.00024382,0.0005211
 9,-0.00023595,0.00031566,-0.00003369,-0.00075057,0.00002367,0.00249967
 ,0.00174627,-0.00645373,-0.00058297,-0.00040177,-0.00019564,0.00173187
 ,0.00127068,0.00002933,-0.00020520,-0.00016790,0.00002839,-0.01491578,
 -0.00155631,-0.00745424,-0.06402014,-0.00086936,-0.14654288,-0.0007419
 2,0.00183996,0.02130683,0.00668022,-0.00256972,-0.00083936,0.00146455,
 0.00032334,-0.00026992,0.00214421,-0.00212632,-0.00075442,0.01986835,-
 0.02747997,0.16675645,-0.02005869,0.01853225,-0.03948962,0.01845583,-0
 .01018148,-0.00065633,-0.00062788,0.00133385,-0.00119261,-0.00108885,0
 .00294950,0.00194682,-0.00060216,0.00776161,0.00087641,0.00148879,-0.0
 0268609,0.00331902,0.00111552,0.00052028,0.00061616,-0.00099402,-0.000
 29453,0.00005408,-0.00030664,0.00005977,-0.00032704,-0.00164003,0.0227
 3253,0.00440739,-0.03585403,0.01163375,-0.02109320,-0.02353303,0.00027
 019,0.00870955,0.00091548,-0.00102553,0.00033718,0.00291639,0.00009610
 ,-0.00162945,0.00269932,-0.00217513,-0.00087760,0.03801363,0.01116822,
 0.01219874,0.04011486,-0.00415055,0.02804826,-0.02975470,-0.00438371,-
 0.02209477,0.00132295,-0.00075051,0.00023500,-0.00012250,-0.00106033,0
 .00186816,0.00100050,0.00106136,0.00237728,-0.00000599,0.00257901,-0.0
 0422321,0.00433125,0.00142587,0.00094827,0.00086110,-0.00110123,-0.000
 32745,-0.00000316,-0.00040553,-0.00011567,-0.00032361,0.04602477,-0.01
 339744,0.00803219,-0.00042246,-0.06599639,0.01630720,-0.00501970,0.020
 84023,-0.01145705,0.00068328,-0.00013754,0.00080413,0.00729856,-0.0024
 5166,-0.00226096,0.00253548,-0.00160016,-0.00182892,0.01857762,0.00223
 082,0.02296033,-0.04654313,0.06808675,-0.01516534,-0.01529658,0.019709
 19,-0.00673045,0.00217874,0.00014462,0.00045772,0.00091157,0.00051758,
 -0.00026907,-0.00180452,-0.00079949,0.00028888,-0.00226150,-0.00035351
 ,-0.00150933,0.00327654,-0.00356490,-0.00107158,-0.00073142,-0.0004314
 0,0.00065002,0.00030834,0.00003529,0.00019929,-0.00012615,0.00016683,-
 0.01017401,-0.00193348,-0.03289426,-0.00184703,0.01212149,-0.04036155,
 0.00880012,-0.00597448,-0.00173749,-0.00166089,0.00002458,0.00024430,-
 0.00272354,0.00030536,0.00116548,-0.00047988,0.00134645,0.00015758,-0.
 00294673,0.02122931,-0.03092170,0.01984984,-0.01777250,0.09533641,-0.0
 2113977,-0.01323270,-0.00632673,-0.00246430,-0.00144055,-0.00183059,-0
 .00026203,0.00118168,0.00020852,-0.00014733,0.00009005,0.00030284,0.00
 017720,0.00033067,-0.00016507,0.00314389,-0.00801779,-0.00480463,0.000
 81725,-0.00052122,0.00066753,0.00068205,0.00050765,-0.00084815,-0.0003
 9916,-0.00217074,-0.00096048,-0.00747496,0.02463148,-0.00174039,-0.003
 92193,0.00022276,-0.00110990,0.00107737,0.00003486,-0.00010776,-0.0001
 7036,0.00006332,-0.00004579,-0.00011123,-0.00001017,0.00008537,-0.0001
 0297,0.00006163,0.00007967,0.00351197,0.00072164,0.00216392,0.00017463
 ,0.00016697,0.00055022,0.03765528,-0.02637528,-0.02366116,0.01529805,0
 .00373327,0.00210939,0.00219307,0.00051576,-0.00148019,-0.00018824,-0.
 00015895,0.00005816,-0.00019796,-0.00029007,0.00018203,-0.00010483,0.0
 0884620,-0.02563519,-0.01483166,0.00043637,0.00002366,-0.00043806,0.00
 050898,-0.00104421,-0.00047216,-0.00396256,-0.00233947,-0.00140993,0.0
 1476863,-0.02783577,0.00241377,0.00508122,0.00181853,0.00308153,-0.000
 49514,0.00009737,0.00048567,0.00026838,-0.00011656,0.00000884,0.000104
 64,-0.00000034,-0.00011068,-0.00024105,0.00015294,0.00004128,-0.007606
 19,-0.00204917,-0.00569187,-0.00145765,-0.00314929,-0.00053062,-0.0181
 5352,0.07653567,-0.01531015,0.00519216,-0.01742543,-0.00082060,0.00100
 090,0.00072014,0.00007447,0.00000020,0.00004936,-0.00040917,0.00084013
 ,0.00001006,0.00000550,0.00002137,-0.00009667,0.00445481,-0.01482280,-
 0.00488135,0.00117241,-0.00038185,-0.00002562,-0.00082431,-0.00084375,
 0.00074115,-0.00189722,-0.00146982,0.00057787,-0.00237349,0.00352210,0
 .00779292,0.00333809,0.00007588,0.00390962,-0.00040370,-0.00003484,0.0
 0044141,0.00028350,-0.00005859,0.00003253,-0.00003199,-0.00000662,-0.0
 0006106,-0.00019478,0.00015306,-0.00006158,-0.00712519,-0.00161097,-0.
 00552247,0.00087773,-0.00037680,-0.00166477,-0.01198755,0.02705827,0.0
 4537506,-0.24516174,-0.08146959,0.14126311,0.00116870,0.00160248,0.002
 53134,0.00057992,-0.00159654,-0.00034303,-0.00008329,-0.00192433,-0.00
 081592,0.00010707,0.00077063,-0.00088061,-0.02477141,-0.01568654,0.037
 95809,0.00251280,0.00148800,0.00155163,-0.00643179,-0.00592396,-0.0015
 9862,0.00105887,-0.00035540,0.00018672,0.03593353,0.00360306,0.0022486
 4,-0.05388563,-0.00141304,-0.06049297,0.00880416,-0.00335907,-0.008515
 49,-0.00346764,0.00125834,0.00049279,-0.00027640,-0.00011345,0.0004380
 5,0.00011561,0.00067035,0.00131257,0.03746678,0.01459116,0.03104716,-0
 .02118910,-0.01651578,0.01378175,-0.01104561,0.02447695,0.03117165,0.2
 7856519,-0.07144815,-0.11143397,0.05513641,-0.00087385,0.00448198,0.00
 065141,0.00025579,-0.00058326,0.00013071,-0.00047449,0.00059925,-0.000
 67940,-0.00015444,0.00003668,0.00015908,-0.02125787,-0.00089802,0.0220
 5544,-0.00124058,-0.00006443,0.00017981,-0.00530503,-0.00179842,-0.000
 51283,0.00209376,0.00272216,0.00147585,0.00965952,-0.00241710,0.035901
 36,-0.01814077,0.01254880,-0.01904907,0.00191639,-0.00098614,-0.004862
 98,-0.00178770,0.00064150,0.00040835,0.00018511,-0.00000168,0.00018797
 ,-0.00064429,0.00047277,0.00047541,0.02448041,-0.01361289,0.01208960,-
 0.01269453,-0.01114120,0.00472885,0.01553398,0.00633359,-0.01825804,0.
 07989673,0.11510038,0.18861649,0.08688132,-0.29053598,0.00117642,-0.01
 064964,-0.00706759,-0.00080673,0.00288500,0.00080409,-0.00098439,0.002
 17210,0.00195700,0.00001770,0.00136017,0.00012525,0.01010083,0.0044628
 0,0.00185417,0.00125363,-0.00032046,-0.00005442,-0.00097351,-0.0006868
 2,0.00166442,-0.00060291,0.00143418,0.00026821,-0.01340901,0.03189659,
 -0.05548066,-0.02239085,-0.00788443,0.00599401,0.00036040,-0.00206003,
 -0.00278103,-0.00064098,0.00055627,0.00046329,-0.00090309,-0.00007380,
 0.00000169,-0.00049952,0.00093753,-0.00024250,-0.00691957,-0.00237493,
 -0.03379727,0.01207293,0.00828655,-0.00474822,0.02586899,-0.02660446,-
 0.02991114,-0.19133684,-0.09021794,0.41148665\\0.00000382,0.00000803,0
 .00000279,-0.00000736,-0.00000367,-0.00000810,-0.00000857,-0.00001181,
 -0.00000983,-0.00000846,-0.00000017,-0.00000989,-0.00001035,-0.0000007
 9,-0.00001186,-0.00000228,0.00001552,-0.00000225,0.00000061,0.00002180
 ,0.00000086,-0.00000328,0.00001239,-0.00000346,-0.00000658,0.00001662,
 -0.00000707,-0.00000205,-0.00000590,0.00000162,0.00000764,-0.00000492,
 0.00000726,0.00000357,-0.00001205,0.00000364,0.00000321,-0.00002018,0.
 00000359,0.00000776,-0.00001131,0.00000854,-0.00000075,-0.00000897,-0.
 00000089,0.00000839,-0.00000085,0.00000742,0.00000296,-0.00000898,0.00
 000235,0.00000923,0.00000534,0.00001086,0.00000247,0.00000992,0.000004
 41\\\@


 ... UNTIL SCIENCE IS MIXED WITH EMOTION AND APPEALS TO THE HEART AND
 IMAGINATION , IT IS LIKE DEAD INORGANIC MATTER; AND WHEN IT IS SO MIXED
 AND SO TRANSFORMED IT IS LITERATURE.

                                  -- JOHN BURROUGHS
 Job cpu time:       0 days  0 hours 12 minutes 59.3 seconds.
 File lengths (MBytes):  RWF=     69 Int=      0 D2E=      0 Chk=      3 Scr=      1
 Normal termination of Gaussian 09 at Mon Feb 23 12:46:45 2015.
