 Entering Link 1 = C:\G09W\l1.exe PID=      4828.
  
 Copyright (c) 1988,1990,1992,1993,1995,1998,2003,2009, Gaussian, Inc.
                  All Rights Reserved.
  
 This is part of the Gaussian(R) 09 program.  It is based on
 the Gaussian(R) 03 system (copyright 2003, Gaussian, Inc.),
 the Gaussian(R) 98 system (copyright 1998, Gaussian, Inc.),
 the Gaussian(R) 94 system (copyright 1995, Gaussian, Inc.),
 the Gaussian 92(TM) system (copyright 1992, Gaussian, Inc.),
 the Gaussian 90(TM) system (copyright 1990, Gaussian, Inc.),
 the Gaussian 88(TM) system (copyright 1988, Gaussian, Inc.),
 the Gaussian 86(TM) system (copyright 1986, Carnegie Mellon
 University), and the Gaussian 82(TM) system (copyright 1983,
 Carnegie Mellon University). Gaussian is a federally registered
 trademark of Gaussian, Inc.
  
 This software contains proprietary and confidential information,
 including trade secrets, belonging to Gaussian, Inc.
  
 This software is provided under written license and may be
 used, copied, transmitted, or stored only in accord with that
 written license.
  
 The following legend is applicable only to US Government
 contracts under FAR:
  
                    RESTRICTED RIGHTS LEGEND
  
 Use, reproduction and disclosure by the US Government is
 subject to restrictions as set forth in subparagraphs (a)
 and (c) of the Commercial Computer Software - Restricted
 Rights clause in FAR 52.227-19.
  
 Gaussian, Inc.
 340 Quinnipiac St., Bldg. 40, Wallingford CT 06492
  
  
 ---------------------------------------------------------------
 Warning -- This program may not be used in any manner that
 competes with the business of Gaussian, Inc. or will provide
 assistance to any competitor of Gaussian, Inc.  The licensee
 of this program is prohibited from giving any competitor of
 Gaussian, Inc. access to this program.  By using this program,
 the user acknowledges that Gaussian, Inc. is engaged in the
 business of creating and licensing software in the field of
 computational chemistry and represents and warrants to the
 licensee that it is not a competitor of Gaussian, Inc. and that
 it will not use this program in any manner prohibited above.
 ---------------------------------------------------------------
  

 Cite this work as:
 Gaussian 09, Revision A.02,
 M. J. Frisch, G. W. Trucks, H. B. Schlegel, G. E. Scuseria, 
 M. A. Robb, J. R. Cheeseman, G. Scalmani, V. Barone, B. Mennucci, 
 G. A. Petersson, H. Nakatsuji, M. Caricato, X. Li, H. P. Hratchian, 
 A. F. Izmaylov, J. Bloino, G. Zheng, J. L. Sonnenberg, M. Hada, 
 M. Ehara, K. Toyota, R. Fukuda, J. Hasegawa, M. Ishida, T. Nakajima, 
 Y. Honda, O. Kitao, H. Nakai, T. Vreven, J. A. Montgomery, Jr., 
 J. E. Peralta, F. Ogliaro, M. Bearpark, J. J. Heyd, E. Brothers, 
 K. N. Kudin, V. N. Staroverov, R. Kobayashi, J. Normand, 
 K. Raghavachari, A. Rendell, J. C. Burant, S. S. Iyengar, J. Tomasi, 
 M. Cossi, N. Rega, J. M. Millam, M. Klene, J. E. Knox, J. B. Cross, 
 V. Bakken, C. Adamo, J. Jaramillo, R. Gomperts, R. E. Stratmann, 
 O. Yazyev, A. J. Austin, R. Cammi, C. Pomelli, J. W. Ochterski, 
 R. L. Martin, K. Morokuma, V. G. Zakrzewski, G. A. Voth, 
 P. Salvador, J. J. Dannenberg, S. Dapprich, A. D. Daniels, 
 O. Farkas, J. B. Foresman, J. V. Ortiz, J. Cioslowski, 
 and D. J. Fox, Gaussian, Inc., Wallingford CT, 2009.
 
 ******************************************
 Gaussian 09:  IA32W-G09RevA.02 11-Jun-2009
                09-Sep-2015 
 ******************************************
 %chk=C:\Users\214584429\Desktop\Test 2\h2o.chk
 --------------------------------------------
 # opt freq x3lyp/6-31+g(d) geom=connectivity
 --------------------------------------------
 1/14=-1,18=20,19=15,26=3,38=1,57=2/1,3;
 2/9=110,12=2,17=6,18=5,40=1/2;
 3/5=1,6=6,7=11,11=2,16=1,25=1,30=1,71=1,74=-33/1,2,3;
 4//1;
 5/5=2,38=5/2;
 6/7=2,8=2,9=2,10=2,28=1/1;
 7//1,2,3,16;
 1/14=-1,18=20,19=15/3(2);
 2/9=110/2;
 99//99;
 2/9=110/2;
 3/5=1,6=6,7=11,11=2,16=1,25=1,30=1,71=1,74=-33/1,2,3;
 4/5=5,16=3/1;
 5/5=2,38=5/2;
 7//1,2,3,16;
 1/14=-1,18=20,19=15/3(-5);
 2/9=110/2;
 6/7=2,8=2,9=2,10=2,19=2,28=1/1;
 99/9=1/99;
 -------------------
 Title Card Required
 -------------------
 Symbolic Z-matrix:
 Charge =  0 Multiplicity = 1
 O                     0.11594   0.97101   0. 
 H                     1.07594   0.97101   0. 
 H                    -0.20451   1.87595   0. 
 

 GradGradGradGradGradGradGradGradGradGradGradGradGradGradGradGradGradGrad
 Berny optimization.
 Initialization pass.
                           ----------------------------
                           !    Initial Parameters    !
                           ! (Angstroms and Degrees)  !
 --------------------------                            --------------------------
 ! Name  Definition              Value          Derivative Info.                !
 --------------------------------------------------------------------------------
 ! R1    R(1,2)                  0.96           estimate D2E/DX2                !
 ! R2    R(1,3)                  0.96           estimate D2E/DX2                !
 ! A1    A(2,1,3)              109.5            estimate D2E/DX2                !
 --------------------------------------------------------------------------------
 Trust Radius=3.00D-01 FncErr=1.00D-07 GrdErr=1.00D-06
 Number of steps in this run=  20 maximum allowed number of steps= 100.
 GradGradGradGradGradGradGradGradGradGradGradGradGradGradGradGradGradGrad

                          Input orientation:                          
 ---------------------------------------------------------------------
 Center     Atomic      Atomic             Coordinates (Angstroms)
 Number     Number       Type             X           Y           Z
 ---------------------------------------------------------------------
      1          8           0        0.115942    0.971014    0.000000
      2          1           0        1.075942    0.971014    0.000000
      3          1           0       -0.204513    1.875950    0.000000
 ---------------------------------------------------------------------
                    Distance matrix (angstroms):
                    1          2          3
     1  O    0.000000
     2  H    0.960000   0.000000
     3  H    0.960000   1.567952   0.000000
 Stoichiometry    H2O
 Framework group  C2V[C2(O),SGV(H2)]
 Deg. of freedom     2
 Full point group                 C2V     NOp   4
 Largest Abelian subgroup         C2V     NOp   4
 Largest concise Abelian subgroup C2      NOp   2
                         Standard orientation:                         
 ---------------------------------------------------------------------
 Center     Atomic      Atomic             Coordinates (Angstroms)
 Number     Number       Type             X           Y           Z
 ---------------------------------------------------------------------
      1          8           0        0.000000    0.000000    0.110812
      2          1           0        0.000000    0.783976   -0.443248
      3          1           0        0.000000   -0.783976   -0.443248
 ---------------------------------------------------------------------
 Rotational constants (GHZ):    919.6759643    407.9403261    282.5913749
 Standard basis: 6-31+G(d) (6D, 7F)
 There are    12 symmetry adapted basis functions of A1  symmetry.
 There are     1 symmetry adapted basis functions of A2  symmetry.
 There are     4 symmetry adapted basis functions of B1  symmetry.
 There are     6 symmetry adapted basis functions of B2  symmetry.
 Integral buffers will be    262144 words long.
 Raffenetti 2 integral format.
 Two-electron integral symmetry is turned on.
    23 basis functions,    40 primitive gaussians,    23 cartesian basis functions
     5 alpha electrons        5 beta electrons
       nuclear repulsion energy         9.1571159843 Hartrees.
 NAtoms=    3 NActive=    3 NUniq=    2 SFac= 1.69D+00 NAtFMM=   80 NAOKFM=F Big=F
 One-electron integrals computed using PRISM.
 NBasis=    23 RedAO= T  NBF=    12     1     4     6
 NBsUse=    23 1.00D-06 NBFU=    12     1     4     6
 Harris functional with IExCor= 3102 diagonalized for initial guess.
 ExpMin= 8.45D-02 ExpMax= 5.48D+03 ExpMxC= 8.25D+02 IAcc=2 IRadAn=         0 AccDes= 0.00D+00
 HarFok:  IExCor= 3102 AccDes= 0.00D+00 IRadAn=         0 IDoV= 1
 ScaDFX=  1.000000  1.000000  1.000000  1.000000
 FoFCou: FMM=F IPFlag=           0 FMFlag=      100000 FMFlg1=           0
         NFxFlg=           0 DoJE=T BraDBF=F KetDBF=T FulRan=T
         Omega=  0.000000  0.000000  1.000000  0.000000  0.000000 ICntrl=     500 IOpCl=  0
         NMat0=    1 NMatS0=    1 NMatT0=    0 NMatD0=    1 NMtDS0=    0 NMtDT0=    0
         I1Cent=           4 NGrid=           0.
 Petite list used in FoFCou.
 Initial guess orbital symmetries:
       Occupied  (A1) (A1) (B2) (A1) (B1)
       Virtual   (A1) (B2) (A1) (B1) (B2) (A1) (B2) (A1) (B1) (B2)
                 (A1) (A1) (A2) (A1) (B1) (A1) (B2) (A1)
 The electronic state of the initial guess is 1-A1.
 Requested convergence on RMS density matrix=1.00D-08 within 128 cycles.
 Requested convergence on MAX density matrix=1.00D-06.
 Requested convergence on             energy=1.00D-06.
 No special actions if energy rises.
 Keep R1 ints in memory in canonical form, NReq=937885.
 Integral accuracy reduced to 1.0D-05 until final iterations.
 Initial convergence to 1.0D-05 achieved.  Increase integral accuracy.
 SCF Done:  E(RX3LYP) =  -76.3923943152     A.U. after   10 cycles
             Convg  =    0.5475D-08             -V/T =  2.0086

 **********************************************************************

            Population analysis using the SCF density.

 **********************************************************************

 Orbital symmetries:
       Occupied  (A1) (A1) (B2) (A1) (B1)
       Virtual   (A1) (B2) (A1) (B1) (B2) (A1) (B2) (A1) (B2) (B1)
                 (A1) (A1) (A2) (A1) (B1) (A1) (B2) (A1)
 The electronic state is 1-A1.
 Alpha  occ. eigenvalues --  -19.19637  -1.02965  -0.55711  -0.39153  -0.32252
 Alpha virt. eigenvalues --    0.02820   0.11296   0.15444   0.15500   0.21405
 Alpha virt. eigenvalues --    0.23699   0.97439   1.03770   1.11786   1.12072
 Alpha virt. eigenvalues --    1.13679   1.23946   1.72292   1.72972   1.76878
 Alpha virt. eigenvalues --    2.29945   2.65997   3.68607
          Condensed to atoms (all electrons):
              1          2          3
     1  O    8.472132   0.234698   0.234698
     2  H    0.234698   0.316221  -0.021683
     3  H    0.234698  -0.021683   0.316221
 Mulliken atomic charges:
              1
     1  O   -0.941528
     2  H    0.470764
     3  H    0.470764
 Sum of Mulliken atomic charges =   0.00000
 Mulliken charges with hydrogens summed into heavy atoms:
              1
     1  O    0.000000
 Sum of Mulliken charges with hydrogens summed into heavy atoms =   0.00000
 Electronic spatial extent (au):  <R**2>=             20.1244
 Charge=              0.0000 electrons
 Dipole moment (field-independent basis, Debye):
    X=              0.0000    Y=              0.0000    Z=             -2.1755  Tot=              2.1755
 Quadrupole moment (field-independent basis, Debye-Ang):
   XX=             -7.9434   YY=             -4.1948   ZZ=             -6.6663
   XY=              0.0000   XZ=              0.0000   YZ=              0.0000
 Traceless Quadrupole moment (field-independent basis, Debye-Ang):
   XX=             -1.6752   YY=              2.0734   ZZ=             -0.3981
   XY=              0.0000   XZ=              0.0000   YZ=              0.0000
 Octapole moment (field-independent basis, Debye-Ang**2):
  XXX=              0.0000  YYY=              0.0000  ZZZ=             -1.5778  XYY=              0.0000
  XXY=              0.0000  XXZ=             -0.4775  XZZ=              0.0000  YZZ=              0.0000
  YYZ=             -1.4218  XYZ=              0.0000
 Hexadecapole moment (field-independent basis, Debye-Ang**3):
 XXXX=             -8.0109 YYYY=             -6.2336 ZZZZ=             -8.1132 XXXY=              0.0000
 XXXZ=              0.0000 YYYX=              0.0000 YYYZ=              0.0000 ZZZX=              0.0000
 ZZZY=              0.0000 XXYY=             -2.6728 XXZZ=             -2.7271 YYZZ=             -2.1392
 XXYZ=              0.0000 YYXZ=              0.0000 ZZXY=              0.0000
 N-N= 9.157115984281D+00 E-N=-1.985866437732D+02  KE= 7.574332645856D+01
 Symmetry A1   KE= 6.765602862343D+01
 Symmetry A2   KE= 7.921736475865D-35
 Symmetry B1   KE= 4.469713157093D+00
 Symmetry B2   KE= 3.617584678044D+00
 Calling FoFJK, ICntrl=      2127 FMM=F ISym2X=1 I1Cent= 0 IOpClX= 0 NMat=1 NMatS=1 NMatT=0.
 ***** Axes restored to original set *****
 -------------------------------------------------------------------
 Center     Atomic                   Forces (Hartrees/Bohr)
 Number     Number              X              Y              Z
 -------------------------------------------------------------------
      1        8          -0.009665609   -0.013676521    0.000000000
      2        1           0.006523647    0.005643291    0.000000000
      3        1           0.003141962    0.008033230    0.000000000
 -------------------------------------------------------------------
 Cartesian Forces:  Max     0.013676521 RMS     0.006906363

 GradGradGradGradGradGradGradGradGradGradGradGradGradGradGradGradGradGrad
 Berny optimization.
 Internal  Forces:  Max     0.010237704 RMS     0.007956685
 Search for a local minimum.
 Step number   1 out of a maximum of   20
 All quantities printed in internal units (Hartrees-Bohrs-Radians)
 Mixed Optimization -- RFO/linear search
 Second derivative matrix not updated -- first step.
 The second derivative matrix:
                          R1        R2        A1
           R1           0.55473
           R2           0.00000   0.55473
           A1           0.00000   0.00000   0.16000
     Eigenvalues ---    0.16000   0.55473   0.55473
 RFO step:  Lambda=-8.05000132D-04 EMin= 1.60000000D-01
 Linear search not attempted -- first point.
 Iteration  1 RMS(Cart)=  0.03197210 RMS(Int)=  0.00078582
 Iteration  2 RMS(Cart)=  0.00079622 RMS(Int)=  0.00000013
 Iteration  3 RMS(Cart)=  0.00000011 RMS(Int)=  0.00000000
 ClnCor:  largest displacement from symmetrization is 4.45D-15 for atom     1.
 Variable       Old X    -DE/DX   Delta X   Delta X   Delta X     New X
                                 (Linear)    (Quad)   (Total)
    R1        1.81414   0.00652   0.00000   0.01174   0.01174   1.82588
    R2        1.81414   0.00652   0.00000   0.01174   0.01174   1.82588
    A1        1.91114  -0.01024   0.00000  -0.06367  -0.06367   1.84747
         Item               Value     Threshold  Converged?
 Maximum Force            0.010238     0.000450     NO 
 RMS     Force            0.007957     0.000300     NO 
 Maximum Displacement     0.030506     0.001800     NO 
 RMS     Displacement     0.032369     0.001200     NO 
 Predicted change in Energy=-4.042425D-04
 GradGradGradGradGradGradGradGradGradGradGradGradGradGradGradGradGradGrad

                          Input orientation:                          
 ---------------------------------------------------------------------
 Center     Atomic      Atomic             Coordinates (Angstroms)
 Number     Number       Type             X           Y           Z
 ---------------------------------------------------------------------
      1          8           0        0.105008    0.955543    0.000000
      2          1           0        1.070733    0.986295    0.000000
      3          1           0       -0.188369    1.876141    0.000000
 ---------------------------------------------------------------------
                    Distance matrix (angstroms):
                    1          2          3
     1  O    0.000000
     2  H    0.966214   0.000000
     3  H    0.966214   1.541805   0.000000
 Stoichiometry    H2O
 Framework group  C2V[C2(O),SGV(H2)]
 Deg. of freedom     2
 Full point group                 C2V     NOp   4
 Largest Abelian subgroup         C2V     NOp   4
 Largest concise Abelian subgroup C2      NOp   2
                         Standard orientation:                         
 ---------------------------------------------------------------------
 Center     Atomic      Atomic             Coordinates (Angstroms)
 Number     Number       Type             X           Y           Z
 ---------------------------------------------------------------------
      1          8           0        0.000000    0.000000    0.116495
      2          1           0        0.000000    0.770902   -0.465981
      3          1           0        0.000000   -0.770902   -0.465981
 ---------------------------------------------------------------------
 Rotational constants (GHZ):    832.1285807    421.8938376    279.9550591
 Standard basis: 6-31+G(d) (6D, 7F)
 There are    12 symmetry adapted basis functions of A1  symmetry.
 There are     1 symmetry adapted basis functions of A2  symmetry.
 There are     4 symmetry adapted basis functions of B1  symmetry.
 There are     6 symmetry adapted basis functions of B2  symmetry.
 Integral buffers will be    262144 words long.
 Raffenetti 2 integral format.
 Two-electron integral symmetry is turned on.
    23 basis functions,    40 primitive gaussians,    23 cartesian basis functions
     5 alpha electrons        5 beta electrons
       nuclear repulsion energy         9.1061171817 Hartrees.
 NAtoms=    3 NActive=    3 NUniq=    2 SFac= 1.69D+00 NAtFMM=   80 NAOKFM=F Big=F
 One-electron integrals computed using PRISM.
 NBasis=    23 RedAO= T  NBF=    12     1     4     6
 NBsUse=    23 1.00D-06 NBFU=    12     1     4     6
 Initial guess read from the read-write file.
 B after Tr=     0.000000    0.000000    0.000000
         Rot=    1.000000    0.000000    0.000000    0.000000 Ang=   0.00 deg.
 Initial guess orbital symmetries:
       Occupied  (A1) (A1) (B2) (A1) (B1)
       Virtual   (A1) (B2) (A1) (B1) (B2) (A1) (B2) (A1) (B2) (B1)
                 (A1) (A1) (A2) (A1) (B1) (A1) (B2) (A1)
 Harris functional with IExCor= 3102 diagonalized for initial guess.
 ExpMin= 8.45D-02 ExpMax= 5.48D+03 ExpMxC= 8.25D+02 IAcc=2 IRadAn=         0 AccDes= 0.00D+00
 HarFok:  IExCor= 3102 AccDes= 0.00D+00 IRadAn=         0 IDoV= 1
 ScaDFX=  1.000000  1.000000  1.000000  1.000000
 FoFCou: FMM=F IPFlag=           0 FMFlag=      100000 FMFlg1=           0
         NFxFlg=           0 DoJE=T BraDBF=F KetDBF=T FulRan=T
         Omega=  0.000000  0.000000  1.000000  0.000000  0.000000 ICntrl=     500 IOpCl=  0
         NMat0=    1 NMatS0=    1 NMatT0=    0 NMatD0=    1 NMtDS0=    0 NMtDT0=    0
         I1Cent=           4 NGrid=           0.
 Petite list used in FoFCou.
 Requested convergence on RMS density matrix=1.00D-08 within 128 cycles.
 Requested convergence on MAX density matrix=1.00D-06.
 Requested convergence on             energy=1.00D-06.
 No special actions if energy rises.
 Keep R1 ints in memory in canonical form, NReq=937885.
 Integral accuracy reduced to 1.0D-05 until final iterations.
 Initial convergence to 1.0D-05 achieved.  Increase integral accuracy.
 SCF Done:  E(RX3LYP) =  -76.3928442297     A.U. after    9 cycles
             Convg  =    0.3309D-08             -V/T =  2.0088
 Calling FoFJK, ICntrl=      2127 FMM=F ISym2X=1 I1Cent= 0 IOpClX= 0 NMat=1 NMatS=1 NMatT=0.
 ***** Axes restored to original set *****
 -------------------------------------------------------------------
 Center     Atomic                   Forces (Hartrees/Bohr)
 Number     Number              X              Y              Z
 -------------------------------------------------------------------
      1        8          -0.001737354   -0.002458300    0.000000000
      2        1           0.002013946    0.000419754    0.000000000
      3        1          -0.000276592    0.002038546    0.000000000
 -------------------------------------------------------------------
 Cartesian Forces:  Max     0.002458300 RMS     0.001395468

 GradGradGradGradGradGradGradGradGradGradGradGradGradGradGradGradGradGrad
 Berny optimization.
 Using GEDIIS/GDIIS optimizer.
 Internal  Forces:  Max     0.002026285 RMS     0.001696355
 Search for a local minimum.
 Step number   2 out of a maximum of   20
 All quantities printed in internal units (Hartrees-Bohrs-Radians)
 Mixed Optimization -- RFO/linear search
 Update second derivatives using D2CorX and points    1    2
 DE= -4.50D-04 DEPred=-4.04D-04 R= 1.11D+00
 SS=  1.41D+00  RLast= 6.58D-02 DXNew= 5.0454D-01 1.9739D-01
 Trust test= 1.11D+00 RLast= 6.58D-02 DXMaxT set to 3.00D-01
 The second derivative matrix:
                          R1        R2        A1
           R1           0.53004
           R2          -0.02470   0.53004
           A1           0.02257   0.02257   0.15894
 Use linear search instead of GDIIS.
     Eigenvalues ---    0.15602   0.50825   0.55473
 RFO step:  Lambda=-9.71442431D-06 EMin= 1.56020283D-01
 Quartic linear search produced a step of  0.12078.
 Iteration  1 RMS(Cart)=  0.00297569 RMS(Int)=  0.00000826
 Iteration  2 RMS(Cart)=  0.00000937 RMS(Int)=  0.00000000
 Iteration  3 RMS(Cart)=  0.00000000 RMS(Int)=  0.00000000
 ClnCor:  largest displacement from symmetrization is 3.96D-15 for atom     1.
 Variable       Old X    -DE/DX   Delta X   Delta X   Delta X     New X
                                 (Linear)    (Quad)   (Total)
    R1        1.82588   0.00203   0.00142   0.00280   0.00422   1.83010
    R2        1.82588   0.00203   0.00142   0.00280   0.00422   1.83010
    A1        1.84747  -0.00065  -0.00769   0.00263  -0.00506   1.84241
         Item               Value     Threshold  Converged?
 Maximum Force            0.002026     0.000450     NO 
 RMS     Force            0.001696     0.000300     NO 
 Maximum Displacement     0.003395     0.001800     NO 
 RMS     Displacement     0.002977     0.001200     NO 
 Predicted change in Energy=-1.031562D-05
 GradGradGradGradGradGradGradGradGradGradGradGradGradGradGradGradGradGrad

                          Input orientation:                          
 ---------------------------------------------------------------------
 Center     Atomic      Atomic             Coordinates (Angstroms)
 Number     Number       Type             X           Y           Z
 ---------------------------------------------------------------------
      1          8           0        0.103738    0.953747    0.000000
      2          1           0        1.071615    0.987018    0.000000
      3          1           0       -0.187982    1.877214    0.000000
 ---------------------------------------------------------------------
                    Distance matrix (angstroms):
                    1          2          3
     1  O    0.000000
     2  H    0.968449   0.000000
     3  H    0.968449   1.542412   0.000000
 Stoichiometry    H2O
 Framework group  C2V[C2(O),SGV(H2)]
 Deg. of freedom     2
 Full point group                 C2V     NOp   4
 Largest Abelian subgroup         C2V     NOp   4
 Largest concise Abelian subgroup C2      NOp   2
                         Standard orientation:                         
 ---------------------------------------------------------------------
 Center     Atomic      Atomic             Coordinates (Angstroms)
 Number     Number       Type             X           Y           Z
 ---------------------------------------------------------------------
      1          8           0        0.000000    0.000000    0.117155
      2          1           0        0.000000    0.771206   -0.468621
      3          1           0        0.000000   -0.771206   -0.468621
 ---------------------------------------------------------------------
 Rotational constants (GHZ):    822.7800698    421.5617537    278.7438327
 Standard basis: 6-31+G(d) (6D, 7F)
 There are    12 symmetry adapted basis functions of A1  symmetry.
 There are     1 symmetry adapted basis functions of A2  symmetry.
 There are     4 symmetry adapted basis functions of B1  symmetry.
 There are     6 symmetry adapted basis functions of B2  symmetry.
 Integral buffers will be    262144 words long.
 Raffenetti 2 integral format.
 Two-electron integral symmetry is turned on.
    23 basis functions,    40 primitive gaussians,    23 cartesian basis functions
     5 alpha electrons        5 beta electrons
       nuclear repulsion energy         9.0857631303 Hartrees.
 NAtoms=    3 NActive=    3 NUniq=    2 SFac= 1.69D+00 NAtFMM=   80 NAOKFM=F Big=F
 One-electron integrals computed using PRISM.
 NBasis=    23 RedAO= T  NBF=    12     1     4     6
 NBsUse=    23 1.00D-06 NBFU=    12     1     4     6
 Initial guess read from the read-write file.
 B after Tr=     0.000000    0.000000    0.000000
         Rot=    1.000000    0.000000    0.000000    0.000000 Ang=   0.00 deg.
 Initial guess orbital symmetries:
       Occupied  (A1) (A1) (B2) (A1) (B1)
       Virtual   (A1) (B2) (A1) (B1) (B2) (A1) (B2) (A1) (B2) (B1)
                 (A1) (A1) (A1) (A2) (B1) (A1) (B2) (A1)
 Requested convergence on RMS density matrix=1.00D-08 within 128 cycles.
 Requested convergence on MAX density matrix=1.00D-06.
 Requested convergence on             energy=1.00D-06.
 No special actions if energy rises.
 Keep R1 ints in memory in canonical form, NReq=937885.
 SCF Done:  E(RX3LYP) =  -76.3928544519     A.U. after    7 cycles
             Convg  =    0.7842D-09             -V/T =  2.0089
 Calling FoFJK, ICntrl=      2127 FMM=F ISym2X=1 I1Cent= 0 IOpClX= 0 NMat=1 NMatS=1 NMatT=0.
 ***** Axes restored to original set *****
 -------------------------------------------------------------------
 Center     Atomic                   Forces (Hartrees/Bohr)
 Number     Number              X              Y              Z
 -------------------------------------------------------------------
      1        8          -0.000011303   -0.000015993    0.000000000
      2        1          -0.000015520    0.000022959    0.000000000
      3        1           0.000026823   -0.000006966    0.000000000
 -------------------------------------------------------------------
 Cartesian Forces:  Max     0.000026823 RMS     0.000014604

 GradGradGradGradGradGradGradGradGradGradGradGradGradGradGradGradGradGrad
 Berny optimization.
 Using GEDIIS/GDIIS optimizer.
 Internal  Forces:  Max     0.000042968 RMS     0.000027567
 Search for a local minimum.
 Step number   3 out of a maximum of   20
 All quantities printed in internal units (Hartrees-Bohrs-Radians)
 Mixed Optimization -- En-DIIS/RFO-DIIS
 Update second derivatives using D2CorX and points    1    2    3
 DE= -1.02D-05 DEPred=-1.03D-05 R= 9.91D-01
 SS=  1.41D+00  RLast= 7.83D-03 DXNew= 5.0454D-01 2.3480D-02
 Trust test= 9.91D-01 RLast= 7.83D-03 DXMaxT set to 3.00D-01
 The second derivative matrix:
                          R1        R2        A1
           R1           0.53281
           R2          -0.02192   0.53281
           A1           0.02299   0.02299   0.15817
 Use linear search instead of GDIIS.
     Eigenvalues ---    0.15520   0.51386   0.55473
 RFO step:  Lambda=-1.15502809D-08 EMin= 1.55196530D-01
 Quartic linear search produced a step of  0.00461.
 Iteration  1 RMS(Cart)=  0.00015774 RMS(Int)=  0.00000001
 Iteration  2 RMS(Cart)=  0.00000001 RMS(Int)=  0.00000000
 ClnCor:  largest displacement from symmetrization is 1.09D-15 for atom     1.
 Variable       Old X    -DE/DX   Delta X   Delta X   Delta X     New X
                                 (Linear)    (Quad)   (Total)
    R1        1.83010  -0.00001   0.00002  -0.00004  -0.00002   1.83009
    R2        1.83010  -0.00001   0.00002  -0.00004  -0.00002   1.83009
    A1        1.84241  -0.00004  -0.00002  -0.00024  -0.00027   1.84214
         Item               Value     Threshold  Converged?
 Maximum Force            0.000043     0.000450     YES
 RMS     Force            0.000028     0.000300     YES
 Maximum Displacement     0.000167     0.001800     YES
 RMS     Displacement     0.000158     0.001200     YES
 Predicted change in Energy=-5.978969D-09
 Optimization completed.
    -- Stationary point found.
                           ----------------------------
                           !   Optimized Parameters   !
                           ! (Angstroms and Degrees)  !
 --------------------------                            --------------------------
 ! Name  Definition              Value          Derivative Info.                !
 --------------------------------------------------------------------------------
 ! R1    R(1,2)                  0.9684         -DE/DX =    0.0                 !
 ! R2    R(1,3)                  0.9684         -DE/DX =    0.0                 !
 ! A1    A(2,1,3)              105.5624         -DE/DX =    0.0                 !
 --------------------------------------------------------------------------------
 GradGradGradGradGradGradGradGradGradGradGradGradGradGradGradGradGradGrad

                          Input orientation:                          
 ---------------------------------------------------------------------
 Center     Atomic      Atomic             Coordinates (Angstroms)
 Number     Number       Type             X           Y           Z
 ---------------------------------------------------------------------
      1          8           0        0.103738    0.953747    0.000000
      2          1           0        1.071615    0.987018    0.000000
      3          1           0       -0.187982    1.877214    0.000000
 ---------------------------------------------------------------------
                    Distance matrix (angstroms):
                    1          2          3
     1  O    0.000000
     2  H    0.968449   0.000000
     3  H    0.968449   1.542412   0.000000
 Stoichiometry    H2O
 Framework group  C2V[C2(O),SGV(H2)]
 Deg. of freedom     2
 Full point group                 C2V     NOp   4
 Largest Abelian subgroup         C2V     NOp   4
 Largest concise Abelian subgroup C2      NOp   2
                         Standard orientation:                         
 ---------------------------------------------------------------------
 Center     Atomic      Atomic             Coordinates (Angstroms)
 Number     Number       Type             X           Y           Z
 ---------------------------------------------------------------------
      1          8           0        0.000000    0.000000    0.117155
      2          1           0        0.000000    0.771206   -0.468621
      3          1           0        0.000000   -0.771206   -0.468621
 ---------------------------------------------------------------------
 Rotational constants (GHZ):    822.7800698    421.5617537    278.7438327

 **********************************************************************

            Population analysis using the SCF density.

 **********************************************************************

 Orbital symmetries:
       Occupied  (A1) (A1) (B2) (A1) (B1)
       Virtual   (A1) (B2) (A1) (B1) (B2) (A1) (B2) (A1) (B2) (B1)
                 (A1) (A1) (A1) (A2) (B1) (A1) (B2) (A1)
 The electronic state is 1-A1.
 Alpha  occ. eigenvalues --  -19.19919  -1.02877  -0.54681  -0.39808  -0.32261
 Alpha virt. eigenvalues --    0.02586   0.11348   0.15477   0.15498   0.20599
 Alpha virt. eigenvalues --    0.24165   0.95363   1.03818   1.11785   1.12037
 Alpha virt. eigenvalues --    1.14974   1.24861   1.72020   1.72849   1.76606
 Alpha virt. eigenvalues --    2.28033   2.64665   3.68495
          Condensed to atoms (all electrons):
              1          2          3
     1  O    8.474409   0.228439   0.228439
     2  H    0.228439   0.328395  -0.022478
     3  H    0.228439  -0.022478   0.328395
 Mulliken atomic charges:
              1
     1  O   -0.931288
     2  H    0.465644
     3  H    0.465644
 Sum of Mulliken atomic charges =   0.00000
 Mulliken charges with hydrogens summed into heavy atoms:
              1
     1  O    0.000000
 Sum of Mulliken charges with hydrogens summed into heavy atoms =   0.00000
 Electronic spatial extent (au):  <R**2>=             20.2266
 Charge=              0.0000 electrons
 Dipole moment (field-independent basis, Debye):
    X=              0.0000    Y=              0.0000    Z=             -2.2507  Tot=              2.2507
 Quadrupole moment (field-independent basis, Debye-Ang):
   XX=             -7.9549   YY=             -4.3561   ZZ=             -6.5440
   XY=              0.0000   XZ=              0.0000   YZ=              0.0000
 Traceless Quadrupole moment (field-independent basis, Debye-Ang):
   XX=             -1.6699   YY=              1.9289   ZZ=             -0.2590
   XY=              0.0000   XZ=              0.0000   YZ=              0.0000
 Octapole moment (field-independent basis, Debye-Ang**2):
  XXX=              0.0000  YYY=              0.0000  ZZZ=             -1.6517  XYY=              0.0000
  XXY=              0.0000  XXZ=             -0.4918  XZZ=              0.0000  YZZ=              0.0000
  YYZ=             -1.4338  XYZ=              0.0000
 Hexadecapole moment (field-independent basis, Debye-Ang**3):
 XXXX=             -8.0135 YYYY=             -6.4341 ZZZZ=             -8.1382 XXXY=              0.0000
 XXXZ=              0.0000 YYYX=              0.0000 YYYZ=              0.0000 ZZZX=              0.0000
 ZZZY=              0.0000 XXYY=             -2.6814 XXZZ=             -2.7412 YYZZ=             -2.1198
 XXYZ=              0.0000 YYXZ=              0.0000 ZZXY=              0.0000
 N-N= 9.085763130304D+00 E-N=-1.984311912141D+02  KE= 7.572238216941D+01
 Symmetry A1   KE= 6.763612714803D+01
 Symmetry A2   KE= 9.446901124305D-35
 Symmetry B1   KE= 4.474245879837D+00
 Symmetry B2   KE= 3.612009141542D+00
 1|1|UNPC-WST-PGHS-011|FOpt|RX3LYP|6-31+G(d)|H2O1|214584429|09-Sep-2015
 |0||# opt freq x3lyp/6-31+g(d) geom=connectivity||Title Card Required|
 |0,1|O,0.1037384912,0.9537468721,0.|H,1.071615413,0.9870183387,0.|H,-0
 .1879824036,1.8772140592,0.||Version=IA32W-G09RevA.02|State=1-A1|HF=-7
 6.3928545|RMSD=7.842e-010|RMSF=1.460e-005|Dipole=0.5110627,0.7231369,0
 .|Quadrupole=0.892269,0.3492938,-1.2415628,-0.7666574,0.,0.|PG=C02V [C
 2(O1),SGV(H2)]||@


 BUT 'GLORY' DOESN'T MEAN 'A NICE KNOCK DOWN ARGUMENT', ALICE OBJECTED.
 WHEN I USE A WORD, HUMPTY DUMPTY SAID, IN A RATHER SCORNFUL TONE,
 IT MEANS JUST WHAT I CHOOSE IT TO MEAN....
 NEITHER MORE NOR LESS....
 THE QUESTION IS, SAID ALICE,
 WHETHER YOU CAN MAKE WORDS MEAN SO MANY DIFFERENT THINGS...
 THE QUESTION IS, SAID HUMPTY DUMPTY,
 WHICH IS TO BE MASTER....
 THAT IS ALL.....

 ALICE THROUGH THE LOOKING GLASS
 Job cpu time:  0 days  0 hours  0 minutes  4.0 seconds.
 File lengths (MBytes):  RWF=      5 Int=      0 D2E=      0 Chk=      1 Scr=      1
 Normal termination of Gaussian 09 at Wed Sep 09 19:02:42 2015.
 Link1:  Proceeding to internal job step number  2.
 ---------------------------------------------------------------------
 #N Geom=AllCheck Guess=TCheck SCRF=Check GenChk RX3LYP/6-31+G(d) Freq
 ---------------------------------------------------------------------
 1/10=4,29=7,30=1,38=1,40=1/1,3;
 2/12=2,40=1/2;
 3/5=1,6=6,7=11,11=2,14=-4,16=1,25=1,30=1,70=2,71=2,74=-33,116=1/1,2,3;
 4/5=101/1;
 5/5=2,98=1/2;
 8/6=4,10=90,11=11/1;
 11/6=1,8=1,9=11,15=111,16=1/1,2,10;
 10/6=1/2;
 6/7=2,8=2,9=2,10=2,18=1,28=1/1;
 7/8=1,10=1,25=1/1,2,3,16;
 1/10=4,30=1/3;
 99//99;
 -------------------
 Title Card Required
 -------------------
 Redundant internal coordinates taken from checkpoint file:
 C:\Users\214584429\Desktop\Test 2\h2o.chk
 Charge =  0 Multiplicity = 1
 O,0,0.1037384912,0.9537468721,0.
 H,0,1.071615413,0.9870183387,0.
 H,0,-0.1879824036,1.8772140592,0.
 Recover connectivity data from disk.

 GradGradGradGradGradGradGradGradGradGradGradGradGradGradGradGradGradGrad
 Berny optimization.
 Initialization pass.
                           ----------------------------
                           !    Initial Parameters    !
                           ! (Angstroms and Degrees)  !
 --------------------------                            --------------------------
 ! Name  Definition              Value          Derivative Info.                !
 --------------------------------------------------------------------------------
 ! R1    R(1,2)                  0.9684         calculate D2E/DX2 analytically  !
 ! R2    R(1,3)                  0.9684         calculate D2E/DX2 analytically  !
 ! A1    A(2,1,3)              105.5624         calculate D2E/DX2 analytically  !
 --------------------------------------------------------------------------------
 Trust Radius=3.00D-01 FncErr=1.00D-07 GrdErr=1.00D-07
 Number of steps in this run=   2 maximum allowed number of steps=   2.
 GradGradGradGradGradGradGradGradGradGradGradGradGradGradGradGradGradGrad

                          Input orientation:                          
 ---------------------------------------------------------------------
 Center     Atomic      Atomic             Coordinates (Angstroms)
 Number     Number       Type             X           Y           Z
 ---------------------------------------------------------------------
      1          8           0        0.103738    0.953747    0.000000
      2          1           0        1.071615    0.987018    0.000000
      3          1           0       -0.187982    1.877214    0.000000
 ---------------------------------------------------------------------
                    Distance matrix (angstroms):
                    1          2          3
     1  O    0.000000
     2  H    0.968449   0.000000
     3  H    0.968449   1.542412   0.000000
 Stoichiometry    H2O
 Framework group  C2V[C2(O),SGV(H2)]
 Deg. of freedom     2
 Full point group                 C2V     NOp   4
 Largest Abelian subgroup         C2V     NOp   4
 Largest concise Abelian subgroup C2      NOp   2
                         Standard orientation:                         
 ---------------------------------------------------------------------
 Center     Atomic      Atomic             Coordinates (Angstroms)
 Number     Number       Type             X           Y           Z
 ---------------------------------------------------------------------
      1          8           0        0.000000    0.000000    0.117155
      2          1           0        0.000000    0.771206   -0.468621
      3          1           0        0.000000   -0.771206   -0.468621
 ---------------------------------------------------------------------
 Rotational constants (GHZ):    822.7800698    421.5617537    278.7438327
 Standard basis: 6-31+G(d) (6D, 7F)
 There are    12 symmetry adapted basis functions of A1  symmetry.
 There are     1 symmetry adapted basis functions of A2  symmetry.
 There are     4 symmetry adapted basis functions of B1  symmetry.
 There are     6 symmetry adapted basis functions of B2  symmetry.
 Integral buffers will be    262144 words long.
 Raffenetti 2 integral format.
 Two-electron integral symmetry is turned on.
    23 basis functions,    40 primitive gaussians,    23 cartesian basis functions
     5 alpha electrons        5 beta electrons
       nuclear repulsion energy         9.0857631303 Hartrees.
 NAtoms=    3 NActive=    3 NUniq=    2 SFac= 1.69D+00 NAtFMM=   80 NAOKFM=F Big=F
 One-electron integrals computed using PRISM.
 NBasis=    23 RedAO= T  NBF=    12     1     4     6
 NBsUse=    23 1.00D-06 NBFU=    12     1     4     6
 Initial guess read from the checkpoint file:  C:\Users\214584429\Desktop\Test 2\
 h2o.chk
 B after Tr=     0.000000    0.000000    0.000000
         Rot=    1.000000    0.000000    0.000000    0.000000 Ang=   0.00 deg.
 Initial guess orbital symmetries:
       Occupied  (A1) (A1) (B2) (A1) (B1)
       Virtual   (A1) (B2) (A1) (B1) (B2) (A1) (B2) (A1) (B2) (B1)
                 (A1) (A1) (A1) (A2) (B1) (A1) (B2) (A1)
 Requested convergence on RMS density matrix=1.00D-08 within 128 cycles.
 Requested convergence on MAX density matrix=1.00D-06.
 Requested convergence on             energy=1.00D-06.
 No special actions if energy rises.
 Keep R1 ints in memory in canonical form, NReq=937885.
 SCF Done:  E(RX3LYP) =  -76.3928544519     A.U. after    1 cycles
             Convg  =    0.3295D-10             -V/T =  2.0089
 Range of M.O.s used for correlation:     1    23
 NBasis=    23 NAE=     5 NBE=     5 NFC=     0 NFV=     0
 NROrb=     23 NOA=     5 NOB=     5 NVA=    18 NVB=    18
 Symmetrizing basis deriv contribution to polar:
 IMax=3 JMax=2 DiffMx= 0.00D+00
 G2DrvN: will do     4 centers at a time, making    1 passes doing MaxLOS=2.
 Calling FoFCou, ICntrl=  3107 FMM=F I1Cent=   0 AccDes= 0.00D+00.
 FoFDir/FoFCou used for L=0 through L=2.
 End of G2Drv Frequency-dependent properties file   721 does not exist.
 End of G2Drv Frequency-dependent properties file   722 does not exist.
          IDoAtm=111
          Differentiating once with respect to electric field.
                with respect to dipole field.
          Differentiating once with respect to nuclear coordinates.
          Keep R1 ints in memory in canonical form, NReq=858963.
          There are     9 degrees of freedom in the 1st order CPHF.  IDoFFX=4.
      9 vectors produced by pass  0 Test12= 1.00D-15 1.11D-08 XBig12= 3.38D+00 1.34D+00.
 AX will form     9 AO Fock derivatives at one time.
      9 vectors produced by pass  1 Test12= 1.00D-15 1.11D-08 XBig12= 3.82D-01 2.28D-01.
      9 vectors produced by pass  2 Test12= 1.00D-15 1.11D-08 XBig12= 3.59D-03 2.63D-02.
      9 vectors produced by pass  3 Test12= 1.00D-15 1.11D-08 XBig12= 9.19D-06 1.57D-03.
      8 vectors produced by pass  4 Test12= 1.00D-15 1.11D-08 XBig12= 9.48D-09 3.90D-05.
      4 vectors produced by pass  5 Test12= 1.00D-15 1.11D-08 XBig12= 6.33D-12 1.26D-06.
      1 vectors produced by pass  6 Test12= 1.00D-15 1.11D-08 XBig12= 3.06D-15 2.43D-08.
 Inverted reduced A of dimension    49 with in-core refinement.
 Isotropic polarizability for W=    0.000000        6.90 Bohr**3.
 End of Minotr Frequency-dependent properties file   721 does not exist.
 End of Minotr Frequency-dependent properties file   722 does not exist.

 **********************************************************************

            Population analysis using the SCF density.

 **********************************************************************

 Orbital symmetries:
       Occupied  (A1) (A1) (B2) (A1) (B1)
       Virtual   (A1) (B2) (A1) (B1) (B2) (A1) (B2) (A1) (B2) (B1)
                 (A1) (A1) (A1) (A2) (B1) (A1) (B2) (A1)
 The electronic state is 1-A1.
 Alpha  occ. eigenvalues --  -19.19919  -1.02877  -0.54681  -0.39808  -0.32261
 Alpha virt. eigenvalues --    0.02586   0.11348   0.15477   0.15498   0.20599
 Alpha virt. eigenvalues --    0.24165   0.95363   1.03818   1.11785   1.12037
 Alpha virt. eigenvalues --    1.14974   1.24861   1.72020   1.72849   1.76606
 Alpha virt. eigenvalues --    2.28033   2.64665   3.68495
          Condensed to atoms (all electrons):
              1          2          3
     1  O    8.474409   0.228439   0.228439
     2  H    0.228439   0.328395  -0.022478
     3  H    0.228439  -0.022478   0.328395
 Mulliken atomic charges:
              1
     1  O   -0.931288
     2  H    0.465644
     3  H    0.465644
 Sum of Mulliken atomic charges =   0.00000
 Mulliken charges with hydrogens summed into heavy atoms:
              1
     1  O    0.000000
 Sum of Mulliken charges with hydrogens summed into heavy atoms =   0.00000
 APT atomic charges:
              1
     1  O   -0.580008
     2  H    0.290004
     3  H    0.290004
 Sum of APT charges=   0.00000
 APT Atomic charges with hydrogens summed into heavy atoms:
              1
     1  O    0.000000
     2  H    0.000000
     3  H    0.000000
 Sum of APT charges=   0.00000
 Electronic spatial extent (au):  <R**2>=             20.2266
 Charge=              0.0000 electrons
 Dipole moment (field-independent basis, Debye):
    X=              0.0000    Y=              0.0000    Z=             -2.2507  Tot=              2.2507
 Quadrupole moment (field-independent basis, Debye-Ang):
   XX=             -7.9549   YY=             -4.3561   ZZ=             -6.5440
   XY=              0.0000   XZ=              0.0000   YZ=              0.0000
 Traceless Quadrupole moment (field-independent basis, Debye-Ang):
   XX=             -1.6699   YY=              1.9289   ZZ=             -0.2590
   XY=              0.0000   XZ=              0.0000   YZ=              0.0000
 Octapole moment (field-independent basis, Debye-Ang**2):
  XXX=              0.0000  YYY=              0.0000  ZZZ=             -1.6517  XYY=              0.0000
  XXY=              0.0000  XXZ=             -0.4918  XZZ=              0.0000  YZZ=              0.0000
  YYZ=             -1.4338  XYZ=              0.0000
 Hexadecapole moment (field-independent basis, Debye-Ang**3):
 XXXX=             -8.0135 YYYY=             -6.4341 ZZZZ=             -8.1382 XXXY=              0.0000
 XXXZ=              0.0000 YYYX=              0.0000 YYYZ=              0.0000 ZZZX=              0.0000
 ZZZY=              0.0000 XXYY=             -2.6814 XXZZ=             -2.7412 YYZZ=             -2.1198
 XXYZ=              0.0000 YYXZ=              0.0000 ZZXY=              0.0000
 N-N= 9.085763130304D+00 E-N=-1.984311912235D+02  KE= 7.572238217381D+01
 Symmetry A1   KE= 6.763612714863D+01
 Symmetry A2   KE= 9.446901131096D-35
 Symmetry B1   KE= 4.474245881459D+00
 Symmetry B2   KE= 3.612009143718D+00
  Exact polarizability:   6.522   0.000   7.734   0.000   0.000   6.452
 Approx polarizability:   6.570   0.000   9.410   0.000   0.000   7.387
 Calling FoFJK, ICntrl=    100127 FMM=F ISym2X=1 I1Cent= 0 IOpClX= 0 NMat=1 NMatS=1 NMatT=0.
 Full mass-weighted force constant matrix:
 Low frequencies ---  -52.3214  -41.2454  -12.8307    0.0022    0.0023    0.0027
 Low frequencies --- 1663.9993 3744.5152 3868.6728
 Diagonal vibrational polarizability:
        0.0000000       0.0987645       0.9722832
 Harmonic frequencies (cm**-1), IR intensities (KM/Mole), Raman scattering
 activities (A**4/AMU), depolarization ratios for plane and unpolarized
 incident light, reduced masses (AMU), force constants (mDyne/A),
 and normal coordinates:
                     1                      2                      3
                    A1                     A1                     B2
 Frequencies --  1663.9993              3744.5152              3868.6728
 Red. masses --     1.0834                 1.0445                 1.0829
 Frc consts  --     1.7674                 8.6287                 9.5492
 IR Inten    --    98.7423                 6.5625                54.9277
  Atom  AN      X      Y      Z        X      Y      Z        X      Y      Z
     1   8     0.00   0.00   0.07     0.00   0.00   0.05     0.00   0.07   0.00
     2   1     0.00  -0.42  -0.56     0.00   0.59  -0.39     0.00  -0.56   0.43
     3   1     0.00   0.42  -0.56     0.00  -0.59  -0.39     0.00  -0.56  -0.43

 -------------------
 - Thermochemistry -
 -------------------
 Temperature   298.150 Kelvin.  Pressure   1.00000 Atm.
 Atom     1 has atomic number  8 and mass  15.99491
 Atom     2 has atomic number  1 and mass   1.00783
 Atom     3 has atomic number  1 and mass   1.00783
 Molecular mass:    18.01056 amu.
 Principal axes and moments of inertia in atomic units:
                           1         2         3
     Eigenvalues --     2.19347   4.28108   6.47455
           X            0.00000   0.00000   1.00000
           Y            1.00000   0.00000   0.00000
           Z            0.00000   1.00000   0.00000
 This molecule is an asymmetric top.
 Rotational symmetry number  2.
 Rotational temperatures (Kelvin)     39.48717    20.23175    13.37758
 Rotational constants (GHZ):         822.78007   421.56175   278.74383
 Zero-point vibrational energy      55489.9 (Joules/Mol)
                                   13.26241 (Kcal/Mol)
 Vibrational temperatures:   2394.12  5387.52  5566.15
          (Kelvin)
 
 Zero-point correction=                           0.021135 (Hartree/Particle)
 Thermal correction to Energy=                    0.023970
 Thermal correction to Enthalpy=                  0.024914
 Thermal correction to Gibbs Free Energy=         0.003476
 Sum of electronic and zero-point Energies=            -76.371719
 Sum of electronic and thermal Energies=               -76.368884
 Sum of electronic and thermal Enthalpies=             -76.367940
 Sum of electronic and thermal Free Energies=          -76.389379
 
                     E (Thermal)             CV                S
                      KCal/Mol        Cal/Mol-Kelvin    Cal/Mol-Kelvin
 Total                   15.041              6.003             45.121
 Electronic               0.000              0.000              0.000
 Translational            0.889              2.981             34.608
 Rotational               0.889              2.981             10.507
 Vibrational             13.264              0.042              0.006
                       Q            Log10(Q)             Ln(Q)
 Total Bot       0.251914D-01         -1.598747         -3.681252
 Total V=0       0.132633D+09          8.122651         18.703096
 Vib (Bot)       0.189995D-09         -9.721257        -22.384022
 Vib (V=0)       0.100033D+01          0.000141          0.000326
 Electronic      0.100000D+01          0.000000          0.000000
 Translational   0.300432D+07          6.477746         14.915562
 Rotational      0.441330D+02          1.644764          3.787208
 ***** Axes restored to original set *****
 -------------------------------------------------------------------
 Center     Atomic                   Forces (Hartrees/Bohr)
 Number     Number              X              Y              Z
 -------------------------------------------------------------------
      1        8          -0.000011303   -0.000015993    0.000000000
      2        1          -0.000015520    0.000022959    0.000000000
      3        1           0.000026823   -0.000006966    0.000000000
 -------------------------------------------------------------------
 Cartesian Forces:  Max     0.000026823 RMS     0.000014604

 GradGradGradGradGradGradGradGradGradGradGradGradGradGradGradGradGradGrad
 Berny optimization.
 Internal  Forces:  Max     0.000042968 RMS     0.000027567
 Search for a local minimum.
 Step number   1 out of a maximum of    2
 All quantities printed in internal units (Hartrees-Bohrs-Radians)
 Second derivative matrix not updated -- analytic derivatives used.
 The second derivative matrix:
                          R1        R2        A1
           R1           0.52070
           R2          -0.00784   0.52070
           A1           0.02796   0.02796   0.16680
     Eigenvalues ---    0.16234   0.51733   0.52854
 Angle between quadratic step and forces=  21.07 degrees.
 Linear search not attempted -- first point.
 Iteration  1 RMS(Cart)=  0.00014883 RMS(Int)=  0.00000001
 Iteration  2 RMS(Cart)=  0.00000001 RMS(Int)=  0.00000000
 ClnCor:  largest displacement from symmetrization is 4.12D-15 for atom     3.
 Variable       Old X    -DE/DX   Delta X   Delta X   Delta X     New X
                                 (Linear)    (Quad)   (Total)
    R1        1.83010  -0.00001   0.00000  -0.00001  -0.00001   1.83009
    R2        1.83010  -0.00001   0.00000  -0.00001  -0.00001   1.83009
    A1        1.84241  -0.00004   0.00000  -0.00025  -0.00025   1.84216
         Item               Value     Threshold  Converged?
 Maximum Force            0.000043     0.000450     YES
 RMS     Force            0.000028     0.000300     YES
 Maximum Displacement     0.000158     0.001800     YES
 RMS     Displacement     0.000149     0.001200     YES
 Predicted change in Energy=-5.646795D-09
 Optimization completed.
    -- Stationary point found.
                           ----------------------------
                           !   Optimized Parameters   !
                           ! (Angstroms and Degrees)  !
 --------------------------                            --------------------------
 ! Name  Definition              Value          Derivative Info.                !
 --------------------------------------------------------------------------------
 ! R1    R(1,2)                  0.9684         -DE/DX =    0.0                 !
 ! R2    R(1,3)                  0.9684         -DE/DX =    0.0                 !
 ! A1    A(2,1,3)              105.5624         -DE/DX =    0.0                 !
 --------------------------------------------------------------------------------
 GradGradGradGradGradGradGradGradGradGradGradGradGradGradGradGradGradGrad

 1|1|UNPC-WST-PGHS-011|Freq|RX3LYP|6-31+G(d)|H2O1|214584429|09-Sep-2015
 |0||#N Geom=AllCheck Guess=TCheck SCRF=Check GenChk RX3LYP/6-31+G(d) F
 req||Title Card Required||0,1|O,0.1037384912,0.9537468721,0.|H,1.07161
 5413,0.9870183387,0.|H,-0.1879824036,1.8772140592,0.||Version=IA32W-G0
 9RevA.02|State=1-A1|HF=-76.3928545|RMSD=3.295e-011|RMSF=1.460e-005|Zer
 oPoint=0.021135|Thermal=0.02397|Dipole=0.5110627,0.7231369,0.|DipoleDe
 riv=-0.4897935,0.055822,0.,0.055822,-0.4502583,0.,0.,0.,-0.7999714,0.1
 572251,-0.049163,0.,-0.0687513,0.3128008,0.,0.,0.,0.3999857,0.3325684,
 -0.006659,0.,0.0129293,0.1374575,0.,0.,0.,0.3999857|Polar=7.3070297,-0
 .6043127,6.879033,0.,0.,6.521739|PG=C02V [C2(O1),SGV(H2)]|NImag=0||0.5
 9448155,-0.10722802,0.51853868,0.,0.,-0.00011524,-0.50720739,0.0111450
 3,0.,0.52121868,-0.05262317,-0.04930273,0.,0.00096837,0.04931168,0.,0.
 ,0.00005762,0.,0.,-0.00008101,-0.08727416,0.09608299,0.,-0.01401130,0.
 05165480,0.,0.10128546,0.15985119,-0.46923595,0.,-0.01211340,-0.000008
 95,0.,-0.14773778,0.46924491,0.,0.,0.00005762,0.,0.,0.00002339,0.,0.,-
 0.00008101||0.00001130,0.00001599,0.,0.00001552,-0.00002296,0.,-0.0000
 2682,0.00000697,0.|||@


 BUT 'GLORY' DOESN'T MEAN 'A NICE KNOCK DOWN ARGUMENT', ALICE OBJECTED.
 WHEN I USE A WORD, HUMPTY DUMPTY SAID, IN A RATHER SCORNFUL TONE,
 IT MEANS JUST WHAT I CHOOSE IT TO MEAN....
 NEITHER MORE NOR LESS....
 THE QUESTION IS, SAID ALICE,
 WHETHER YOU CAN MAKE WORDS MEAN SO MANY DIFFERENT THINGS...
 THE QUESTION IS, SAID HUMPTY DUMPTY,
 WHICH IS TO BE MASTER....
 THAT IS ALL.....

 ALICE THROUGH THE LOOKING GLASS
 Job cpu time:  0 days  0 hours  0 minutes  2.0 seconds.
 File lengths (MBytes):  RWF=      5 Int=      0 D2E=      0 Chk=      1 Scr=      1
 Normal termination of Gaussian 09 at Wed Sep 09 19:02:44 2015.
