 Entering Gaussian System, Link 0=g09
 Input=h2o-xcpcm.com
 Output=h2o-xcpcm.log
 Initial command:
 /apps/gaussian/g09/l1.exe "/data/sawal/gaussian/Gau-17909.inp" -scrdir="/data/sawal/gaussian/"
 Entering Link 1 = /apps/gaussian/g09/l1.exe PID=     17910.
  
 Copyright (c) 1988,1990,1992,1993,1995,1998,2003,2009,2013,
            Gaussian, Inc.  All Rights Reserved.
  
 This is part of the Gaussian(R) 09 program.  It is based on
 the Gaussian(R) 03 system (copyright 2003, Gaussian, Inc.),
 the Gaussian(R) 98 system (copyright 1998, Gaussian, Inc.),
 the Gaussian(R) 94 system (copyright 1995, Gaussian, Inc.),
 the Gaussian 92(TM) system (copyright 1992, Gaussian, Inc.),
 the Gaussian 90(TM) system (copyright 1990, Gaussian, Inc.),
 the Gaussian 88(TM) system (copyright 1988, Gaussian, Inc.),
 the Gaussian 86(TM) system (copyright 1986, Carnegie Mellon
 University), and the Gaussian 82(TM) system (copyright 1983,
 Carnegie Mellon University). Gaussian is a federally registered
 trademark of Gaussian, Inc.
  
 This software contains proprietary and confidential information,
 including trade secrets, belonging to Gaussian, Inc.
  
 This software is provided under written license and may be
 used, copied, transmitted, or stored only in accord with that
 written license.
  
 The following legend is applicable only to US Government
 contracts under FAR:
  
                    RESTRICTED RIGHTS LEGEND
  
 Use, reproduction and disclosure by the US Government is
 subject to restrictions as set forth in subparagraphs (a)
 and (c) of the Commercial Computer Software - Restricted
 Rights clause in FAR 52.227-19.
  
 Gaussian, Inc.
 340 Quinnipiac St., Bldg. 40, Wallingford CT 06492
  
  
 ---------------------------------------------------------------
 Warning -- This program may not be used in any manner that
 competes with the business of Gaussian, Inc. or will provide
 assistance to any competitor of Gaussian, Inc.  The licensee
 of this program is prohibited from giving any competitor of
 Gaussian, Inc. access to this program.  By using this program,
 the user acknowledges that Gaussian, Inc. is engaged in the
 business of creating and licensing software in the field of
 computational chemistry and represents and warrants to the
 licensee that it is not a competitor of Gaussian, Inc. and that
 it will not use this program in any manner prohibited above.
 ---------------------------------------------------------------
  

 Cite this work as:
 Gaussian 09, Revision D.01,
 M. J. Frisch, G. W. Trucks, H. B. Schlegel, G. E. Scuseria, 
 M. A. Robb, J. R. Cheeseman, G. Scalmani, V. Barone, B. Mennucci, 
 G. A. Petersson, H. Nakatsuji, M. Caricato, X. Li, H. P. Hratchian, 
 A. F. Izmaylov, J. Bloino, G. Zheng, J. L. Sonnenberg, M. Hada, 
 M. Ehara, K. Toyota, R. Fukuda, J. Hasegawa, M. Ishida, T. Nakajima, 
 Y. Honda, O. Kitao, H. Nakai, T. Vreven, J. A. Montgomery, Jr., 
 J. E. Peralta, F. Ogliaro, M. Bearpark, J. J. Heyd, E. Brothers, 
 K. N. Kudin, V. N. Staroverov, T. Keith, R. Kobayashi, J. Normand, 
 K. Raghavachari, A. Rendell, J. C. Burant, S. S. Iyengar, J. Tomasi, 
 M. Cossi, N. Rega, J. M. Millam, M. Klene, J. E. Knox, J. B. Cross, 
 V. Bakken, C. Adamo, J. Jaramillo, R. Gomperts, R. E. Stratmann, 
 O. Yazyev, A. J. Austin, R. Cammi, C. Pomelli, J. W. Ochterski, 
 R. L. Martin, K. Morokuma, V. G. Zakrzewski, G. A. Voth, 
 P. Salvador, J. J. Dannenberg, S. Dapprich, A. D. Daniels, 
 O. Farkas, J. B. Foresman, J. V. Ortiz, J. Cioslowski, 
 and D. J. Fox, Gaussian, Inc., Wallingford CT, 2013.
 
 ******************************************
 Gaussian 09:  ES64L-G09RevD.01 24-Apr-2013
                26-Sep-2015 
 ******************************************
 %mem=600MB
 %nprocshared=5
 Will use up to    5 processors via shared memory.
 ---------------------------------------------------------------------
 # freq x3lyp/6-31+g(d) scrf=(cpcm,solvent=methanol) geom=connectivity
 ---------------------------------------------------------------------
 1/10=4,30=1,38=1,57=2/1,3;
 2/12=2,17=6,18=5,40=1/2;
 3/5=1,6=6,7=11,11=2,16=1,25=1,30=1,70=2101,71=2,72=3,74=-33,140=1/1,2,3;
 4//1;
 5/5=2,38=5,53=3,98=1/2;
 8/6=4,10=90,11=11/1;
 11/6=1,8=1,9=11,15=111,16=1/1,2,10;
 10/6=1/2;
 6/7=2,8=2,9=2,10=2,18=1,28=1/1;
 7/8=1,10=1,25=1/1,2,3,16;
 1/10=4,30=1/3;
 99//99;
 -------------------
 Title Card Required
 -------------------
 Symbolic Z-matrix:
 Charge =  0 Multiplicity = 1
 O                     0.        0.        0.11716 
 H                     0.        0.77121  -0.46862 
 H                     0.       -0.77121  -0.46862 
 

 GradGradGradGradGradGradGradGradGradGradGradGradGradGradGradGradGradGrad
 Berny optimization.
 Initialization pass.
 Trust Radius=3.00D-01 FncErr=1.00D-07 GrdErr=1.00D-07
 Number of steps in this run=      2 maximum allowed number of steps=      2.
 GradGradGradGradGradGradGradGradGradGradGradGradGradGradGradGradGradGrad

                          Input orientation:                          
 ---------------------------------------------------------------------
 Center     Atomic      Atomic             Coordinates (Angstroms)
 Number     Number       Type             X           Y           Z
 ---------------------------------------------------------------------
      1          8           0        0.000000    0.000000    0.117155
      2          1           0        0.000000    0.771206   -0.468621
      3          1           0        0.000000   -0.771206   -0.468621
 ---------------------------------------------------------------------
                    Distance matrix (angstroms):
                    1          2          3
     1  O    0.000000
     2  H    0.968448   0.000000
     3  H    0.968448   1.542412   0.000000
 Stoichiometry    H2O
 Framework group  C2V[C2(O),SGV(H2)]
 Deg. of freedom     2
 Full point group                 C2V     NOp   4
 Largest Abelian subgroup         C2V     NOp   4
 Largest concise Abelian subgroup C2      NOp   2
                         Standard orientation:                         
 ---------------------------------------------------------------------
 Center     Atomic      Atomic             Coordinates (Angstroms)
 Number     Number       Type             X           Y           Z
 ---------------------------------------------------------------------
      1          8           0        0.000000    0.000000    0.117155
      2          1           0        0.000000    0.771206   -0.468621
      3          1           0        0.000000   -0.771206   -0.468621
 ---------------------------------------------------------------------
 Rotational constants (GHZ):    822.7811103    421.5618073    278.7439756
 Standard basis: 6-31+G(d) (6D, 7F)
 There are    12 symmetry adapted cartesian basis functions of A1  symmetry.
 There are     1 symmetry adapted cartesian basis functions of A2  symmetry.
 There are     4 symmetry adapted cartesian basis functions of B1  symmetry.
 There are     6 symmetry adapted cartesian basis functions of B2  symmetry.
 There are    12 symmetry adapted basis functions of A1  symmetry.
 There are     1 symmetry adapted basis functions of A2  symmetry.
 There are     4 symmetry adapted basis functions of B1  symmetry.
 There are     6 symmetry adapted basis functions of B2  symmetry.
    23 basis functions,    40 primitive gaussians,    23 cartesian basis functions
     5 alpha electrons        5 beta electrons
       nuclear repulsion energy         9.0857655271 Hartrees.
 NAtoms=    3 NActive=    3 NUniq=    2 SFac= 2.25D+00 NAtFMM=   60 NAOKFM=F Big=F
 Integral buffers will be    131072 words long.
 Raffenetti 2 integral format.
 Two-electron integral symmetry is turned on.
 Force inversion solution in PCM.
 ------------------------------------------------------------------------------
 Polarizable Continuum Model (PCM)
 =================================
 Model                : C-PCM.
 Atomic radii         : UFF (Universal Force Field).
 Polarization charges : Total charges.
 Charge compensation  : None.
 Solution method      : Matrix inversion.
 Cavity type          : Scaled VdW (van der Waals Surface) (Alpha=1.100).
 Cavity algorithm     : GePol (No added spheres)
                        Default sphere list used, NSphG=    3.
                        Lebedev-Laikov grids with approx.  5.0 points / Ang**2.
                        Smoothing algorithm: Karplus/York (Gamma=1.0000).
                        Polarization charges: spherical gaussians, with
                                              point-specific exponents (IZeta= 3).
                        Self-potential: point-specific (ISelfS= 7).
                        Self-field    : sphere-specific E.n sum rule (ISelfD= 2).
 1st derivatives      : Analytical E(r).r(x)/FMM algorithm (CHGder, D1EAlg=3).
                        Cavity 1st derivative terms included.
 2nd derivatives      : Analytical E(r).r(xy)/FMM algorithm (CHGder, D2EAlg=3).
                        Cavity 2nd derivative terms included.
 Solvent              : Methanol, Eps=  32.613000 Eps(inf)=   1.765709
 ------------------------------------------------------------------------------
 Spheres list:
 ISph  on   Nord     Re0    Alpha      Xe            Ye            Ze
    1   O      1    1.7500  1.100      0.000000      0.000000      0.117155
    2   H      2    1.4430  1.100      0.000000      0.771206     -0.468621
    3   H      3    1.4430  1.100      0.000000     -0.771206     -0.468621
 ------------------------------------------------------------------------------
 One-electron integrals computed using PRISM.
 NBasis=    23 RedAO= T EigKep=  2.78D-02  NBF=    12     1     4     6
 NBsUse=    23 1.00D-06 EigRej= -1.00D+00 NBFU=    12     1     4     6
 ExpMin= 8.45D-02 ExpMax= 5.48D+03 ExpMxC= 8.25D+02 IAcc=2 IRadAn=         4 AccDes= 0.00D+00
 Harris functional with IExCor= 3102 and IRadAn=       4 diagonalized for initial guess.
 HarFok:  IExCor= 3102 AccDes= 0.00D+00 IRadAn=         4 IDoV= 1 UseB2=F ITyADJ=14
 ICtDFT=  3500011 ScaDFX=  1.000000  1.000000  1.000000  1.000000
 FoFCou: FMM=F IPFlag=           0 FMFlag=      100000 FMFlg1=           0
         NFxFlg=           0 DoJE=T BraDBF=F KetDBF=T FulRan=T
         wScrn=  0.000000 ICntrl=     500 IOpCl=  0 I1Cent=   200000004 NGrid=           0
         NMat0=    1 NMatS0=      1 NMatT0=    0 NMatD0=    1 NMtDS0=    0 NMtDT0=    0
 Petite list used in FoFCou.
 Initial guess orbital symmetries:
       Occupied  (A1) (A1) (B2) (A1) (B1)
       Virtual   (A1) (B2) (A1) (B1) (B2) (A1) (B2) (A1) (B1) (B2)
                 (A1) (A1) (A1) (A2) (B1) (A1) (B2) (A1)
 The electronic state of the initial guess is 1-A1.
 Keep R1 ints in memory in symmetry-blocked form, NReq=3093913.
 Requested convergence on RMS density matrix=1.00D-08 within 128 cycles.
 Requested convergence on MAX density matrix=1.00D-06.
 Requested convergence on             energy=1.00D-06.
 No special actions if energy rises.
 Inv3:  Mode=1 IEnd=      460992.
 Iteration    1 A*A^-1 deviation from unit magnitude is 2.66D-15 for     95.
 Iteration    1 A*A^-1 deviation from orthogonality  is 1.25D-15 for    285      9.
 Iteration    1 A^-1*A deviation from unit magnitude is 2.66D-15 for     95.
 Iteration    1 A^-1*A deviation from orthogonality  is 7.11D-16 for    192     93.
 Error on total polarization charges =  0.00696
 SCF Done:  E(RX3LYP) =  -76.4014076610     A.U. after    8 cycles
            NFock=  8  Conv=0.20D-08     -V/T= 2.0092
 DoSCS=F DFT=T ScalE2(SS,OS)=  1.000000  1.000000
 Range of M.O.s used for correlation:     1    23
 NBasis=    23 NAE=     5 NBE=     5 NFC=     0 NFV=     0
 NROrb=     23 NOA=     5 NOB=     5 NVA=    18 NVB=    18
 Symmetrizing basis deriv contribution to polar:
 IMax=3 JMax=2 DiffMx= 0.00D+00
 G2DrvN: will do     4 centers at a time, making    1 passes.
 Calling FoFCou, ICntrl=  3107 FMM=F I1Cent=   0 AccDes= 0.00D+00.
 NEqPCM:  Using equilibrium solvation (IEInf=0, Eps=  32.6130, EpsInf=   1.7657)
 G2PCM: DoFxE=T DoFxN=T DoGrad=T DoDP/DQ/DG/TGxP=FFFF NFrqRd=   0 IEInf=0 SqF1=F DoCFld=F IF1Alg=4.
 End of G2Drv F.D. properties file   721 does not exist.
 End of G2Drv F.D. properties file   722 does not exist.
 End of G2Drv F.D. properties file   788 does not exist.
          IDoAtm=111
 NEqPCM:  Using equilibrium solvation (IEInf=0, Eps=  32.6130, EpsInf=   1.7657)
          Differentiating once with respect to electric field.
                with respect to dipole field.
          Differentiating once with respect to nuclear coordinates.
 Keep R1 ints in memory in symmetry-blocked form, NReq=1875744.
          There are     9 degrees of freedom in the 1st order CPHF.  IDoFFX=4 NUNeed=     9.
      9 vectors produced by pass  0 Test12= 1.00D-15 1.11D-08 XBig12= 3.18D+00 1.37D+00.
 AX will form     9 AO Fock derivatives at one time.
      9 vectors produced by pass  1 Test12= 1.00D-15 1.11D-08 XBig12= 2.94D-01 1.97D-01.
      9 vectors produced by pass  2 Test12= 1.00D-15 1.11D-08 XBig12= 2.43D-03 2.19D-02.
      9 vectors produced by pass  3 Test12= 1.00D-15 1.11D-08 XBig12= 4.51D-06 1.08D-03.
      8 vectors produced by pass  4 Test12= 1.00D-15 1.11D-08 XBig12= 9.83D-09 3.89D-05.
      4 vectors produced by pass  5 Test12= 1.00D-15 1.11D-08 XBig12= 5.87D-12 1.20D-06.
      1 vectors produced by pass  6 Test12= 1.00D-15 1.11D-08 XBig12= 2.41D-15 1.80D-08.
 InvSVY:  IOpt=1 It=  1 EMax= 2.22D-16
 Solved reduced A of dimension    49 with     9 vectors.
 Isotropic polarizability for W=    0.000000        7.56 Bohr**3.
 End of Minotr F.D. properties file   721 does not exist.
 End of Minotr F.D. properties file   722 does not exist.
 End of Minotr F.D. properties file   788 does not exist.

 **********************************************************************

            Population analysis using the SCF density.

 **********************************************************************

 Orbital symmetries:
       Occupied  (A1) (A1) (B2) (A1) (B1)
       Virtual   (A1) (B2) (A1) (B1) (B2) (A1) (B2) (A1) (B2) (B1)
                 (A1) (A1) (A1) (A2) (B1) (A1) (B2) (A1)
 The electronic state is 1-A1.
 Alpha  occ. eigenvalues --  -19.20120  -1.02918  -0.54608  -0.40437  -0.32812
 Alpha virt. eigenvalues --    0.03494   0.11904   0.13874   0.14593   0.20615
 Alpha virt. eigenvalues --    0.24661   0.96117   1.04715   1.11137   1.11371
 Alpha virt. eigenvalues --    1.14344   1.24311   1.71404   1.72327   1.75934
 Alpha virt. eigenvalues --    2.27807   2.64447   3.68031
          Condensed to atoms (all electrons):
               1          2          3
     1  O    8.536913   0.227435   0.227435
     2  H    0.227435   0.294276  -0.017604
     3  H    0.227435  -0.017604   0.294276
 Mulliken charges:
               1
     1  O   -0.991784
     2  H    0.495892
     3  H    0.495892
 Sum of Mulliken charges =   0.00000
 Mulliken charges with hydrogens summed into heavy atoms:
               1
     1  O    0.000000
 APT charges:
               1
     1  O   -0.691545
     2  H    0.345773
     3  H    0.345773
 Sum of APT charges =   0.00000
 APT charges with hydrogens summed into heavy atoms:
               1
     1  O    0.000000
 Electronic spatial extent (au):  <R**2>=             20.1970
 Charge=              0.0000 electrons
 Dipole moment (field-independent basis, Debye):
    X=              0.0000    Y=              0.0000    Z=             -2.5003  Tot=              2.5003
 Quadrupole moment (field-independent basis, Debye-Ang):
   XX=             -8.0132   YY=             -4.2548   ZZ=             -6.5472
   XY=              0.0000   XZ=              0.0000   YZ=              0.0000
 Traceless Quadrupole moment (field-independent basis, Debye-Ang):
   XX=             -1.7415   YY=              2.0170   ZZ=             -0.2755
   XY=              0.0000   XZ=              0.0000   YZ=              0.0000
 Octapole moment (field-independent basis, Debye-Ang**2):
  XXX=              0.0000  YYY=              0.0000  ZZZ=             -1.9914  XYY=              0.0000
  XXY=              0.0000  XXZ=             -0.5937  XZZ=              0.0000  YZZ=              0.0000
  YYZ=             -1.6251  XYZ=              0.0000
 Hexadecapole moment (field-independent basis, Debye-Ang**3):
 XXXX=             -8.2123 YYYY=             -6.2021 ZZZZ=             -8.1820 XXXY=              0.0000
 XXXZ=              0.0000 YYYX=              0.0000 YYYZ=              0.0000 ZZZX=              0.0000
 ZZZY=              0.0000 XXYY=             -2.6925 XXZZ=             -2.7841 YYZZ=             -2.0664
 XXYZ=              0.0000 YYXZ=              0.0000 ZZXY=              0.0000
 N-N= 9.085765527122D+00 E-N=-1.984430659911D+02  KE= 7.570445128599D+01
 Symmetry A1   KE= 6.762088346105D+01
 Symmetry A2   KE= 5.356843603318D-35
 Symmetry B1   KE= 4.439900616694D+00
 Symmetry B2   KE= 3.643667208247D+00
  Exact polarizability:   7.359   0.000   8.338   0.000   0.000   6.985
 Approx polarizability:   6.672   0.000   9.083   0.000   0.000   7.142
 D2PCM: C-PCM CHGder 2nd derivatives, FixD1E=F FixD2E=F DoIter=F DoCFld=F I1PDM=0
 Calling FoFJK, ICntrl=    100127 FMM=F ISym2X=1 I1Cent= 0 IOpClX= 0 NMat=1 NMatS=1 NMatT=0.
 Full mass-weighted force constant matrix:
 Low frequencies --- -213.7091 -212.9460 -104.3217    0.0014    0.0019    0.0025
 Low frequencies --- 1650.3917 3755.6472 3866.4483
 Diagonal vibrational polarizability:
        0.0000000       0.1949152       1.3426319
 Harmonic frequencies (cm**-1), IR intensities (KM/Mole), Raman scattering
 activities (A**4/AMU), depolarization ratios for plane and unpolarized
 incident light, reduced masses (AMU), force constants (mDyne/A),
 and normal coordinates:
                      1                      2                      3
                     A1                     A1                     B2
 Frequencies --   1650.3917              3755.6472              3866.4481
 Red. masses --      1.0827                 1.0452                 1.0829
 Frc consts  --      1.7375                 8.6856                 9.5382
 IR Inten    --    131.2198                24.2010               108.2772
  Atom  AN      X      Y      Z        X      Y      Z        X      Y      Z
     1   8     0.00   0.00   0.07     0.00   0.00   0.05     0.00   0.07   0.00
     2   1     0.00  -0.43  -0.56     0.00   0.58  -0.40     0.00  -0.56   0.43
     3   1     0.00   0.43  -0.56     0.00  -0.58  -0.40     0.00  -0.56  -0.43

 -------------------
 - Thermochemistry -
 -------------------
 Temperature   298.150 Kelvin.  Pressure   1.00000 Atm.
 Atom     1 has atomic number  8 and mass  15.99491
 Atom     2 has atomic number  1 and mass   1.00783
 Atom     3 has atomic number  1 and mass   1.00783
 Molecular mass:    18.01056 amu.
 Principal axes and moments of inertia in atomic units:
                           1         2         3
     Eigenvalues --     2.19346   4.28108   6.47455
           X            0.00000   0.00000   1.00000
           Y            1.00000   0.00000   0.00000
           Z            0.00000   1.00000   0.00000
 This molecule is an asymmetric top.
 Rotational symmetry number  2.
 Rotational temperatures (Kelvin)     39.48722    20.23175    13.37758
 Rotational constants (GHZ):         822.78111   421.56181   278.74398
 Zero-point vibrational energy      55461.8 (Joules/Mol)
                                   13.25569 (Kcal/Mol)
 Vibrational temperatures:   2374.54  5403.53  5562.95
          (Kelvin)
 
 Zero-point correction=                           0.021124 (Hartree/Particle)
 Thermal correction to Energy=                    0.023959
 Thermal correction to Enthalpy=                  0.024904
 Thermal correction to Gibbs Free Energy=         0.003465
 Sum of electronic and zero-point Energies=            -76.380283
 Sum of electronic and thermal Energies=               -76.377448
 Sum of electronic and thermal Enthalpies=             -76.376504
 Sum of electronic and thermal Free Energies=          -76.397943
 
                     E (Thermal)             CV                S
                      KCal/Mol        Cal/Mol-Kelvin    Cal/Mol-Kelvin
 Total                   15.035              6.005             45.121
 Electronic               0.000              0.000              0.000
 Translational            0.889              2.981             34.608
 Rotational               0.889              2.981             10.507
 Vibrational             13.257              0.044              0.006
                       Q            Log10(Q)             Ln(Q)
 Total Bot       0.254793D-01         -1.593813         -3.669890
 Total V=0       0.132636D+09          8.122661         18.703117
 Vib (Bot)       0.192166D-09         -9.716322        -22.372659
 Vib (V=0)       0.100035D+01          0.000151          0.000348
 Electronic      0.100000D+01          0.000000          0.000000
 Translational   0.300432D+07          6.477746         14.915562
 Rotational      0.441330D+02          1.644763          3.787207
 ***** Axes restored to original set *****
 -------------------------------------------------------------------
 Center     Atomic                   Forces (Hartrees/Bohr)
 Number     Number              X              Y              Z
 -------------------------------------------------------------------
      1        8           0.000000000    0.000000000    0.003428073
      2        1           0.000000000    0.000261552   -0.001714036
      3        1           0.000000000   -0.000261552   -0.001714036
 -------------------------------------------------------------------
 Cartesian Forces:  Max     0.003428073 RMS     0.001404926

 GradGradGradGradGradGradGradGradGradGradGradGradGradGradGradGradGradGrad
 Berny optimization.
 Search for a local minimum.
 Step number   1 out of a maximum of    2
 All quantities printed in internal units (Hartrees-Bohrs-Radians)
 Second derivative matrix not updated -- analytic derivatives used.
 The second derivative matrix:
                          X1        Y1        Z1        X2        Y2
           X1          -0.00309
           Y1           0.00000   0.66822
           Z1           0.00000   0.00000   0.44714
           X2           0.00155   0.00000   0.00000  -0.00098
           Y2           0.00000  -0.33411   0.19386   0.00000   0.36210
           Z2           0.00000   0.25515  -0.22357   0.00000  -0.22450
           X3           0.00155   0.00000   0.00000  -0.00057   0.00000
           Y3           0.00000  -0.33411  -0.19386   0.00000  -0.02799
           Z3           0.00000  -0.25515  -0.22357   0.00000   0.03064
                          Z2        X3        Y3        Z3
           Z2           0.20789
           X3           0.00000  -0.00098
           Y3          -0.03064   0.00000   0.36210
           Z3           0.01567   0.00000   0.22450   0.20789
 ITU=  0
     Eigenvalues ---    0.15248   0.75884   0.95583
 Angle between quadratic step and forces=  47.30 degrees.
 ClnCor:  largest displacement from symmetrization is 6.31D-14 for atom     3.
 Linear search not attempted -- first point.
 ClnCor:  largest displacement from symmetrization is 1.09D-30 for atom     1.
 TrRot=  0.000000  0.000000  0.003143  0.000000  0.000000  0.000000
 Variable       Old X    -DE/DX   Delta X   Delta X   Delta X     New X
                                 (Linear)    (Quad)   (Total)
    X1        0.00000   0.00000   0.00000   0.00000   0.00000   0.00000
    Y1        0.00000   0.00000   0.00000   0.00000   0.00000   0.00000
    Z1        0.22139   0.00343   0.00000   0.00516   0.00830   0.22969
    X2        0.00000   0.00000   0.00000   0.00000   0.00000   0.00000
    Y2        1.45737   0.00026   0.00000  -0.00552  -0.00552   1.45185
    Z2       -0.88557  -0.00171   0.00000  -0.00729  -0.00415  -0.88972
    X3        0.00000   0.00000   0.00000   0.00000   0.00000   0.00000
    Y3       -1.45737  -0.00026   0.00000   0.00552   0.00552  -1.45185
    Z3       -0.88557  -0.00171   0.00000  -0.00729  -0.00415  -0.88972
         Item               Value     Threshold  Converged?
 Maximum Force            0.003428     0.000450     NO 
 RMS     Force            0.001405     0.000300     NO 
 Maximum Displacement     0.008300     0.001800     NO 
 RMS     Displacement     0.004272     0.001200     NO 
 Predicted change in Energy=-1.989793D-05
 GradGradGradGradGradGradGradGradGradGradGradGradGradGradGradGradGradGrad

 1\1\GINC-H17\Freq\RX3LYP\6-31+G(d)\H2O1\SAWAL\26-Sep-2015\0\\# freq x3
 lyp/6-31+g(d) scrf=(cpcm,solvent=methanol) geom=connectivity\\Title Ca
 rd Required\\0,1\O,0.,0.,0.117155\H,0.,0.771206,-0.468621\H,0.,-0.7712
 06,-0.468621\\Version=ES64L-G09RevD.01\State=1-A1\HF=-76.4014077\RMSD=
 1.962e-09\RMSF=1.405e-03\ZeroPoint=0.0211243\Thermal=0.0239595\Dipole=
 0.,0.,-0.9836832\DipoleDeriv=-0.8890911,0.,0.,0.,-0.6639252,0.,0.,0.,-
 0.5216194,0.4445456,0.,0.,0.,0.3319626,0.0611791,0.,0.0856702,0.260809
 7,0.4445456,0.,0.,0.,0.3319626,-0.0611791,0.,-0.0856702,0.2608097\Pola
 r=7.3586618,0.,8.3384542,0.,0.,6.9851111\PG=C02V [C2(O1),SGV(H2)]\NIma
 g=0\\-0.00309391,0.,0.66822065,0.,0.,0.44713591,0.00154695,0.,0.,-0.00
 098101,0.,-0.33411032,0.19386241,0.,0.36210425,0.,0.25514511,-0.223567
 96,0.,-0.22450376,0.20789489,0.00154695,0.,0.,-0.00056594,0.,0.,-0.000
 98101,0.,-0.33411032,-0.19386241,0.,-0.02799392,-0.03064135,0.,0.36210
 425,0.,-0.25514511,-0.22356796,0.,0.03064135,0.01567307,0.,0.22450376,
 0.20789489\\0.,0.,-0.00342807,0.,-0.00026155,0.00171404,0.,0.00026155,
 0.00171404\\\@


  THE LARGE PRINT GIVETH,
  AND THE SMALL PRINT TAKETH AWAY.

                     -- TOM WAITS
 Job cpu time:       0 days  0 hours  0 minutes 29.1 seconds.
 File lengths (MBytes):  RWF=      5 Int=      0 D2E=      0 Chk=      2 Scr=      1
 Normal termination of Gaussian 09 at Sat Sep 26 14:52:07 2015.
