 Entering Link 1 = C:\G09W\l1.exe PID=      5616.
  
 Copyright (c) 1988,1990,1992,1993,1995,1998,2003,2009, Gaussian, Inc.
                  All Rights Reserved.
  
 This is part of the Gaussian(R) 09 program.  It is based on
 the Gaussian(R) 03 system (copyright 2003, Gaussian, Inc.),
 the Gaussian(R) 98 system (copyright 1998, Gaussian, Inc.),
 the Gaussian(R) 94 system (copyright 1995, Gaussian, Inc.),
 the Gaussian 92(TM) system (copyright 1992, Gaussian, Inc.),
 the Gaussian 90(TM) system (copyright 1990, Gaussian, Inc.),
 the Gaussian 88(TM) system (copyright 1988, Gaussian, Inc.),
 the Gaussian 86(TM) system (copyright 1986, Carnegie Mellon
 University), and the Gaussian 82(TM) system (copyright 1983,
 Carnegie Mellon University). Gaussian is a federally registered
 trademark of Gaussian, Inc.
  
 This software contains proprietary and confidential information,
 including trade secrets, belonging to Gaussian, Inc.
  
 This software is provided under written license and may be
 used, copied, transmitted, or stored only in accord with that
 written license.
  
 The following legend is applicable only to US Government
 contracts under FAR:
  
                    RESTRICTED RIGHTS LEGEND
  
 Use, reproduction and disclosure by the US Government is
 subject to restrictions as set forth in subparagraphs (a)
 and (c) of the Commercial Computer Software - Restricted
 Rights clause in FAR 52.227-19.
  
 Gaussian, Inc.
 340 Quinnipiac St., Bldg. 40, Wallingford CT 06492
  
  
 ---------------------------------------------------------------
 Warning -- This program may not be used in any manner that
 competes with the business of Gaussian, Inc. or will provide
 assistance to any competitor of Gaussian, Inc.  The licensee
 of this program is prohibited from giving any competitor of
 Gaussian, Inc. access to this program.  By using this program,
 the user acknowledges that Gaussian, Inc. is engaged in the
 business of creating and licensing software in the field of
 computational chemistry and represents and warrants to the
 licensee that it is not a competitor of Gaussian, Inc. and that
 it will not use this program in any manner prohibited above.
 ---------------------------------------------------------------
  

 Cite this work as:
 Gaussian 09, Revision A.02,
 M. J. Frisch, G. W. Trucks, H. B. Schlegel, G. E. Scuseria, 
 M. A. Robb, J. R. Cheeseman, G. Scalmani, V. Barone, B. Mennucci, 
 G. A. Petersson, H. Nakatsuji, M. Caricato, X. Li, H. P. Hratchian, 
 A. F. Izmaylov, J. Bloino, G. Zheng, J. L. Sonnenberg, M. Hada, 
 M. Ehara, K. Toyota, R. Fukuda, J. Hasegawa, M. Ishida, T. Nakajima, 
 Y. Honda, O. Kitao, H. Nakai, T. Vreven, J. A. Montgomery, Jr., 
 J. E. Peralta, F. Ogliaro, M. Bearpark, J. J. Heyd, E. Brothers, 
 K. N. Kudin, V. N. Staroverov, R. Kobayashi, J. Normand, 
 K. Raghavachari, A. Rendell, J. C. Burant, S. S. Iyengar, J. Tomasi, 
 M. Cossi, N. Rega, J. M. Millam, M. Klene, J. E. Knox, J. B. Cross, 
 V. Bakken, C. Adamo, J. Jaramillo, R. Gomperts, R. E. Stratmann, 
 O. Yazyev, A. J. Austin, R. Cammi, C. Pomelli, J. W. Ochterski, 
 R. L. Martin, K. Morokuma, V. G. Zakrzewski, G. A. Voth, 
 P. Salvador, J. J. Dannenberg, S. Dapprich, A. D. Daniels, 
 O. Farkas, J. B. Foresman, J. V. Ortiz, J. Cioslowski, 
 and D. J. Fox, Gaussian, Inc., Wallingford CT, 2009.
 
 ******************************************
 Gaussian 09:  IA32W-G09RevA.02 11-Jun-2009
                23-Sep-2015 
 ******************************************
 %chk=C:\Users\214584429\Dropbox\Dropbox content\New folder\HACh.chk
 --------------------------------------------
 # opt freq x3lyp/6-31+g(d) geom=connectivity
 --------------------------------------------
 1/14=-1,18=20,19=15,26=3,38=1,57=2/1,3;
 2/9=110,12=2,17=6,18=5,40=1/2;
 3/5=1,6=6,7=11,11=2,16=1,25=1,30=1,71=1,74=-33/1,2,3;
 4//1;
 5/5=2,38=5/2;
 6/7=2,8=2,9=2,10=2,28=1/1;
 7//1,2,3,16;
 1/14=-1,18=20,19=15/3(2);
 2/9=110/2;
 99//99;
 2/9=110/2;
 3/5=1,6=6,7=11,11=2,16=1,25=1,30=1,71=1,74=-33/1,2,3;
 4/5=5,16=3/1;
 5/5=2,38=5/2;
 7//1,2,3,16;
 1/14=-1,18=20,19=15/3(-5);
 2/9=110/2;
 6/7=2,8=2,9=2,10=2,19=2,28=1/1;
 99/9=1/99;
 -------------------
 Title Card Required
 -------------------
 Symbolic Z-matrix:
 Charge =  1 Multiplicity = 1
 O                     0.99138   0.68966   0. 
 H                     0.67092   1.58452  -0.13462 
 C                     2.42138   0.68966   0. 
 C                     3.18874   2.02486   0. 
 H                     3.79939   2.08528  -0.87656 
 H                     2.49182   2.83675   0.00584 
 H                     3.80816   2.08024   0.87072 
 O                     3.05489  -0.39765   0. 
 H                     3.99803  -0.21849   0. 
 

 GradGradGradGradGradGradGradGradGradGradGradGradGradGradGradGradGradGrad
 Berny optimization.
 Initialization pass.
                           ----------------------------
                           !    Initial Parameters    !
                           ! (Angstroms and Degrees)  !
 --------------------------                            --------------------------
 ! Name  Definition              Value          Derivative Info.                !
 --------------------------------------------------------------------------------
 ! R1    R(1,2)                  0.96           estimate D2E/DX2                !
 ! R2    R(1,3)                  1.43           estimate D2E/DX2                !
 ! R3    R(3,4)                  1.54           estimate D2E/DX2                !
 ! R4    R(3,8)                  1.2584         estimate D2E/DX2                !
 ! R5    R(4,5)                  1.07           estimate D2E/DX2                !
 ! R6    R(4,6)                  1.07           estimate D2E/DX2                !
 ! R7    R(4,7)                  1.07           estimate D2E/DX2                !
 ! R8    R(8,9)                  0.96           estimate D2E/DX2                !
 ! A1    A(2,1,3)              109.5            estimate D2E/DX2                !
 ! A2    A(1,3,4)              119.8865         estimate D2E/DX2                !
 ! A3    A(1,3,8)              120.2269         estimate D2E/DX2                !
 ! A4    A(4,3,8)              119.8865         estimate D2E/DX2                !
 ! A5    A(3,4,5)              109.4712         estimate D2E/DX2                !
 ! A6    A(3,4,6)              109.4712         estimate D2E/DX2                !
 ! A7    A(3,4,7)              109.4712         estimate D2E/DX2                !
 ! A8    A(5,4,6)              109.4713         estimate D2E/DX2                !
 ! A9    A(5,4,7)              109.4712         estimate D2E/DX2                !
 ! A10   A(6,4,7)              109.4712         estimate D2E/DX2                !
 ! A11   A(3,8,9)              109.4712         estimate D2E/DX2                !
 ! D1    D(2,1,3,4)              8.5551         estimate D2E/DX2                !
 ! D2    D(2,1,3,8)           -171.4449         estimate D2E/DX2                !
 ! D3    D(1,3,4,5)           -119.6683         estimate D2E/DX2                !
 ! D4    D(1,3,4,6)              0.3317         estimate D2E/DX2                !
 ! D5    D(1,3,4,7)            120.3317         estimate D2E/DX2                !
 ! D6    D(8,3,4,5)             60.3317         estimate D2E/DX2                !
 ! D7    D(8,3,4,6)           -179.6683         estimate D2E/DX2                !
 ! D8    D(8,3,4,7)            -59.6683         estimate D2E/DX2                !
 ! D9    D(1,3,8,9)            180.0            estimate D2E/DX2                !
 ! D10   D(4,3,8,9)              0.0            estimate D2E/DX2                !
 --------------------------------------------------------------------------------
 Trust Radius=3.00D-01 FncErr=1.00D-07 GrdErr=1.00D-06
 Number of steps in this run=  39 maximum allowed number of steps= 100.
 GradGradGradGradGradGradGradGradGradGradGradGradGradGradGradGradGradGrad

                          Input orientation:                          
 ---------------------------------------------------------------------
 Center     Atomic      Atomic             Coordinates (Angstroms)
 Number     Number       Type             X           Y           Z
 ---------------------------------------------------------------------
      1          8           0        0.991379    0.689655    0.000000
      2          1           0        0.670925    1.584522   -0.134619
      3          6           0        2.421379    0.689655    0.000000
      4          6           0        3.188736    2.024857    0.000000
      5          1           0        3.799389    2.085280   -0.876557
      6          1           0        2.491824    2.836755    0.005840
      7          1           0        3.808160    2.080240    0.870717
      8          8           0        3.054891   -0.397650    0.000000
      9          1           0        3.998025   -0.218493    0.000000
 ---------------------------------------------------------------------
                    Distance matrix (angstroms):
                    1          2          3          4          5
     1  O    0.000000
     2  H    0.960000   0.000000
     3  C    1.430000   1.970533   0.000000
     4  C    2.571214   2.559569   1.540000   0.000000
     5  H    3.255924   3.254001   2.148263   1.070000   0.000000
     6  H    2.619428   2.214382   2.148263   1.070000   1.747303
     7  H    3.259774   3.331468   2.148263   1.070000   1.747303
     8  O    2.332448   3.103293   1.258400   2.426202   2.736343
     9  H    3.140805   3.786632   1.819491   2.384862   2.472889
                    6          7          8          9
     6  H    0.000000
     7  H    1.747303   0.000000
     8  O    3.283056   2.732307   0.000000
     9  H    3.406349   2.465435   0.960000   0.000000
 Stoichiometry    C2H5O2(1+)
 Framework group  C1[X(C2H5O2)]
 Deg. of freedom    21
 Full point group                 C1      NOp   1
 Largest Abelian subgroup         C1      NOp   1
 Largest concise Abelian subgroup C1      NOp   1
                         Standard orientation:                         
 ---------------------------------------------------------------------
 Center     Atomic      Atomic             Coordinates (Angstroms)
 Number     Number       Type             X           Y           Z
 ---------------------------------------------------------------------
      1          8           0       -1.382385   -0.477844   -0.015127
      2          1           0       -1.310221   -1.426477    0.113280
      3          6           0       -0.077075    0.106054   -0.003769
      4          6           0        1.168614   -0.799406   -0.003138
      5          1           0        1.745804   -0.611336    0.877987
      6          1           0        0.864047   -1.825040   -0.017835
      7          1           0        1.761500   -0.590962   -0.869126
      8          8           0        0.057185    1.357235    0.005711
      9          1           0        0.991243    1.578799    0.012468
 ---------------------------------------------------------------------
 Rotational constants (GHZ):      9.9163524      8.7033477      4.7712734
 Standard basis: 6-31+G(d) (6D, 7F)
 There are    86 symmetry adapted basis functions of A   symmetry.
 Integral buffers will be    262144 words long.
 Raffenetti 2 integral format.
 Two-electron integral symmetry is turned on.
    86 basis functions,   148 primitive gaussians,    86 cartesian basis functions
    16 alpha electrons       16 beta electrons
       nuclear repulsion energy       126.7753554355 Hartrees.
 NAtoms=    9 NActive=    9 NUniq=    9 SFac= 7.50D-01 NAtFMM=   80 NAOKFM=F Big=F
 One-electron integrals computed using PRISM.
 NBasis=    86 RedAO= T  NBF=    86
 NBsUse=    86 1.00D-06 NBFU=    86
 Harris functional with IExCor= 3102 diagonalized for initial guess.
 ExpMin= 4.38D-02 ExpMax= 5.48D+03 ExpMxC= 8.25D+02 IAcc=2 IRadAn=         0 AccDes= 0.00D+00
 HarFok:  IExCor= 3102 AccDes= 0.00D+00 IRadAn=         0 IDoV= 1
 ScaDFX=  1.000000  1.000000  1.000000  1.000000
 FoFCou: FMM=F IPFlag=           0 FMFlag=      100000 FMFlg1=           0
         NFxFlg=           0 DoJE=T BraDBF=F KetDBF=T FulRan=T
         Omega=  0.000000  0.000000  1.000000  0.000000  0.000000 ICntrl=     500 IOpCl=  0
         NMat0=    1 NMatS0=    1 NMatT0=    0 NMatD0=    1 NMtDS0=    0 NMtDT0=    0
         I1Cent=           4 NGrid=           0.
 Petite list used in FoFCou.
 Initial guess orbital symmetries:
       Occupied  (A) (A) (A) (A) (A) (A) (A) (A) (A) (A) (A) (A)
                 (A) (A) (A) (A)
       Virtual   (A) (A) (A) (A) (A) (A) (A) (A) (A) (A) (A) (A)
                 (A) (A) (A) (A) (A) (A) (A) (A) (A) (A) (A) (A)
                 (A) (A) (A) (A) (A) (A) (A) (A) (A) (A) (A) (A)
                 (A) (A) (A) (A) (A) (A) (A) (A) (A) (A) (A) (A)
                 (A) (A) (A) (A) (A) (A) (A) (A) (A) (A) (A) (A)
                 (A) (A) (A) (A) (A) (A) (A) (A) (A) (A)
 The electronic state of the initial guess is 1-A.
 Requested convergence on RMS density matrix=1.00D-08 within 128 cycles.
 Requested convergence on MAX density matrix=1.00D-06.
 Requested convergence on             energy=1.00D-06.
 No special actions if energy rises.
 Keep R1 ints in memory in canonical form, NReq=8018180.
 SCF Done:  E(RX3LYP) =  -229.274765199     A.U. after   11 cycles
             Convg  =    0.4821D-08             -V/T =  2.0095

 **********************************************************************

            Population analysis using the SCF density.

 **********************************************************************

 Orbital symmetries:
       Occupied  (A) (A) (A) (A) (A) (A) (A) (A) (A) (A) (A) (A)
                 (A) (A) (A) (A)
       Virtual   (A) (A) (A) (A) (A) (A) (A) (A) (A) (A) (A) (A)
                 (A) (A) (A) (A) (A) (A) (A) (A) (A) (A) (A) (A)
                 (A) (A) (A) (A) (A) (A) (A) (A) (A) (A) (A) (A)
                 (A) (A) (A) (A) (A) (A) (A) (A) (A) (A) (A) (A)
                 (A) (A) (A) (A) (A) (A) (A) (A) (A) (A) (A) (A)
                 (A) (A) (A) (A) (A) (A) (A) (A) (A) (A)
 The electronic state is 1-A.
 Alpha  occ. eigenvalues --  -19.53926 -19.50070 -10.66549 -10.46232  -1.42958
 Alpha  occ. eigenvalues --   -1.31880  -1.01541  -0.95256  -0.82138  -0.78270
 Alpha  occ. eigenvalues --   -0.74342  -0.71810  -0.65498  -0.64861  -0.62080
 Alpha  occ. eigenvalues --   -0.60647
 Alpha virt. eigenvalues --   -0.30341  -0.21191  -0.16468  -0.13054  -0.11908
 Alpha virt. eigenvalues --   -0.11368  -0.08988  -0.08238  -0.05855  -0.05692
 Alpha virt. eigenvalues --   -0.03258  -0.00926  -0.00341   0.00615   0.02228
 Alpha virt. eigenvalues --    0.03901   0.04775   0.07835   0.08989   0.10334
 Alpha virt. eigenvalues --    0.10844   0.13259   0.14662   0.18329   0.18814
 Alpha virt. eigenvalues --    0.40076   0.40999   0.45827   0.48397   0.49039
 Alpha virt. eigenvalues --    0.53375   0.71472   0.74627   0.76680   0.80794
 Alpha virt. eigenvalues --    0.84891   0.87109   0.89852   0.91656   0.98601
 Alpha virt. eigenvalues --    1.03256   1.08618   1.09327   1.11228   1.14884
 Alpha virt. eigenvalues --    1.20378   1.28781   1.33033   1.43450   1.47118
 Alpha virt. eigenvalues --    1.49501   1.53636   1.60470   1.68338   1.69428
 Alpha virt. eigenvalues --    1.98995   2.03580   2.09706   2.14010   2.20156
 Alpha virt. eigenvalues --    2.23872   2.28678   2.32177   2.55341   2.69070
 Alpha virt. eigenvalues --    2.73282   3.76516   3.93242   3.97359   4.25127
          Condensed to atoms (all electrons):
              1          2          3          4          5          6
     1  O    8.109017   0.183446   0.256309  -0.031294   0.001592  -0.004208
     2  H    0.183446   0.283265  -0.007126   0.008684  -0.000095   0.004674
     3  C    0.256309  -0.007126   4.933473   0.041216  -0.036512  -0.046656
     4  C   -0.031294   0.008684   0.041216   5.635668   0.372086   0.386254
     5  H    0.001592  -0.000095  -0.036512   0.372086   0.393448  -0.016868
     6  H   -0.004208   0.004674  -0.046656   0.386254  -0.016868   0.417720
     7  H    0.002130  -0.000073  -0.036491   0.372826  -0.019626  -0.016238
     8  O   -0.054374   0.006757   0.254837  -0.027762  -0.002776   0.007097
     9  H    0.005233  -0.000270  -0.034563   0.019484   0.000303   0.000045
              7          8          9
     1  O    0.002130  -0.054374   0.005233
     2  H   -0.000073   0.006757  -0.000270
     3  C   -0.036491   0.254837  -0.034563
     4  C    0.372826  -0.027762   0.019484
     5  H   -0.019626  -0.002776   0.000303
     6  H   -0.016238   0.007097   0.000045
     7  H    0.391130  -0.003298   0.000542
     8  O   -0.003298   8.012537   0.198714
     9  H    0.000542   0.198714   0.255745
 Mulliken atomic charges:
              1
     1  O   -0.467851
     2  H    0.520738
     3  C    0.675513
     4  C   -0.777161
     5  H    0.308448
     6  H    0.268180
     7  H    0.309098
     8  O   -0.391733
     9  H    0.554768
 Sum of Mulliken atomic charges =   1.00000
 Mulliken charges with hydrogens summed into heavy atoms:
              1
     1  O    0.052887
     3  C    0.675513
     4  C    0.108565
     8  O    0.163035
 Sum of Mulliken charges with hydrogens summed into heavy atoms =   1.00000
 Electronic spatial extent (au):  <R**2>=            266.4474
 Charge=              1.0000 electrons
 Dipole moment (field-independent basis, Debye):
    X=              3.2942    Y=             -1.3995    Z=              0.2304  Tot=              3.5865
 Quadrupole moment (field-independent basis, Debye-Ang):
   XX=            -16.7935   YY=            -13.6514   ZZ=            -21.8357
   XY=              4.8209   XZ=             -0.3317   YZ=             -0.3886
 Traceless Quadrupole moment (field-independent basis, Debye-Ang):
   XX=              0.6334   YY=              3.7755   ZZ=             -4.4088
   XY=              4.8209   XZ=             -0.3317   YZ=             -0.3886
 Octapole moment (field-independent basis, Debye-Ang**2):
  XXX=              5.2894  YYY=             -1.7778  ZZZ=              0.1361  XYY=              0.8534
  XXY=             -1.6518  XXZ=              0.4526  XZZ=              1.3572  YZZ=              0.8053
  YYZ=              0.6631  XYZ=              0.6395
 Hexadecapole moment (field-independent basis, Debye-Ang**3):
 XXXX=           -142.3151 YYYY=           -100.4244 ZZZZ=            -24.1127 XXXY=             11.9214
 XXXZ=             -0.8298 YYYX=             22.6862 YYYZ=             -0.7889 ZZZX=             -0.1286
 ZZZY=             -0.2360 XXYY=            -31.0580 XXZZ=            -26.2998 YYZZ=            -26.0811
 XXYZ=             -0.7940 YYXZ=             -0.7645 ZZXY=              1.0027
 N-N= 1.267753554355D+02 E-N=-7.815811446188D+02  KE= 2.271281753749D+02
 Calling FoFJK, ICntrl=      2127 FMM=F ISym2X=0 I1Cent= 0 IOpClX= 0 NMat=1 NMatS=1 NMatT=0.
 ***** Axes restored to original set *****
 -------------------------------------------------------------------
 Center     Atomic                   Forces (Hartrees/Bohr)
 Number     Number              X              Y              Z
 -------------------------------------------------------------------
      1        8           0.111538132   -0.038625870    0.000757000
      2        1          -0.004183580    0.017490566    0.000045804
      3        6          -0.077839548    0.056583154   -0.002272332
      4        6          -0.031537733   -0.029175337   -0.001050107
      5        1           0.010818407    0.000285359   -0.015963045
      6        1          -0.007032920    0.013884987    0.000448454
      7        1           0.010584846    0.000142102    0.016046447
      8        8          -0.034272533   -0.015751654    0.001270556
      9        1           0.021924929   -0.004833307    0.000717222
 -------------------------------------------------------------------
 Cartesian Forces:  Max     0.111538132 RMS     0.032364995

 GradGradGradGradGradGradGradGradGradGradGradGradGradGradGradGradGradGrad
 Berny optimization.
 Internal  Forces:  Max     0.107354770 RMS     0.023943060
 Search for a local minimum.
 Step number   1 out of a maximum of   39
 All quantities printed in internal units (Hartrees-Bohrs-Radians)
 Mixed Optimization -- RFO/linear search
 Second derivative matrix not updated -- first step.
     Eigenvalues ---    0.00237   0.01118   0.01295   0.03565   0.07243
     Eigenvalues ---    0.07243   0.16000   0.16000   0.16000   0.16000
     Eigenvalues ---    0.16000   0.25000   0.25000   0.28519   0.37230
     Eigenvalues ---    0.37230   0.37230   0.40989   0.55473   0.55473
     Eigenvalues ---    0.802091000.000001000.000001000.000001000.00000
     Eigenvalues --- 1000.000001000.000001000.000001000.00000
 RFO step:  Lambda=-4.10351723D-02 EMin= 2.36824041D-03
 Linear search not attempted -- first point.
 Maximum step size (   0.300) exceeded in Quadratic search.
    -- Step size scaled by   0.902
 Iteration  1 RMS(Cart)=  0.07921364 RMS(Int)=  0.00532059
 Iteration  2 RMS(Cart)=  0.00621815 RMS(Int)=  0.00022290
 Iteration  3 RMS(Cart)=  0.00001278 RMS(Int)=  0.00022272
 Iteration  4 RMS(Cart)=  0.00000000 RMS(Int)=  0.00022272
 Variable       Old X    -DE/DX   Delta X   Delta X   Delta X     New X
                                 (Linear)    (Quad)   (Total)
    R1        1.81414   0.01769   0.00000   0.02679   0.02679   1.84092
    R2        2.70231  -0.10735   0.00000  -0.21473  -0.21473   2.48757
    R3        2.91018  -0.02144   0.00000  -0.05928  -0.05928   2.85090
    R4        2.37803   0.01157   0.00000   0.01238   0.01238   2.39041
    R5        2.02201   0.01927   0.00000   0.04204   0.04204   2.06405
    R6        2.02201   0.01512   0.00000   0.03299   0.03299   2.05500
    R7        2.02201   0.01919   0.00000   0.04188   0.04188   2.06389
    R8        1.81414   0.02064   0.00000   0.03125   0.03125   1.84538
    A1        1.91114  -0.00331   0.00000  -0.01487  -0.01487   1.89627
    A2        2.09241   0.01372   0.00000   0.04253   0.04250   2.13491
    A3        2.09836  -0.03988   0.00000  -0.12360  -0.12363   1.97473
    A4        2.09241   0.02616   0.00000   0.08107   0.08104   2.17345
    A5        1.91063  -0.00186   0.00000  -0.00889  -0.00895   1.90169
    A6        1.91063   0.00616   0.00000   0.02951   0.02953   1.94017
    A7        1.91063  -0.00247   0.00000  -0.01240  -0.01243   1.89820
    A8        1.91063  -0.00119   0.00000  -0.00266  -0.00267   1.90796
    A9        1.91063   0.00082   0.00000  -0.00002  -0.00014   1.91049
   A10        1.91063  -0.00147   0.00000  -0.00555  -0.00549   1.90514
   A11        1.91063   0.01604   0.00000   0.07194   0.07194   1.98258
    D1        0.14931  -0.00182   0.00000  -0.03021  -0.03077   0.11855
    D2       -2.99228  -0.00270   0.00000  -0.04541  -0.04485  -3.03713
    D3       -2.08861  -0.00138   0.00000  -0.01503  -0.01527  -2.10387
    D4        0.00579  -0.00020   0.00000  -0.00566  -0.00592  -0.00013
    D5        2.10018   0.00026   0.00000  -0.00197  -0.00233   2.09786
    D6        1.05299  -0.00050   0.00000   0.00012   0.00045   1.05344
    D7       -3.13580   0.00068   0.00000   0.00950   0.00980  -3.12600
    D8       -1.04141   0.00114   0.00000   0.01318   0.01339  -1.02801
    D9        3.14159   0.00105   0.00000   0.01482   0.01444  -3.12715
   D10        0.00000   0.00017   0.00000  -0.00038   0.00000   0.00000
         Item               Value     Threshold  Converged?
 Maximum Force            0.107355     0.000450     NO 
 RMS     Force            0.023943     0.000300     NO 
 Maximum Displacement     0.242331     0.001800     NO 
 RMS     Displacement     0.082821     0.001200     NO 
 Predicted change in Energy=-2.216683D-02
 GradGradGradGradGradGradGradGradGradGradGradGradGradGradGradGradGradGrad

                          Input orientation:                          
 ---------------------------------------------------------------------
 Center     Atomic      Atomic             Coordinates (Angstroms)
 Number     Number       Type             X           Y           Z
 ---------------------------------------------------------------------
      1          8           0        1.111732    0.658359   -0.008707
      2          1           0        0.746812    1.555701   -0.111790
      3          6           0        2.425833    0.735552   -0.010921
      4          6           0        3.156315    2.055523   -0.004548
      5          1           0        3.785638    2.117123   -0.895145
      6          1           0        2.459109    2.890048    0.001712
      7          1           0        3.783325    2.105648    0.888292
      8          8           0        2.990370   -0.396404   -0.002428
      9          1           0        3.965575   -0.346729    0.008916
 ---------------------------------------------------------------------
                    Distance matrix (angstroms):
                    1          2          3          4          5
     1  O    0.000000
     2  H    0.974174   0.000000
     3  C    1.316368   1.871344   0.000000
     4  C    2.476369   2.463133   1.508631   0.000000
     5  H    3.172309   3.187994   2.130648   1.092249   0.000000
     6  H    2.606908   2.173782   2.154790   1.087459   1.778045
     7  H    3.168070   3.243920   2.128035   1.092162   1.783476
     8  O    2.154494   2.975941   1.264950   2.457536   2.783381
     9  H    3.025712   3.740888   1.882162   2.534935   2.630641
                    6          7          8          9
     6  H    0.000000
     7  H    1.776191   0.000000
     8  O    3.329117   2.771718   0.000000
     9  H    3.570184   2.611641   0.976535   0.000000
 Stoichiometry    C2H5O2(1+)
 Framework group  C1[X(C2H5O2)]
 Deg. of freedom    21
 Full point group                 C1      NOp   1
 Largest Abelian subgroup         C1      NOp   1
 Largest concise Abelian subgroup C1      NOp   1
                         Standard orientation:                         
 ---------------------------------------------------------------------
 Center     Atomic      Atomic             Coordinates (Angstroms)
 Number     Number       Type             X           Y           Z
 ---------------------------------------------------------------------
      1          8           0        0.828867    1.071075   -0.012849
      2          1           0        0.244351    1.844512    0.082814
      3          6           0        0.090743   -0.018774    0.002200
      4          6           0       -1.417151    0.028148   -0.002389
      5          1           0       -1.790459   -0.471629    0.894200
      6          1           0       -1.777977    1.053863   -0.019126
      7          1           0       -1.782121   -0.494675   -0.889108
      8          8           0        0.774996   -1.082678    0.004104
      9          1           0        0.233750   -1.895495    0.002317
 ---------------------------------------------------------------------
 Rotational constants (GHZ):     10.6704262      9.0634433      5.0589423
 Standard basis: 6-31+G(d) (6D, 7F)
 There are    86 symmetry adapted basis functions of A   symmetry.
 Integral buffers will be    262144 words long.
 Raffenetti 2 integral format.
 Two-electron integral symmetry is turned on.
    86 basis functions,   148 primitive gaussians,    86 cartesian basis functions
    16 alpha electrons       16 beta electrons
       nuclear repulsion energy       129.7060612632 Hartrees.
 NAtoms=    9 NActive=    9 NUniq=    9 SFac= 7.50D-01 NAtFMM=   80 NAOKFM=F Big=F
 One-electron integrals computed using PRISM.
 NBasis=    86 RedAO= T  NBF=    86
 NBsUse=    86 1.00D-06 NBFU=    86
 Initial guess read from the read-write file.
 B after Tr=     0.000000    0.000000    0.000000
         Rot=    1.000000    0.000000    0.000000    0.000000 Ang=   0.00 deg.
 Initial guess orbital symmetries:
       Occupied  (A) (A) (A) (A) (A) (A) (A) (A) (A) (A) (A) (A)
                 (A) (A) (A) (A)
       Virtual   (A) (A) (A) (A) (A) (A) (A) (A) (A) (A) (A) (A)
                 (A) (A) (A) (A) (A) (A) (A) (A) (A) (A) (A) (A)
                 (A) (A) (A) (A) (A) (A) (A) (A) (A) (A) (A) (A)
                 (A) (A) (A) (A) (A) (A) (A) (A) (A) (A) (A) (A)
                 (A) (A) (A) (A) (A) (A) (A) (A) (A) (A) (A) (A)
                 (A) (A) (A) (A) (A) (A) (A) (A) (A) (A)
 Harris functional with IExCor= 3102 diagonalized for initial guess.
 ExpMin= 4.38D-02 ExpMax= 5.48D+03 ExpMxC= 8.25D+02 IAcc=2 IRadAn=         0 AccDes= 0.00D+00
 HarFok:  IExCor= 3102 AccDes= 0.00D+00 IRadAn=         0 IDoV= 1
 ScaDFX=  1.000000  1.000000  1.000000  1.000000
 FoFCou: FMM=F IPFlag=           0 FMFlag=      100000 FMFlg1=           0
         NFxFlg=           0 DoJE=T BraDBF=F KetDBF=T FulRan=T
         Omega=  0.000000  0.000000  1.000000  0.000000  0.000000 ICntrl=     500 IOpCl=  0
         NMat0=    1 NMatS0=    1 NMatT0=    0 NMatD0=    1 NMtDS0=    0 NMtDT0=    0
         I1Cent=           4 NGrid=           0.
 Petite list used in FoFCou.
 Requested convergence on RMS density matrix=1.00D-08 within 128 cycles.
 Requested convergence on MAX density matrix=1.00D-06.
 Requested convergence on             energy=1.00D-06.
 No special actions if energy rises.
 Keep R1 ints in memory in canonical form, NReq=8018326.
 SCF Done:  E(RX3LYP) =  -229.298600366     A.U. after   12 cycles
             Convg  =    0.2441D-08             -V/T =  2.0089
 Calling FoFJK, ICntrl=      2127 FMM=F ISym2X=0 I1Cent= 0 IOpClX= 0 NMat=1 NMatS=1 NMatT=0.
 ***** Axes restored to original set *****
 -------------------------------------------------------------------
 Center     Atomic                   Forces (Hartrees/Bohr)
 Number     Number              X              Y              Z
 -------------------------------------------------------------------
      1        8           0.035228508    0.002993927   -0.003458488
      2        1          -0.008973023    0.000550563    0.002303414
      3        6          -0.033493590    0.020672816    0.001117052
      4        6          -0.007210210   -0.014093094   -0.001432940
      5        1           0.003189048    0.001028520   -0.001830534
      6        1          -0.000989933    0.002841534    0.000109868
      7        1           0.003002956    0.000826398    0.002069801
      8        8           0.006644105   -0.012160595    0.000791161
      9        1           0.002602141   -0.002660070    0.000330666
 -------------------------------------------------------------------
 Cartesian Forces:  Max     0.035228508 RMS     0.011214115

 GradGradGradGradGradGradGradGradGradGradGradGradGradGradGradGradGradGrad
 Berny optimization.
 Using GEDIIS/GDIIS optimizer.
 Internal  Forces:  Max     0.026419871 RMS     0.007115164
 Search for a local minimum.
 Step number   2 out of a maximum of   39
 All quantities printed in internal units (Hartrees-Bohrs-Radians)
 Mixed Optimization -- RFO/linear search
 Update second derivatives using D2CorX and points    1    2
 DE= -2.38D-02 DEPred=-2.22D-02 R= 1.08D+00
 SS=  1.41D+00  RLast= 3.00D-01 DXNew= 5.0454D-01 8.9998D-01
 Trust test= 1.08D+00 RLast= 3.00D-01 DXMaxT set to 5.05D-01
 Use linear search instead of GDIIS.
     Eigenvalues ---    0.00237   0.01026   0.01293   0.03565   0.07072
     Eigenvalues ---    0.07339   0.15041   0.16000   0.16000   0.16000
     Eigenvalues ---    0.16474   0.24588   0.27331   0.28153   0.37229
     Eigenvalues ---    0.37230   0.37494   0.38635   0.55421   0.55610
     Eigenvalues ---    0.807171000.000001000.000001000.000001000.00000
     Eigenvalues --- 1000.000001000.000001000.000001000.00000
 RFO step:  Lambda=-3.72251082D-03 EMin= 2.36823982D-03
 Quartic linear search produced a step of  0.19678.
 Iteration  1 RMS(Cart)=  0.03970752 RMS(Int)=  0.00360187
 Iteration  2 RMS(Cart)=  0.00331544 RMS(Int)=  0.00007112
 Iteration  3 RMS(Cart)=  0.00002057 RMS(Int)=  0.00006925
 Iteration  4 RMS(Cart)=  0.00000000 RMS(Int)=  0.00006925
 Variable       Old X    -DE/DX   Delta X   Delta X   Delta X     New X
                                 (Linear)    (Quad)   (Total)
    R1        1.84092   0.00363   0.00527   0.00323   0.00850   1.84942
    R2        2.48757  -0.02642  -0.04225  -0.03569  -0.07794   2.40963
    R3        2.85090  -0.00920  -0.01166  -0.02485  -0.03652   2.81438
    R4        2.39041   0.01740   0.00244   0.02393   0.02636   2.41677
    R5        2.06405   0.00339   0.00827   0.00248   0.01076   2.07481
    R6        2.05500   0.00281   0.00649   0.00244   0.00893   2.06393
    R7        2.06389   0.00346   0.00824   0.00273   0.01097   2.07486
    R8        1.84538   0.00246   0.00615  -0.00002   0.00613   1.85151
    A1        1.89627   0.01509  -0.00293   0.11477   0.11184   2.00811
    A2        2.13491   0.00617   0.00836   0.01903   0.02733   2.16224
    A3        1.97473  -0.00369  -0.02433   0.01214  -0.01225   1.96247
    A4        2.17345  -0.00248   0.01595  -0.03087  -0.01500   2.15845
    A5        1.90169   0.00149  -0.00176   0.01314   0.01132   1.91300
    A6        1.94017   0.00129   0.00581   0.00206   0.00781   1.94798
    A7        1.89820   0.00092  -0.00245   0.00942   0.00695   1.90515
    A8        1.90796  -0.00090  -0.00053  -0.00348  -0.00408   1.90388
    A9        1.91049  -0.00197  -0.00003  -0.01782  -0.01788   1.89262
   A10        1.90514  -0.00088  -0.00108  -0.00366  -0.00477   1.90037
   A11        1.98258   0.00515   0.01416   0.01550   0.02966   2.01224
    D1        0.11855  -0.00202  -0.00605  -0.08429  -0.09053   0.02801
    D2       -3.03713  -0.00216  -0.00883  -0.06173  -0.07037  -3.10749
    D3       -2.10387  -0.00065  -0.00300   0.00267  -0.00037  -2.10424
    D4       -0.00013   0.00001  -0.00116   0.00820   0.00704   0.00691
    D5        2.09786   0.00032  -0.00046   0.01102   0.01055   2.10841
    D6        1.05344  -0.00049   0.00009  -0.02294  -0.02285   1.03059
    D7       -3.12600   0.00017   0.00193  -0.01740  -0.01544  -3.14144
    D8       -1.02801   0.00048   0.00264  -0.01458  -0.01193  -1.03994
    D9       -3.12715   0.00028   0.00284  -0.01095  -0.00798  -3.13513
   D10        0.00000   0.00021   0.00000   0.01267   0.01254   0.01254
         Item               Value     Threshold  Converged?
 Maximum Force            0.026420     0.000450     NO 
 RMS     Force            0.007115     0.000300     NO 
 Maximum Displacement     0.144457     0.001800     NO 
 RMS     Displacement     0.040739     0.001200     NO 
 Predicted change in Energy=-3.148091D-03
 GradGradGradGradGradGradGradGradGradGradGradGradGradGradGradGradGradGrad

                          Input orientation:                          
 ---------------------------------------------------------------------
 Center     Atomic      Atomic             Coordinates (Angstroms)
 Number     Number       Type             X           Y           Z
 ---------------------------------------------------------------------
      1          8           0        1.146658    0.668632   -0.035356
      2          1           0        0.670369    1.522823   -0.071518
      3          6           0        2.418347    0.759860   -0.014813
      4          6           0        3.158130    2.052418   -0.007933
      5          1           0        3.812166    2.107284   -0.888102
      6          1           0        2.476724    2.905940   -0.015610
      7          1           0        3.783332    2.104946    0.893120
      8          8           0        2.989836   -0.384230   -0.007929
      9          1           0        3.969147   -0.362852    0.013523
 ---------------------------------------------------------------------
                    Distance matrix (angstroms):
                    1          2          3          4          5
     1  O    0.000000
     2  H    0.978673   0.000000
     3  C    1.275123   1.908076   0.000000
     4  C    2.441646   2.544301   1.489306   0.000000
     5  H    3.146718   3.298378   2.126245   1.097940   0.000000
     6  H    2.602886   2.275754   2.146874   1.092187   1.783956
     7  H    3.142789   3.310579   2.120562   1.097968   1.781457
     8  O    2.122870   3.003468   1.278901   2.442453   2.767413
     9  H    3.005461   3.800650   1.914749   2.547889   2.634226
                    6          7          8          9
     6  H    0.000000
     7  H    1.781743   0.000000
     8  O    3.329949   2.763607   0.000000
     9  H    3.593491   2.626451   0.979779   0.000000
 Stoichiometry    C2H5O2(1+)
 Framework group  C1[X(C2H5O2)]
 Deg. of freedom    21
 Full point group                 C1      NOp   1
 Largest Abelian subgroup         C1      NOp   1
 Largest concise Abelian subgroup C1      NOp   1
                         Standard orientation:                         
 ---------------------------------------------------------------------
 Center     Atomic      Atomic             Coordinates (Angstroms)
 Number     Number       Type             X           Y           Z
 ---------------------------------------------------------------------
      1          8           0        0.798490    1.058584   -0.003068
      2          1           0        0.296928    1.898546    0.023412
      3          6           0        0.083777    0.002590   -0.002491
      4          6           0       -1.405517    0.007880    0.000444
      5          1           0       -1.774061   -0.517444    0.891332
      6          1           0       -1.804175    1.024696   -0.004992
      7          1           0       -1.769463   -0.521253   -0.890115
      8          8           0        0.789043   -1.064257    0.002475
      9          1           0        0.280948   -1.901980   -0.002616
 ---------------------------------------------------------------------
 Rotational constants (GHZ):     10.8632891      9.1958889      5.1423049
 Standard basis: 6-31+G(d) (6D, 7F)
 There are    86 symmetry adapted basis functions of A   symmetry.
 Integral buffers will be    262144 words long.
 Raffenetti 2 integral format.
 Two-electron integral symmetry is turned on.
    86 basis functions,   148 primitive gaussians,    86 cartesian basis functions
    16 alpha electrons       16 beta electrons
       nuclear repulsion energy       130.5538823264 Hartrees.
 NAtoms=    9 NActive=    9 NUniq=    9 SFac= 7.50D-01 NAtFMM=   80 NAOKFM=F Big=F
 One-electron integrals computed using PRISM.
 NBasis=    86 RedAO= T  NBF=    86
 NBsUse=    86 1.00D-06 NBFU=    86
 Initial guess read from the read-write file.
 B after Tr=     0.000000    0.000000    0.000000
         Rot=    1.000000    0.000000    0.000000    0.000000 Ang=   0.00 deg.
 Initial guess orbital symmetries:
       Occupied  (A) (A) (A) (A) (A) (A) (A) (A) (A) (A) (A) (A)
                 (A) (A) (A) (A)
       Virtual   (A) (A) (A) (A) (A) (A) (A) (A) (A) (A) (A) (A)
                 (A) (A) (A) (A) (A) (A) (A) (A) (A) (A) (A) (A)
                 (A) (A) (A) (A) (A) (A) (A) (A) (A) (A) (A) (A)
                 (A) (A) (A) (A) (A) (A) (A) (A) (A) (A) (A) (A)
                 (A) (A) (A) (A) (A) (A) (A) (A) (A) (A) (A) (A)
                 (A) (A) (A) (A) (A) (A) (A) (A) (A) (A)
 Harris functional with IExCor= 3102 diagonalized for initial guess.
 ExpMin= 4.38D-02 ExpMax= 5.48D+03 ExpMxC= 8.25D+02 IAcc=2 IRadAn=         0 AccDes= 0.00D+00
 HarFok:  IExCor= 3102 AccDes= 0.00D+00 IRadAn=         0 IDoV= 1
 ScaDFX=  1.000000  1.000000  1.000000  1.000000
 FoFCou: FMM=F IPFlag=           0 FMFlag=      100000 FMFlg1=           0
         NFxFlg=           0 DoJE=T BraDBF=F KetDBF=T FulRan=T
         Omega=  0.000000  0.000000  1.000000  0.000000  0.000000 ICntrl=     500 IOpCl=  0
         NMat0=    1 NMatS0=    1 NMatT0=    0 NMatD0=    1 NMtDS0=    0 NMtDT0=    0
         I1Cent=           4 NGrid=           0.
 Petite list used in FoFCou.
 Requested convergence on RMS density matrix=1.00D-08 within 128 cycles.
 Requested convergence on MAX density matrix=1.00D-06.
 Requested convergence on             energy=1.00D-06.
 No special actions if energy rises.
 Keep R1 ints in memory in canonical form, NReq=8018326.
 SCF Done:  E(RX3LYP) =  -229.301137293     A.U. after   11 cycles
             Convg  =    0.2301D-08             -V/T =  2.0087
 Calling FoFJK, ICntrl=      2127 FMM=F ISym2X=0 I1Cent= 0 IOpClX= 0 NMat=1 NMatS=1 NMatT=0.
 ***** Axes restored to original set *****
 -------------------------------------------------------------------
 Center     Atomic                   Forces (Hartrees/Bohr)
 Number     Number              X              Y              Z
 -------------------------------------------------------------------
      1        8          -0.010548119   -0.001129102   -0.000740811
      2        1           0.001111603   -0.001056259    0.000833919
      3        6           0.005426302    0.008451105   -0.001513545
      4        6          -0.000383948   -0.001050453    0.000648192
      5        1           0.000238235    0.000023361    0.000527385
      6        1           0.000699261    0.000196235   -0.000068415
      7        1           0.000569643    0.000448517   -0.000525289
      8        8           0.004768126   -0.006715572    0.000862197
      9        1          -0.001881104    0.000832167   -0.000023634
 -------------------------------------------------------------------
 Cartesian Forces:  Max     0.010548119 RMS     0.003307898

 GradGradGradGradGradGradGradGradGradGradGradGradGradGradGradGradGradGrad
 Berny optimization.
 Using GEDIIS/GDIIS optimizer.
 Internal  Forces:  Max     0.009566145 RMS     0.002329869
 Search for a local minimum.
 Step number   3 out of a maximum of   39
 All quantities printed in internal units (Hartrees-Bohrs-Radians)
 Mixed Optimization -- RFO/linear search
 Update second derivatives using D2CorX and points    1    2    3
 DE= -2.54D-03 DEPred=-3.15D-03 R= 8.06D-01
 SS=  1.41D+00  RLast= 1.95D-01 DXNew= 8.4853D-01 5.8534D-01
 Trust test= 8.06D-01 RLast= 1.95D-01 DXMaxT set to 5.85D-01
 Use linear search instead of GDIIS.
     Eigenvalues ---    0.00237   0.01008   0.01316   0.03566   0.06954
     Eigenvalues ---    0.07239   0.15490   0.16000   0.16000   0.16252
     Eigenvalues ---    0.16613   0.24044   0.27052   0.28438   0.37229
     Eigenvalues ---    0.37230   0.37423   0.49461   0.55461   0.56761
     Eigenvalues ---    0.794181000.000001000.000001000.000001000.00000
     Eigenvalues --- 1000.000001000.000001000.000001000.00000
 RFO step:  Lambda=-3.79197942D-04 EMin= 2.36858014D-03
 Quartic linear search produced a step of -0.08514.
 Iteration  1 RMS(Cart)=  0.02059558 RMS(Int)=  0.00054663
 Iteration  2 RMS(Cart)=  0.00050492 RMS(Int)=  0.00008713
 Iteration  3 RMS(Cart)=  0.00000012 RMS(Int)=  0.00008713
 Variable       Old X    -DE/DX   Delta X   Delta X   Delta X     New X
                                 (Linear)    (Quad)   (Total)
    R1        1.84942  -0.00149  -0.00072  -0.00135  -0.00208   1.84735
    R2        2.40963   0.00957   0.00664   0.01116   0.01779   2.42743
    R3        2.81438   0.00023   0.00311  -0.00336  -0.00025   2.81413
    R4        2.41677   0.00656  -0.00224   0.00944   0.00720   2.42397
    R5        2.07481  -0.00028  -0.00092   0.00090  -0.00001   2.07479
    R6        2.06393  -0.00028  -0.00076   0.00059  -0.00017   2.06376
    R7        2.07486  -0.00008  -0.00093   0.00138   0.00045   2.07530
    R8        1.85151  -0.00187  -0.00052  -0.00208  -0.00260   1.84892
    A1        2.00811  -0.00085  -0.00952   0.00389  -0.00563   2.00248
    A2        2.16224   0.00232  -0.00233   0.01142   0.00885   2.17109
    A3        1.96247  -0.00041   0.00104  -0.00508  -0.00426   1.95821
    A4        2.15845  -0.00191   0.00128  -0.00613  -0.00508   2.15337
    A5        1.91300  -0.00009  -0.00096  -0.00096  -0.00192   1.91108
    A6        1.94798   0.00093  -0.00067   0.00807   0.00740   1.95538
    A7        1.90515   0.00084  -0.00059   0.00457   0.00397   1.90912
    A8        1.90388  -0.00036   0.00035  -0.00189  -0.00154   1.90235
    A9        1.89262  -0.00085   0.00152  -0.00902  -0.00749   1.88512
   A10        1.90037  -0.00052   0.00041  -0.00129  -0.00091   1.89945
   A11        2.01224  -0.00161  -0.00253  -0.00437  -0.00690   2.00534
    D1        0.02801  -0.00045   0.00771  -0.04635  -0.03858  -0.01057
    D2       -3.10749  -0.00086   0.00599  -0.08401  -0.07808   3.09761
    D3       -2.10424  -0.00046   0.00003  -0.02846  -0.02845  -2.13270
    D4        0.00691  -0.00037  -0.00060  -0.02621  -0.02685  -0.01994
    D5        2.10841   0.00012  -0.00090  -0.01967  -0.02058   2.08783
    D6        1.03059   0.00000   0.00195   0.01338   0.01535   1.04594
    D7       -3.14144   0.00009   0.00131   0.01563   0.01695  -3.12448
    D8       -1.03994   0.00059   0.00102   0.02218   0.02323  -1.01672
    D9       -3.13513   0.00023   0.00068   0.02010   0.02063  -3.11449
   D10        0.01254  -0.00020  -0.00107  -0.01753  -0.01845  -0.00591
         Item               Value     Threshold  Converged?
 Maximum Force            0.009566     0.000450     NO 
 RMS     Force            0.002330     0.000300     NO 
 Maximum Displacement     0.069955     0.001800     NO 
 RMS     Displacement     0.020602     0.001200     NO 
 Predicted change in Energy=-2.104802D-04
 GradGradGradGradGradGradGradGradGradGradGradGradGradGradGradGradGradGrad

                          Input orientation:                          
 ---------------------------------------------------------------------
 Center     Atomic      Atomic             Coordinates (Angstroms)
 Number     Number       Type             X           Y           Z
 ---------------------------------------------------------------------
      1          8           0        1.136029    0.662413   -0.051486
      2          1           0        0.659114    1.515593   -0.034500
      3          6           0        2.416618    0.762160   -0.038054
      4          6           0        3.159657    2.052467   -0.012816
      5          1           0        3.828574    2.107179   -0.881730
      6          1           0        2.487203    2.912859   -0.027136
      7          1           0        3.776826    2.099995    0.894321
      8          8           0        2.991693   -0.384053   -0.009201
      9          1           0        3.968996   -0.353794    0.025983
 ---------------------------------------------------------------------
                    Distance matrix (angstroms):
                    1          2          3          4          5
     1  O    0.000000
     2  H    0.977575   0.000000
     3  C    1.284538   1.912196   0.000000
     4  C    2.455365   2.557621   1.489173   0.000000
     5  H    3.166457   3.333655   2.124731   1.097932   0.000000
     6  H    2.625028   2.300939   2.151884   1.092096   1.782899
     7  H    3.151983   3.305202   2.123508   1.098204   1.776819
     8  O    2.130814   3.008358   1.282711   2.442305   2.769100
     9  H    3.010711   3.801787   1.912938   2.539021   2.626794
                    6          7          8          9
     6  H    0.000000
     7  H    1.781280   0.000000
     8  O    3.335335   2.757404   0.000000
     9  H    3.587416   2.609984   0.978404   0.000000
 Stoichiometry    C2H5O2(1+)
 Framework group  C1[X(C2H5O2)]
 Deg. of freedom    21
 Full point group                 C1      NOp   1
 Largest Abelian subgroup         C1      NOp   1
 Largest concise Abelian subgroup C1      NOp   1
                         Standard orientation:                         
 ---------------------------------------------------------------------
 Center     Atomic      Atomic             Coordinates (Angstroms)
 Number     Number       Type             X           Y           Z
 ---------------------------------------------------------------------
      1          8           0        0.850873   -1.029272   -0.000530
      2          1           0        0.385302   -1.888389    0.028003
      3          6           0        0.081132   -0.000978   -0.012661
      4          6           0       -1.406662   -0.063687    0.000552
      5          1           0       -1.803185    0.456079   -0.881529
      6          1           0       -1.773396   -1.092365    0.001738
      7          1           0       -1.785145    0.448601    0.895182
      8          8           0        0.741282    1.098720    0.001992
      9          1           0        0.192362    1.908484    0.017558
 ---------------------------------------------------------------------
 Rotational constants (GHZ):     10.8043334      9.1448616      5.1124996
 Standard basis: 6-31+G(d) (6D, 7F)
 There are    86 symmetry adapted basis functions of A   symmetry.
 Integral buffers will be    262144 words long.
 Raffenetti 2 integral format.
 Two-electron integral symmetry is turned on.
    86 basis functions,   148 primitive gaussians,    86 cartesian basis functions
    16 alpha electrons       16 beta electrons
       nuclear repulsion energy       130.2037821920 Hartrees.
 NAtoms=    9 NActive=    9 NUniq=    9 SFac= 7.50D-01 NAtFMM=   80 NAOKFM=F Big=F
 One-electron integrals computed using PRISM.
 NBasis=    86 RedAO= T  NBF=    86
 NBsUse=    86 1.00D-06 NBFU=    86
 Initial guess read from the read-write file.
 B after Tr=     0.000000    0.000000    0.000000
         Rot=    1.000000    0.000000    0.000000    0.000000 Ang=   0.00 deg.
 Initial guess orbital symmetries:
       Occupied  (A) (A) (A) (A) (A) (A) (A) (A) (A) (A) (A) (A)
                 (A) (A) (A) (A)
       Virtual   (A) (A) (A) (A) (A) (A) (A) (A) (A) (A) (A) (A)
                 (A) (A) (A) (A) (A) (A) (A) (A) (A) (A) (A) (A)
                 (A) (A) (A) (A) (A) (A) (A) (A) (A) (A) (A) (A)
                 (A) (A) (A) (A) (A) (A) (A) (A) (A) (A) (A) (A)
                 (A) (A) (A) (A) (A) (A) (A) (A) (A) (A) (A) (A)
                 (A) (A) (A) (A) (A) (A) (A) (A) (A) (A)
 Harris functional with IExCor= 3102 diagonalized for initial guess.
 ExpMin= 4.38D-02 ExpMax= 5.48D+03 ExpMxC= 8.25D+02 IAcc=2 IRadAn=         0 AccDes= 0.00D+00
 HarFok:  IExCor= 3102 AccDes= 0.00D+00 IRadAn=         0 IDoV= 1
 ScaDFX=  1.000000  1.000000  1.000000  1.000000
 FoFCou: FMM=F IPFlag=           0 FMFlag=      100000 FMFlg1=           0
         NFxFlg=           0 DoJE=T BraDBF=F KetDBF=T FulRan=T
         Omega=  0.000000  0.000000  1.000000  0.000000  0.000000 ICntrl=     500 IOpCl=  0
         NMat0=    1 NMatS0=    1 NMatT0=    0 NMatD0=    1 NMtDS0=    0 NMtDT0=    0
         I1Cent=           4 NGrid=           0.
 Petite list used in FoFCou.
 Requested convergence on RMS density matrix=1.00D-08 within 128 cycles.
 Requested convergence on MAX density matrix=1.00D-06.
 Requested convergence on             energy=1.00D-06.
 No special actions if energy rises.
 Keep R1 ints in memory in canonical form, NReq=8018326.
 SCF Done:  E(RX3LYP) =  -229.301201145     A.U. after   12 cycles
             Convg  =    0.2868D-08             -V/T =  2.0088
 Calling FoFJK, ICntrl=      2127 FMM=F ISym2X=0 I1Cent= 0 IOpClX= 0 NMat=1 NMatS=1 NMatT=0.
 ***** Axes restored to original set *****
 -------------------------------------------------------------------
 Center     Atomic                   Forces (Hartrees/Bohr)
 Number     Number              X              Y              Z
 -------------------------------------------------------------------
      1        8           0.001388312   -0.000464495   -0.000604316
      2        1           0.000541807    0.000083444   -0.001138860
      3        6          -0.002265164    0.002915848    0.005151801
      4        6          -0.000483539   -0.000629427   -0.000956015
      5        1           0.000034991    0.000172022    0.000116892
      6        1           0.000178022   -0.000160836   -0.000305724
      7        1          -0.000018870   -0.000257204   -0.000191968
      8        8           0.001035584   -0.002068630   -0.001234064
      9        1          -0.000411142    0.000409277   -0.000837746
 -------------------------------------------------------------------
 Cartesian Forces:  Max     0.005151801 RMS     0.001414683

 GradGradGradGradGradGradGradGradGradGradGradGradGradGradGradGradGradGrad
 Berny optimization.
 Using GEDIIS/GDIIS optimizer.
 Internal  Forces:  Max     0.001876401 RMS     0.000813571
 Search for a local minimum.
 Step number   4 out of a maximum of   39
 All quantities printed in internal units (Hartrees-Bohrs-Radians)
 Mixed Optimization -- En-DIIS/RFO-DIIS
 Update second derivatives using D2CorX and points    1    2    3    4
 DE= -6.39D-05 DEPred=-2.10D-04 R= 3.03D-01
 Trust test= 3.03D-01 RLast= 1.10D-01 DXMaxT set to 5.85D-01
 Use linear search instead of GDIIS.
     Eigenvalues ---    0.00236   0.01028   0.02771   0.03983   0.06835
     Eigenvalues ---    0.07048   0.14562   0.16000   0.16065   0.16268
     Eigenvalues ---    0.16917   0.21711   0.27117   0.28266   0.37223
     Eigenvalues ---    0.37232   0.37549   0.51192   0.55455   0.56626
     Eigenvalues ---    0.680361000.000001000.000001000.000001000.00000
     Eigenvalues --- 1000.000001000.000001000.000001000.00000
 RFO step:  Lambda=-2.02571210D-04 EMin= 2.35850246D-03
 Quartic linear search produced a step of -0.41070.
 Iteration  1 RMS(Cart)=  0.01602700 RMS(Int)=  0.00029206
 Iteration  2 RMS(Cart)=  0.00036746 RMS(Int)=  0.00016915
 Iteration  3 RMS(Cart)=  0.00000004 RMS(Int)=  0.00016915
 Variable       Old X    -DE/DX   Delta X   Delta X   Delta X     New X
                                 (Linear)    (Quad)   (Total)
    R1        1.84735  -0.00021   0.00085  -0.00154  -0.00069   1.84666
    R2        2.42743  -0.00188  -0.00731   0.00886   0.00155   2.42898
    R3        2.81413  -0.00093   0.00010  -0.00448  -0.00438   2.80975
    R4        2.42397   0.00172  -0.00296   0.00981   0.00685   2.43083
    R5        2.07479  -0.00006   0.00001   0.00083   0.00083   2.07563
    R6        2.06376  -0.00023   0.00007   0.00025   0.00032   2.06409
    R7        2.07530  -0.00018  -0.00018   0.00112   0.00094   2.07624
    R8        1.84892  -0.00043   0.00107  -0.00236  -0.00129   1.84762
    A1        2.00248  -0.00091   0.00231  -0.00263  -0.00032   2.00216
    A2        2.17109   0.00034  -0.00364   0.01176   0.00763   2.17873
    A3        1.95821  -0.00002   0.00175  -0.00517  -0.00390   1.95431
    A4        2.15337  -0.00027   0.00209  -0.00520  -0.00359   2.14978
    A5        1.91108   0.00026   0.00079  -0.00069   0.00010   1.91118
    A6        1.95538   0.00008  -0.00304   0.00825   0.00521   1.96059
    A7        1.90912  -0.00029  -0.00163   0.00328   0.00165   1.91077
    A8        1.90235  -0.00022   0.00063  -0.00269  -0.00206   1.90028
    A9        1.88512  -0.00008   0.00308  -0.00888  -0.00581   1.87932
   A10        1.89945   0.00025   0.00037   0.00007   0.00044   1.89990
   A11        2.00534  -0.00079   0.00283  -0.00740  -0.00456   2.00078
    D1       -0.01057   0.00019   0.01585  -0.04070  -0.02493  -0.03550
    D2        3.09761   0.00173   0.03207   0.00466   0.03680   3.13442
    D3       -2.13270   0.00079   0.01169   0.01038   0.02211  -2.11059
    D4       -0.01994   0.00075   0.01103   0.01193   0.02300   0.00307
    D5        2.08783   0.00091   0.00845   0.01962   0.02812   2.11595
    D6        1.04594  -0.00092  -0.00631  -0.03997  -0.04632   0.99962
    D7       -3.12448  -0.00097  -0.00696  -0.03842  -0.04542   3.11328
    D8       -1.01672  -0.00081  -0.00954  -0.03072  -0.04031  -1.05702
    D9       -3.11449  -0.00146  -0.00847  -0.03193  -0.04017   3.12852
   D10       -0.00591   0.00008   0.00758   0.01327   0.02062   0.01470
         Item               Value     Threshold  Converged?
 Maximum Force            0.001876     0.000450     NO 
 RMS     Force            0.000814     0.000300     NO 
 Maximum Displacement     0.048848     0.001800     NO 
 RMS     Displacement     0.016042     0.001200     NO 
 Predicted change in Energy=-1.614651D-04
 GradGradGradGradGradGradGradGradGradGradGradGradGradGradGradGradGradGrad

                          Input orientation:                          
 ---------------------------------------------------------------------
 Center     Atomic      Atomic             Coordinates (Angstroms)
 Number     Number       Type             X           Y           Z
 ---------------------------------------------------------------------
      1          8           0        1.133295    0.659270   -0.050449
      2          1           0        0.652386    1.509940   -0.045229
      3          6           0        2.413686    0.765507   -0.012205
      4          6           0        3.159320    2.051872   -0.006347
      5          1           0        3.830798    2.090452   -0.874710
      6          1           0        2.493828    2.917505   -0.035468
      7          1           0        3.780028    2.111442    0.898261
      8          8           0        2.992221   -0.383389   -0.012679
      9          1           0        3.969147   -0.347780    0.004207
 ---------------------------------------------------------------------
                    Distance matrix (angstroms):
                    1          2          3          4          5
     1  O    0.000000
     2  H    0.977210   0.000000
     3  C    1.285360   1.912446   0.000000
     4  C    2.458875   2.565136   1.486856   0.000000
     5  H    3.162943   3.335766   2.123111   1.098374   0.000000
     6  H    2.636456   2.317809   2.153616   1.092268   1.782087
     7  H    3.164498   3.321765   2.123059   1.098699   1.773821
     8  O    2.131706   3.010079   1.286337   2.440996   2.750672
     9  H    3.009849   3.801903   1.912886   2.532639   2.595498
                    6          7          8          9
     6  H    0.000000
     7  H    1.782105   0.000000
     8  O    3.338385   2.770312   0.000000
     9  H    3.583326   2.623522   0.977721   0.000000
 Stoichiometry    C2H5O2(1+)
 Framework group  C1[X(C2H5O2)]
 Deg. of freedom    21
 Full point group                 C1      NOp   1
 Largest Abelian subgroup         C1      NOp   1
 Largest concise Abelian subgroup C1      NOp   1
                         Standard orientation:                         
 ---------------------------------------------------------------------
 Center     Atomic      Atomic             Coordinates (Angstroms)
 Number     Number       Type             X           Y           Z
 ---------------------------------------------------------------------
      1          8           0        0.872033   -1.014318   -0.003855
      2          1           0        0.425691   -1.883537    0.009499
      3          6           0        0.079109   -0.002758    0.009076
      4          6           0       -1.405314   -0.087091   -0.001685
      5          1           0       -1.796105    0.439001   -0.883124
      6          1           0       -1.762290   -1.119232   -0.019064
      7          1           0       -1.807149    0.412643    0.890467
      8          8           0        0.720855    1.112018   -0.000992
      9          1           0        0.153975    1.908622   -0.003347
 ---------------------------------------------------------------------
 Rotational constants (GHZ):     10.8016580      9.1311456      5.1068943
 Standard basis: 6-31+G(d) (6D, 7F)
 There are    86 symmetry adapted basis functions of A   symmetry.
 Integral buffers will be    262144 words long.
 Raffenetti 2 integral format.
 Two-electron integral symmetry is turned on.
    86 basis functions,   148 primitive gaussians,    86 cartesian basis functions
    16 alpha electrons       16 beta electrons
       nuclear repulsion energy       130.1309369068 Hartrees.
 NAtoms=    9 NActive=    9 NUniq=    9 SFac= 7.50D-01 NAtFMM=   80 NAOKFM=F Big=F
 One-electron integrals computed using PRISM.
 NBasis=    86 RedAO= T  NBF=    86
 NBsUse=    86 1.00D-06 NBFU=    86
 Initial guess read from the read-write file.
 B after Tr=     0.000000    0.000000    0.000000
         Rot=    1.000000    0.000000    0.000000    0.000000 Ang=   0.00 deg.
 Initial guess orbital symmetries:
       Occupied  (A) (A) (A) (A) (A) (A) (A) (A) (A) (A) (A) (A)
                 (A) (A) (A) (A)
       Virtual   (A) (A) (A) (A) (A) (A) (A) (A) (A) (A) (A) (A)
                 (A) (A) (A) (A) (A) (A) (A) (A) (A) (A) (A) (A)
                 (A) (A) (A) (A) (A) (A) (A) (A) (A) (A) (A) (A)
                 (A) (A) (A) (A) (A) (A) (A) (A) (A) (A) (A) (A)
                 (A) (A) (A) (A) (A) (A) (A) (A) (A) (A) (A) (A)
                 (A) (A) (A) (A) (A) (A) (A) (A) (A) (A)
 Harris functional with IExCor= 3102 diagonalized for initial guess.
 ExpMin= 4.38D-02 ExpMax= 5.48D+03 ExpMxC= 8.25D+02 IAcc=2 IRadAn=         0 AccDes= 0.00D+00
 HarFok:  IExCor= 3102 AccDes= 0.00D+00 IRadAn=         0 IDoV= 1
 ScaDFX=  1.000000  1.000000  1.000000  1.000000
 FoFCou: FMM=F IPFlag=           0 FMFlag=      100000 FMFlg1=           0
         NFxFlg=           0 DoJE=T BraDBF=F KetDBF=T FulRan=T
         Omega=  0.000000  0.000000  1.000000  0.000000  0.000000 ICntrl=     500 IOpCl=  0
         NMat0=    1 NMatS0=    1 NMatT0=    0 NMatD0=    1 NMtDS0=    0 NMtDT0=    0
         I1Cent=           4 NGrid=           0.
 Petite list used in FoFCou.
 Requested convergence on RMS density matrix=1.00D-08 within 128 cycles.
 Requested convergence on MAX density matrix=1.00D-06.
 Requested convergence on             energy=1.00D-06.
 No special actions if energy rises.
 Keep R1 ints in memory in canonical form, NReq=8018326.
 SCF Done:  E(RX3LYP) =  -229.301256086     A.U. after   10 cycles
             Convg  =    0.4031D-08             -V/T =  2.0089
 Calling FoFJK, ICntrl=      2127 FMM=F ISym2X=0 I1Cent= 0 IOpClX= 0 NMat=1 NMatS=1 NMatT=0.
 ***** Axes restored to original set *****
 -------------------------------------------------------------------
 Center     Atomic                   Forces (Hartrees/Bohr)
 Number     Number              X              Y              Z
 -------------------------------------------------------------------
      1        8           0.002844774    0.000232951    0.001667877
      2        1           0.000283698    0.000484625   -0.000212272
      3        6          -0.001871127   -0.002180299   -0.004082441
      4        6           0.000296381    0.000769393    0.001572872
      5        1          -0.000477536   -0.000352381    0.000005951
      6        1          -0.000054621   -0.000457380    0.000077546
      7        1          -0.000313460   -0.000001648   -0.000181662
      8        8          -0.000928086    0.001326281    0.000976046
      9        1           0.000219978    0.000178457    0.000176084
 -------------------------------------------------------------------
 Cartesian Forces:  Max     0.004082441 RMS     0.001272939

 GradGradGradGradGradGradGradGradGradGradGradGradGradGradGradGradGradGrad
 Berny optimization.
 Using GEDIIS/GDIIS optimizer.
 Internal  Forces:  Max     0.003219029 RMS     0.000839567
 Search for a local minimum.
 Step number   5 out of a maximum of   39
 All quantities printed in internal units (Hartrees-Bohrs-Radians)
 Mixed Optimization -- En-DIIS/RFO-DIIS
 Swaping is turned off.
 Update second derivatives using D2CorX and points    1    2    3    4    5
 DE= -5.49D-05 DEPred=-1.61D-04 R= 3.40D-01
 Trust test= 3.40D-01 RLast= 1.09D-01 DXMaxT set to 5.85D-01
     Eigenvalues ---    0.00238   0.01539   0.03051   0.04718   0.06625
     Eigenvalues ---    0.07050   0.14001   0.16003   0.16246   0.16284
     Eigenvalues ---    0.16730   0.21335   0.27706   0.28160   0.37217
     Eigenvalues ---    0.37232   0.38105   0.52793   0.55433   0.57998
     Eigenvalues ---    0.662751000.000001000.000001000.000001000.00000
     Eigenvalues --- 1000.000001000.000001000.000001000.00000
 En-DIIS/RFO-DIIS IScMMF=        0 using points:     5    4
 RFO step:  Lambda=-4.11600870D-05.
 DIIS coeffs:      0.60502      0.39498
 Iteration  1 RMS(Cart)=  0.00903784 RMS(Int)=  0.00010432
 Iteration  2 RMS(Cart)=  0.00010187 RMS(Int)=  0.00003427
 Iteration  3 RMS(Cart)=  0.00000002 RMS(Int)=  0.00003427
 Variable       Old X    -DE/DX   Delta X   Delta X   Delta X     New X
                                  (DIIS)     (GDIIS)  (Total)
    R1        1.84666   0.00028   0.00027   0.00005   0.00032   1.84698
    R2        2.42898  -0.00322  -0.00061  -0.00380  -0.00441   2.42456
    R3        2.80975  -0.00031   0.00173  -0.00109   0.00064   2.81039
    R4        2.43083  -0.00166  -0.00271  -0.00033  -0.00304   2.42779
    R5        2.07563  -0.00031  -0.00033  -0.00053  -0.00086   2.07476
    R6        2.06409  -0.00033  -0.00013  -0.00063  -0.00076   2.06333
    R7        2.07624  -0.00033  -0.00037  -0.00063  -0.00100   2.07524
    R8        1.84762   0.00023   0.00051  -0.00011   0.00040   1.84802
    A1        2.00216  -0.00088   0.00013  -0.00320  -0.00307   1.99909
    A2        2.17873  -0.00115  -0.00302  -0.00171  -0.00462   2.17411
    A3        1.95431   0.00081   0.00154   0.00188   0.00352   1.95784
    A4        2.14978   0.00036   0.00142  -0.00006   0.00146   2.15124
    A5        1.91118  -0.00058  -0.00004  -0.00117  -0.00121   1.90997
    A6        1.96059  -0.00041  -0.00206  -0.00123  -0.00329   1.95730
    A7        1.91077   0.00015  -0.00065   0.00029  -0.00036   1.91041
    A8        1.90028   0.00037   0.00081   0.00015   0.00096   1.90124
    A9        1.87932   0.00039   0.00229   0.00116   0.00345   1.88277
   A10        1.89990   0.00013  -0.00018   0.00091   0.00074   1.90064
   A11        2.00078  -0.00032   0.00180  -0.00226  -0.00046   2.00032
    D1       -0.03550   0.00069   0.00985   0.02671   0.03657   0.00108
    D2        3.13442  -0.00030  -0.01454   0.02251   0.00796  -3.14081
    D3       -2.11059  -0.00038  -0.00873   0.00106  -0.00767  -2.11826
    D4        0.00307  -0.00058  -0.00909  -0.00037  -0.00946  -0.00639
    D5        2.11595  -0.00059  -0.01111   0.00017  -0.01093   2.10501
    D6        0.99962   0.00073   0.01829   0.00574   0.02404   1.02366
    D7        3.11328   0.00053   0.01794   0.00431   0.02225   3.13553
    D8       -1.05702   0.00052   0.01592   0.00485   0.02077  -1.03625
    D9        3.12852   0.00062   0.01587  -0.00097   0.01488  -3.13978
   D10        0.01470  -0.00033  -0.00814  -0.00505  -0.01318   0.00152
         Item               Value     Threshold  Converged?
 Maximum Force            0.003219     0.000450     NO 
 RMS     Force            0.000840     0.000300     NO 
 Maximum Displacement     0.016496     0.001800     NO 
 RMS     Displacement     0.009015     0.001200     NO 
 Predicted change in Energy=-6.334567D-05
 GradGradGradGradGradGradGradGradGradGradGradGradGradGradGradGradGradGrad

                          Input orientation:                          
 ---------------------------------------------------------------------
 Center     Atomic      Atomic             Coordinates (Angstroms)
 Number     Number       Type             X           Y           Z
 ---------------------------------------------------------------------
      1          8           0        1.135750    0.661502   -0.043624
      2          1           0        0.660637    1.515571   -0.053761
      3          6           0        2.414514    0.763346   -0.020349
      4          6           0        3.158326    2.051108   -0.007543
      5          1           0        3.823735    2.097301   -0.879620
      6          1           0        2.488762    2.913364   -0.026739
      7          1           0        3.781468    2.104682    0.895121
      8          8           0        2.992223   -0.384106   -0.008769
      9          1           0        3.969293   -0.347948    0.010665
 ---------------------------------------------------------------------
                    Distance matrix (angstroms):
                    1          2          3          4          5
     1  O    0.000000
     2  H    0.977378   0.000000
     3  C    1.283024   1.908676   0.000000
     4  C    2.454204   2.554875   1.487195   0.000000
     5  H    3.160011   3.320489   2.122189   1.097917   0.000000
     6  H    2.627128   2.301434   2.151309   1.091865   1.781998
     7  H    3.156554   3.314667   2.122695   1.098171   1.775260
     8  O    2.130963   3.007838   1.284729   2.440872   2.758111
     9  H    3.008472   3.797902   1.911354   2.532483   2.606346
                    6          7          8          9
     6  H    0.000000
     7  H    1.781820   0.000000
     8  O    3.335731   2.762968   0.000000
     9  H    3.581833   2.613989   0.977932   0.000000
 Stoichiometry    C2H5O2(1+)
 Framework group  C1[X(C2H5O2)]
 Deg. of freedom    21
 Full point group                 C1      NOp   1
 Largest Abelian subgroup         C1      NOp   1
 Largest concise Abelian subgroup C1      NOp   1
                         Standard orientation:                         
 ---------------------------------------------------------------------
 Center     Atomic      Atomic             Coordinates (Angstroms)
 Number     Number       Type             X           Y           Z
 ---------------------------------------------------------------------
      1          8           0        0.854357   -1.026185    0.000189
      2          1           0        0.389848   -1.886127   -0.000467
      3          6           0        0.080709   -0.002652   -0.000138
      4          6           0       -1.405051   -0.067962   -0.000081
      5          1           0       -1.793677    0.454111   -0.884293
      6          1           0       -1.771827   -1.096363   -0.006188
      7          1           0       -1.793654    0.442981    0.890932
      8          8           0        0.737392    1.101565   -0.000173
      9          1           0        0.181375    1.906048    0.001194
 ---------------------------------------------------------------------
 Rotational constants (GHZ):     10.8081253      9.1561858      5.1162946
 Standard basis: 6-31+G(d) (6D, 7F)
 There are    86 symmetry adapted basis functions of A   symmetry.
 Integral buffers will be    262144 words long.
 Raffenetti 2 integral format.
 Two-electron integral symmetry is turned on.
    86 basis functions,   148 primitive gaussians,    86 cartesian basis functions
    16 alpha electrons       16 beta electrons
       nuclear repulsion energy       130.2440977550 Hartrees.
 NAtoms=    9 NActive=    9 NUniq=    9 SFac= 7.50D-01 NAtFMM=   80 NAOKFM=F Big=F
 One-electron integrals computed using PRISM.
 NBasis=    86 RedAO= T  NBF=    86
 NBsUse=    86 1.00D-06 NBFU=    86
 Initial guess read from the read-write file.
 B after Tr=     0.000000    0.000000    0.000000
         Rot=    1.000000    0.000000    0.000000    0.000000 Ang=   0.00 deg.
 Initial guess orbital symmetries:
       Occupied  (A) (A) (A) (A) (A) (A) (A) (A) (A) (A) (A) (A)
                 (A) (A) (A) (A)
       Virtual   (A) (A) (A) (A) (A) (A) (A) (A) (A) (A) (A) (A)
                 (A) (A) (A) (A) (A) (A) (A) (A) (A) (A) (A) (A)
                 (A) (A) (A) (A) (A) (A) (A) (A) (A) (A) (A) (A)
                 (A) (A) (A) (A) (A) (A) (A) (A) (A) (A) (A) (A)
                 (A) (A) (A) (A) (A) (A) (A) (A) (A) (A) (A) (A)
                 (A) (A) (A) (A) (A) (A) (A) (A) (A) (A)
 Requested convergence on RMS density matrix=1.00D-08 within 128 cycles.
 Requested convergence on MAX density matrix=1.00D-06.
 Requested convergence on             energy=1.00D-06.
 No special actions if energy rises.
 Keep R1 ints in memory in canonical form, NReq=8018326.
 SCF Done:  E(RX3LYP) =  -229.301321123     A.U. after   10 cycles
             Convg  =    0.4106D-08             -V/T =  2.0088
 Calling FoFJK, ICntrl=      2127 FMM=F ISym2X=0 I1Cent= 0 IOpClX= 0 NMat=1 NMatS=1 NMatT=0.
 ***** Axes restored to original set *****
 -------------------------------------------------------------------
 Center     Atomic                   Forces (Hartrees/Bohr)
 Number     Number              X              Y              Z
 -------------------------------------------------------------------
      1        8           0.000220060   -0.000041273   -0.000028619
      2        1           0.000036812    0.000106855    0.000009005
      3        6          -0.000313181   -0.000002758    0.000046945
      4        6           0.000088664    0.000145365    0.000040063
      5        1          -0.000023376    0.000033036   -0.000016097
      6        1           0.000025268   -0.000059197   -0.000012764
      7        1          -0.000102681   -0.000063200   -0.000056264
      8        8           0.000044231   -0.000173120    0.000056816
      9        1           0.000024203    0.000054291   -0.000039086
 -------------------------------------------------------------------
 Cartesian Forces:  Max     0.000313181 RMS     0.000097907

 GradGradGradGradGradGradGradGradGradGradGradGradGradGradGradGradGradGrad
 Berny optimization.
 Using GEDIIS/GDIIS optimizer.
 Internal  Forces:  Max     0.000260907 RMS     0.000083091
 Search for a local minimum.
 Step number   6 out of a maximum of   39
 All quantities printed in internal units (Hartrees-Bohrs-Radians)
 Mixed Optimization -- En-DIIS/RFO-DIIS
 Swaping is turned off.
 Update second derivatives using D2CorX and points    1    2    3    4    5
                                                      6
 DE= -6.50D-05 DEPred=-6.33D-05 R= 1.03D+00
 SS=  1.41D+00  RLast= 6.06D-02 DXNew= 9.8441D-01 1.8177D-01
 Trust test= 1.03D+00 RLast= 6.06D-02 DXMaxT set to 5.85D-01
     Eigenvalues ---    0.00238   0.01591   0.03102   0.04722   0.06802
     Eigenvalues ---    0.07096   0.14809   0.15792   0.16030   0.16239
     Eigenvalues ---    0.16554   0.22089   0.27588   0.28298   0.37216
     Eigenvalues ---    0.37236   0.38061   0.52349   0.55445   0.57893
     Eigenvalues ---    0.695071000.000001000.000001000.000001000.00000
     Eigenvalues --- 1000.000001000.000001000.000001000.00000
 En-DIIS/RFO-DIIS IScMMF=        0 using points:     6    5    4
 RFO step:  Lambda=-3.72996652D-07.
 DIIS coeffs:      1.04197     -0.02795     -0.01403
 Iteration  1 RMS(Cart)=  0.00079764 RMS(Int)=  0.00000202
 Iteration  2 RMS(Cart)=  0.00000051 RMS(Int)=  0.00000195
 Variable       Old X    -DE/DX   Delta X   Delta X   Delta X     New X
                                  (DIIS)     (GDIIS)  (Total)
    R1        1.84698   0.00007   0.00000   0.00012   0.00012   1.84710
    R2        2.42456  -0.00026  -0.00016  -0.00033  -0.00049   2.42407
    R3        2.81039   0.00004  -0.00003   0.00024   0.00021   2.81060
    R4        2.42779   0.00014  -0.00003   0.00020   0.00017   2.42795
    R5        2.07476   0.00000  -0.00002   0.00001  -0.00002   2.07475
    R6        2.06333  -0.00006  -0.00003  -0.00015  -0.00018   2.06314
    R7        2.07524  -0.00011  -0.00003  -0.00029  -0.00032   2.07493
    R8        1.84802   0.00003   0.00000   0.00004   0.00004   1.84806
    A1        1.99909  -0.00015  -0.00013  -0.00089  -0.00102   1.99807
    A2        2.17411  -0.00013  -0.00009  -0.00046  -0.00055   2.17356
    A3        1.95784   0.00013   0.00009   0.00047   0.00056   1.95840
    A4        2.15124   0.00000   0.00001  -0.00002  -0.00001   2.15123
    A5        1.90997   0.00005  -0.00005   0.00048   0.00043   1.91040
    A6        1.95730  -0.00002  -0.00006  -0.00015  -0.00022   1.95708
    A7        1.91041  -0.00011   0.00001  -0.00069  -0.00069   1.90972
    A8        1.90124  -0.00002   0.00001  -0.00012  -0.00011   1.90114
    A9        1.88277   0.00005   0.00006   0.00042   0.00049   1.88326
   A10        1.90064   0.00004   0.00004   0.00009   0.00013   1.90076
   A11        2.00032  -0.00010  -0.00008  -0.00058  -0.00067   1.99965
    D1        0.00108  -0.00001   0.00119  -0.00218  -0.00099   0.00008
    D2       -3.14081  -0.00001   0.00085  -0.00185  -0.00100   3.14137
    D3       -2.11826   0.00001  -0.00001   0.00070   0.00069  -2.11757
    D4       -0.00639   0.00001  -0.00007   0.00078   0.00071  -0.00568
    D5        2.10501  -0.00002  -0.00006   0.00032   0.00025   2.10527
    D6        1.02366   0.00001   0.00036   0.00034   0.00069   1.02435
    D7        3.13553   0.00001   0.00030   0.00041   0.00071   3.13624
    D8       -1.03625  -0.00002   0.00031  -0.00005   0.00026  -1.03599
    D9       -3.13978  -0.00003   0.00006  -0.00097  -0.00090  -3.14068
   D10        0.00152  -0.00003  -0.00026  -0.00064  -0.00091   0.00061
         Item               Value     Threshold  Converged?
 Maximum Force            0.000261     0.000450     YES
 RMS     Force            0.000083     0.000300     YES
 Maximum Displacement     0.002495     0.001800     NO 
 RMS     Displacement     0.000798     0.001200     YES
 Predicted change in Energy=-4.001682D-07
 GradGradGradGradGradGradGradGradGradGradGradGradGradGradGradGradGradGrad

                          Input orientation:                          
 ---------------------------------------------------------------------
 Center     Atomic      Atomic             Coordinates (Angstroms)
 Number     Number       Type             X           Y           Z
 ---------------------------------------------------------------------
      1          8           0        1.135890    0.661690   -0.043927
      2          1           0        0.661957    1.516496   -0.053550
      3          6           0        2.414430    0.762988   -0.020337
      4          6           0        3.158123    2.050946   -0.007724
      5          1           0        3.823388    2.097686   -0.879872
      6          1           0        2.488305    2.912888   -0.026658
      7          1           0        3.780865    2.104081    0.895040
      8          8           0        2.992341   -0.384457   -0.008239
      9          1           0        3.969410   -0.347499    0.010649
 ---------------------------------------------------------------------
                    Distance matrix (angstroms):
                    1          2          3          4          5
     1  O    0.000000
     2  H    0.977444   0.000000
     3  C    1.282764   1.907889   0.000000
     4  C    2.453726   2.553152   1.487305   0.000000
     5  H    3.159673   3.318921   2.122589   1.097909   0.000000
     6  H    2.626256   2.299170   2.151179   1.091769   1.781846
     7  H    3.155637   3.312501   2.122166   1.098004   1.775433
     8  O    2.131222   3.007717   1.284818   2.441039   2.758880
     9  H    3.008368   3.797084   1.911048   2.532008   2.606393
                    6          7          8          9
     6  H    0.000000
     7  H    1.781686   0.000000
     8  O    3.335697   2.762337   0.000000
[...]
                    13                     14                     15
                     A                      A                      A
 Frequencies --  1476.0327              1483.6856              1560.0152
 Red. masses --     1.0414                 1.1277                 6.0636
 Frc consts  --     1.3368                 1.4626                 8.6944
 IR Inten    --    19.5629                47.1687               303.5558
  Atom  AN      X      Y      Z        X      Y      Z        X      Y      Z
     1   8     0.00   0.00   0.00     0.03  -0.03   0.00    -0.18   0.11   0.00
     2   1     0.00   0.00   0.02    -0.06   0.02   0.00     0.47  -0.20   0.00
     3   6     0.00   0.00  -0.03    -0.04   0.04   0.00     0.54   0.07   0.00
     4   6     0.00   0.00  -0.04    -0.06  -0.05   0.00    -0.16  -0.03   0.00
     5   1     0.33   0.36   0.04     0.13   0.49   0.23     0.03   0.20   0.07
     6   1    -0.02   0.01   0.69     0.57  -0.25   0.03     0.12  -0.13   0.00
     7   1    -0.34  -0.40   0.06     0.10   0.46  -0.22     0.03   0.20  -0.07
     8   8     0.00   0.00   0.01     0.01  -0.01   0.00    -0.17  -0.15   0.00
     9   1     0.00   0.00  -0.02    -0.11  -0.09   0.00     0.39   0.19   0.00
                    16                     17                     18
                     A                      A                      A
 Frequencies --  1666.4042              3057.2955              3120.5135
 Red. masses --     4.8247                 1.0388                 1.1012
 Frc consts  --     7.8937                 5.7208                 6.3178
 IR Inten    --   198.6003                23.0308                14.0601
  Atom  AN      X      Y      Z        X      Y      Z        X      Y      Z
     1   8     0.07  -0.16   0.00     0.00   0.00   0.00     0.00   0.00   0.00
     2   1     0.31  -0.28   0.00     0.00   0.00   0.00     0.00   0.00   0.00
     3   6    -0.05   0.52   0.00     0.00   0.00   0.00     0.00   0.00   0.00
     4   6     0.01  -0.05   0.00    -0.05   0.02   0.00     0.00   0.00   0.09
     5   1     0.19  -0.12  -0.13     0.22  -0.31   0.53    -0.25   0.35  -0.56
     6   1    -0.41   0.11   0.00     0.12   0.35   0.00     0.00  -0.01   0.02
     7   1     0.18  -0.12   0.12     0.23  -0.30  -0.54     0.25  -0.34  -0.56
     8   8    -0.04  -0.15   0.00     0.00   0.00   0.00     0.00   0.00   0.00
     9   1    -0.29  -0.31   0.00     0.00   0.00   0.00     0.00   0.00   0.00
                    19                     20                     21
                     A                      A                      A
 Frequencies --  3176.3944              3671.5017              3684.3981
 Red. masses --     1.1029                 1.0666                 1.0701
 Frc consts  --     6.5562                 8.4709                 8.5587
 IR Inten    --     2.7442               405.8502                75.5588
  Atom  AN      X      Y      Z        X      Y      Z        X      Y      Z
     1   8     0.00   0.00   0.00    -0.01  -0.02   0.00    -0.03  -0.05   0.00
     2   1     0.00   0.00   0.00     0.19   0.35   0.00     0.43   0.81   0.00
     3   6     0.00   0.00   0.00     0.00   0.00   0.00     0.00   0.00   0.00
     4   6    -0.01  -0.09   0.00     0.00   0.00   0.00     0.00   0.00   0.00
     5   1    -0.09   0.11  -0.21     0.00   0.00   0.00     0.00   0.00   0.00
     6   1     0.31   0.88   0.00     0.00   0.00   0.00     0.00   0.00   0.00
     7   1    -0.09   0.10   0.21     0.00   0.00   0.00     0.00   0.00   0.00
     8   8     0.00   0.00   0.00     0.03  -0.05   0.00    -0.01   0.02   0.00
     9   1     0.00   0.00   0.00    -0.51   0.76   0.00     0.22  -0.33   0.00

 -------------------
 - Thermochemistry -
 -------------------
 Temperature   298.150 Kelvin.  Pressure   1.00000 Atm.
 Atom     1 has atomic number  8 and mass  15.99491
 Atom     2 has atomic number  1 and mass   1.00783
 Atom     3 has atomic number  6 and mass  12.00000
 Atom     4 has atomic number  6 and mass  12.00000
 Atom     5 has atomic number  1 and mass   1.00783
 Atom     6 has atomic number  1 and mass   1.00783
 Atom     7 has atomic number  1 and mass   1.00783
 Atom     8 has atomic number  8 and mass  15.99491
 Atom     9 has atomic number  1 and mass   1.00783
 Molecular mass:    61.02895 amu.
 Principal axes and moments of inertia in atomic units:
                           1         2         3
     Eigenvalues --   167.00523 197.05174 352.71231
           X            0.99999  -0.00489  -0.00001
           Y            0.00489   0.99999   0.00002
           Z            0.00001  -0.00002   1.00000
 This molecule is an asymmetric top.
 Rotational symmetry number  1.
 Rotational temperatures (Kelvin)      0.51863     0.43955     0.24557
 Rotational constants (GHZ):          10.80650     9.15872     5.11675
    1 imaginary frequencies ignored.
 Zero-point vibrational energy     194977.9 (Joules/Mol)
                                   46.60083 (Kcal/Mol)
 Warning -- explicit consideration of   4 degrees of freedom as
           vibrations may cause significant error
 Vibrational temperatures:    631.38   809.40   836.51   854.65  1040.62
          (Kelvin)           1295.49  1496.65  1545.24  1685.34  1725.24
                             2037.78  2123.68  2134.69  2244.51  2397.58
                             4398.76  4489.72  4570.12  5282.47  5301.02
 
 Zero-point correction=                           0.074263 (Hartree/Particle)
 Thermal correction to Energy=                    0.078161
 Thermal correction to Enthalpy=                  0.079105
 Thermal correction to Gibbs Free Energy=         0.048118
 Sum of electronic and zero-point Energies=           -229.227058
 Sum of electronic and thermal Energies=              -229.223161
 Sum of electronic and thermal Enthalpies=            -229.222216
 Sum of electronic and thermal Free Energies=         -229.253203
 
                     E (Thermal)             CV                S
                      KCal/Mol        Cal/Mol-Kelvin    Cal/Mol-Kelvin
 Total                   49.047             13.292             65.217
 Electronic               0.000              0.000              0.000
 Translational            0.889              2.981             38.246
 Rotational               0.889              2.981             23.966
 Vibrational             47.269              7.330              3.005
 Vibration     1          0.799              1.386              0.830
 Vibration     2          0.918              1.112              0.519
 Vibration     3          0.938              1.072              0.483
 Vibration     4          0.952              1.045              0.460
                       Q            Log10(Q)             Ln(Q)
 Total Bot       0.736476D-22        -22.132841        -50.962751
 Total V=0       0.106111D+13         12.025761         27.690337
 Vib (Bot)       0.101903D-33        -33.991812        -78.269041
 Vib (Bot)    1  0.394304D+00         -0.404169         -0.930634
 Vib (Bot)    2  0.275589D+00         -0.559738         -1.288845
 Vib (Bot)    3  0.261725D+00         -0.582155         -1.340461
 Vib (Bot)    4  0.252920D+00         -0.597018         -1.374684
 Vib (V=0)       0.146821D+01          0.166790          0.384047
 Vib (V=0)    1  0.113677D+01          0.055672          0.128190
 Vib (V=0)    2  0.107092D+01          0.029757          0.068518
 Vib (V=0)    3  0.106436D+01          0.027088          0.062372
 Vib (V=0)    4  0.106033D+01          0.025441          0.058579
 Electronic      0.100000D+01          0.000000          0.000000
 Translational   0.187395D+08          7.272759         16.746147
 Rotational      0.385666D+05          4.586212         10.560143
 ***** Axes restored to original set *****
 -------------------------------------------------------------------
 Center     Atomic                   Forces (Hartrees/Bohr)
 Number     Number              X              Y              Z
 -------------------------------------------------------------------
      1        8          -0.000028515   -0.000008714    0.000009669
      2        1          -0.000027554    0.000009154   -0.000013986
      3        6           0.000001397    0.000024631   -0.000018828
      4        6           0.000051137    0.000017369    0.000023791
      5        1          -0.000010420    0.000004840   -0.000001628
      6        1          -0.000004125    0.000004204   -0.000007558
      7        1          -0.000003381   -0.000001495    0.000002339
      8        8           0.000006379   -0.000050382    0.000031545
      9        1           0.000015082    0.000000392   -0.000025345
 -------------------------------------------------------------------
 Cartesian Forces:  Max     0.000051137 RMS     0.000020328

 GradGradGradGradGradGradGradGradGradGradGradGradGradGradGradGradGradGrad
 Berny optimization.
 Internal  Forces:  Max     0.000055895 RMS     0.000020102
 Search for a local minimum.
 Step number   1 out of a maximum of    2
 All quantities printed in internal units (Hartrees-Bohrs-Radians)
 Second derivative matrix not updated -- analytic derivatives used.
     Eigenvalues ---   -0.00009   0.01580   0.01882   0.04528   0.05256
     Eigenvalues ---    0.05706   0.12827   0.14343   0.14412   0.15594
     Eigenvalues ---    0.16657   0.22105   0.26190   0.33883   0.34079
     Eigenvalues ---    0.35359   0.35484   0.48473   0.48826   0.55054
     Eigenvalues ---    0.727541000.000001000.000001000.000001000.00000
     Eigenvalues --- 1000.000001000.000001000.000001000.00000
 Eigenvalue     1 is  -8.75D-05 should be greater than     0.000000 Eigenvector:
                          D5        D3        D4        D8        D6
   1                    0.43833   0.43806   0.41056   0.39299   0.39272
                          D7        D1        D10       A5        A7
   1                    0.36522  -0.04383   0.04201  -0.02738   0.02713
 Angle between quadratic step and forces=  86.31 degrees.
 Linear search not attempted -- first point.
 Iteration  1 RMS(Cart)=  0.00332397 RMS(Int)=  0.00000652
 Iteration  2 RMS(Cart)=  0.00000675 RMS(Int)=  0.00000005
 Iteration  3 RMS(Cart)=  0.00000000 RMS(Int)=  0.00000005
 Variable       Old X    -DE/DX   Delta X   Delta X   Delta X     New X
                                 (Linear)    (Quad)   (Total)
    R1        1.84710   0.00002   0.00000   0.00004   0.00004   1.84714
    R2        2.42407   0.00006   0.00000   0.00006   0.00006   2.42413
    R3        2.81060   0.00004   0.00000   0.00012   0.00012   2.81072
    R4        2.42795   0.00005   0.00000   0.00009   0.00009   2.42805
    R5        2.07475   0.00000   0.00000  -0.00011  -0.00011   2.07464
    R6        2.06314   0.00001   0.00000   0.00002   0.00002   2.06317
    R7        2.07493   0.00000   0.00000   0.00008   0.00008   2.07501
    R8        1.84806   0.00002   0.00000   0.00003   0.00003   1.84809
    A1        1.99807   0.00004   0.00000   0.00021   0.00021   1.99828
    A2        2.17356   0.00002   0.00000   0.00010   0.00010   2.17366
    A3        1.95840  -0.00001   0.00000  -0.00006  -0.00006   1.95834
    A4        2.15123  -0.00001   0.00000  -0.00004  -0.00004   2.15119
    A5        1.91040   0.00000   0.00000   0.00045   0.00045   1.91085
    A6        1.95708   0.00000   0.00000  -0.00008  -0.00008   1.95701
    A7        1.90972   0.00000   0.00000  -0.00046  -0.00046   1.90926
    A8        1.90114  -0.00001   0.00000   0.00000   0.00000   1.90114
    A9        1.88326   0.00001   0.00000   0.00014   0.00014   1.88339
   A10        1.90076   0.00000   0.00000  -0.00004  -0.00004   1.90073
   A11        1.99965   0.00000   0.00000  -0.00005  -0.00005   1.99960
    D1        0.00008   0.00001   0.00000   0.00119   0.00119   0.00127
    D2        3.14137   0.00001   0.00000   0.00029   0.00029  -3.14152
    D3       -2.11757   0.00001   0.00000  -0.00651  -0.00651  -2.12408
    D4       -0.00568   0.00000   0.00000  -0.00625  -0.00625  -0.01194
    D5        2.10527   0.00000   0.00000  -0.00667  -0.00667   2.09860
    D6        1.02435   0.00001   0.00000  -0.00552  -0.00552   1.01883
    D7        3.13624   0.00000   0.00000  -0.00526  -0.00526   3.13098
    D8       -1.03599   0.00000   0.00000  -0.00568  -0.00568  -1.04167
    D9       -3.14068  -0.00002   0.00000  -0.00096  -0.00096   3.14155
   D10        0.00061  -0.00002   0.00000  -0.00184  -0.00184  -0.00122
         Item               Value     Threshold  Converged?
 Maximum Force            0.000056     0.000450     YES
 RMS     Force            0.000020     0.000300     YES
 Maximum Displacement     0.008744     0.001800     NO 
 RMS     Displacement     0.003324     0.001200     NO 
 Predicted change in Energy=-7.116689D-08
 GradGradGradGradGradGradGradGradGradGradGradGradGradGradGradGradGradGrad

 1|1|UNPC-WST-PGHS-011|Freq|RX3LYP|6-31+G(d)|C2H5O2(1+)|214584429|23-Se
 p-2015|0||#N Geom=AllCheck Guess=TCheck SCRF=Check GenChk RX3LYP/6-31+
 G(d) Freq||Title Card Required||1,1|O,1.1358897075,0.6616904525,-0.043
 9271683|H,0.661957041,1.5164958899,-0.053550325|C,2.4144300971,0.76298
 76386,-0.0203367311|C,3.1581233098,2.050945836,-0.007723858|H,3.823387
 6656,2.0976864119,-0.8798724959|H,2.4883054754,2.912888296,-0.02665786
 25|H,3.7808646238,2.1040814239,0.8950398132|O,2.9923408096,-0.38445691
 28,-0.0082386603|H,3.96941027,-0.3474991761,0.0106486479||Version=IA32
 W-G09RevA.02|State=1-A|HF=-229.3013216|RMSD=8.960e-010|RMSF=2.033e-005
 |ZeroPoint=0.0742631|Thermal=0.0781609|Dipole=0.6617819,1.1105744,0.01
 23521|DipoleDeriv=-1.2709143,0.1727268,-0.0191379,-0.0130066,-0.332679
 7,-0.0000962,-0.0190262,0.0034057,-0.2589968,0.5411183,-0.0627656,0.00
 29044,-0.103389,0.3193049,-0.0018259,0.0029541,-0.0010332,0.387739,1.8
 308541,-0.2196755,0.0259333,-0.1949714,1.5254274,-0.0041967,0.0258265,
 -0.0048194,0.470194,-0.2428695,-0.2219777,-0.0036076,-0.1261212,-0.231
 0388,-0.002882,-0.0046709,-0.006332,-0.060188,0.1544196,0.0442333,0.01
 45327,0.0141577,0.0880701,-0.0532924,0.0166244,-0.0398035,0.1174091,0.
 0210656,0.0449596,-0.0026516,0.0007028,0.0952553,0.0000708,-0.0021693,
 0.0014765,0.1348581,0.1562565,0.0420171,-0.0126538,0.011301,0.0891675,
 0.0539128,-0.0140691,0.042793,0.1156619,-0.6378071,0.3595405,-0.006660
 6,0.5266034,-0.9566538,0.0105673,-0.0067581,0.0073336,-0.2932676,0.447
 8768,-0.1590586,0.001341,-0.1152767,0.4031471,-0.0022576,0.0012888,-0.
 0030207,0.3865903|Polar=33.4479743,-1.2905993,30.5615923,0.2529667,-0.
 0291743,20.1947269|PG=C01 [X(C2H5O2)]|NImag=1||0.71799648,-0.17202934,
 0.52900804,0.01276314,-0.00371040,0.03904976,-0.12737939,0.14819535,-0
 .00223158,0.15895679,0.20443083,-0.38675478,0.00416539,-0.18919577,0.3
 7772461,-0.00228662,0.00312590,-0.01484522,0.00285908,-0.00387719,0.01
 520044,-0.48244923,-0.02351527,-0.00781668,-0.02962197,-0.00473593,-0.
 00043935,0.85669943,-0.07846647,-0.13535184,-0.00138005,0.04562524,0.0
 0438622,0.00083783,-0.06043055,0.77366729,-0.00775047,-0.00035769,-0.0
 5918286,-0.00048290,-0.00008846,-0.00612504,0.01177465,-0.00176248,0.2
 2921696,-0.03045058,-0.03029273,-0.00120456,0.00202357,-0.00406612,0.0
 0016485,-0.12086101,-0.03475712,-0.00035231,0.55823359,-0.00479851,0.0
 0540005,-0.00000972,0.00044214,0.00130678,-0.00001685,-0.04931189,-0.1
 9115434,-0.00076949,-0.06732445,0.54304076,-0.00119724,-0.00048977,0.0
 3134157,0.00011725,-0.00010344,-0.00553539,-0.00022677,-0.00030881,-0.
 09852721,0.00014015,-0.00164719,0.54039681,-0.00008820,-0.00311534,-0.
 00208876,0.00057890,0.00007667,0.00077984,-0.01652756,-0.00470967,0.01
 332459,-0.13982302,-0.00403110,0.13340198,0.15303741,-0.00236959,-0.00
 292562,-0.00377175,0.00012894,-0.00059476,0.00036308,-0.01875808,0.000
 27618,0.02937335,-0.00523589,-0.04980607,0.00790714,0.00894847,0.05100
 911,-0.00286354,-0.00139069,-0.00245931,0.00033040,-0.00018861,0.00049
 474,-0.00151476,0.00185584,0.00306526,0.13304567,0.00791427,-0.2133916
 4,-0.14319433,-0.00897567,0.22962220,0.00137420,0.00004138,0.00003986,
 -0.00016621,-0.00103539,-0.00002218,0.01346011,-0.01682561,0.00051730,
 -0.16152103,0.14116844,-0.00320309,-0.01082607,0.01447949,-0.00250782,
 0.16982196,0.00063202,0.00324300,-0.00002183,-0.00218705,-0.00079457,-
 0.00002628,0.02134139,-0.02270193,0.00054890,0.13343467,-0.22148321,0.
 00381875,-0.00212282,0.00346804,-0.00082378,-0.14470069,0.23878032,0.0
 0006177,-0.00000884,-0.00087314,-0.00001371,-0.00000612,0.00125352,0.0
 0032990,-0.00038061,-0.00505302,-0.00317307,0.00400229,-0.04534547,0.0
 1449237,-0.02091239,0.00198580,0.00347534,-0.00412664,0.04389504,-0.00
 031034,-0.00314136,0.00227075,0.00060956,0.00006303,-0.00079909,-0.015
 90852,-0.00473353,-0.01422677,-0.12716152,-0.00459685,-0.12916409,0.01
 281734,0.00184912,0.01680687,-0.01023717,-0.00225631,-0.01506777,0.139
 45255,-0.00244225,-0.00285916,0.00368729,0.00013576,-0.00058052,-0.000
 35321,-0.01736741,0.00003214,-0.03024113,-0.00585554,-0.04982094,-0.00
 943870,0.00167503,0.00002663,0.00110686,0.01349618,0.00361598,0.021564
 53,0.00951094,0.05106549,0.00297819,0.00124431,-0.00230307,-0.00031849
 ,0.00020188,0.00045516,0.00069141,-0.00216624,0.00270438,-0.12872738,-
 0.00927093,-0.22564988,-0.01524452,-0.00117170,-0.02001925,0.00181935,
 0.00069919,0.00121433,0.13872382,0.01076856,0.24285515,-0.08529070,0.0
 8277018,-0.00174090,-0.00464107,-0.00595926,-0.00017897,-0.18325644,0.
 15494256,-0.00253438,0.01795050,-0.00873063,0.00007360,-0.00017264,0.0
 0107882,-0.00024867,-0.00098759,-0.00315676,-0.00010420,-0.00027429,0.
 00091560,0.00016791,0.72830290,0.05284213,-0.00310462,0.00098794,-0.00
 461103,0.00453028,-0.00008188,0.10253007,-0.42690956,0.00233370,0.0157
 8293,-0.03855638,0.00032429,0.00314535,-0.00042009,-0.00047184,-0.0063
 6670,-0.00440280,-0.00013342,0.00311968,-0.00044623,0.00064463,-0.1613
 6732,0.51009584,-0.00172356,0.00155503,0.00361844,-0.00018537,-0.00011
 155,0.00545923,-0.00248519,0.00333617,-0.05914265,0.00006209,-0.000151
 79,0.01846934,-0.00182395,-0.00407628,0.00077672,-0.00012511,-0.000047
 03,0.00380396,0.00175326,0.00417877,0.00083949,0.01336244,-0.00354599,
 0.04062229,0.00659778,0.00108712,0.00000873,-0.00036019,0.00042194,-0.
 00007755,-0.02153480,-0.00064485,-0.00026971,0.00160952,-0.00281715,0.
 00005820,0.00100384,-0.00012127,0.00014618,-0.00091818,-0.00098446,-0.
 00000062,0.00101240,-0.00006831,-0.00009030,-0.47163067,-0.00507510,-0
 .00883461,0.48422031,0.00220119,-0.00665508,0.00005312,0.00146642,0.00
 077675,0.00002858,0.05024768,-0.00224418,0.00096332,-0.00168576,0.0010
 7335,-0.00006227,0.00013341,-0.00103343,0.00097363,-0.00025710,0.00027
 517,0.00000119,0.00018528,-0.00103339,-0.00094972,-0.06049320,-0.04078
 643,-0.00113733,0.00820208,0.04962724,0.00001834,0.00003214,0.00565382
 ,-0.00007468,0.00000810,0.00364255,-0.00031321,-0.00003164,-0.00695582
 ,0.00004456,-0.00005060,-0.00175812,0.00035278,0.00126420,-0.00007451,
 0.00000633,-0.00002128,-0.00088100,-0.00029698,-0.00127298,-0.00009631
 ,-0.00879682,-0.00005742,-0.01444682,0.00905968,0.00012947,0.01491621|
 |0.00002851,0.00000871,-0.00000967,0.00002755,-0.00000915,0.00001399,-
 0.00000140,-0.00002463,0.00001883,-0.00005114,-0.00001737,-0.00002379,
 0.00001042,-0.00000484,0.00000163,0.00000412,-0.00000420,0.00000756,0.
 00000338,0.00000149,-0.00000234,-0.00000638,0.00005038,-0.00003155,-0.
 00001508,-0.00000039,0.00002535|||@


 GOORD'S AXIOM:  A MEETING IS AN EVENT AT WHICH
 THE MINUTES ARE KEPT AND THE HOURS ARE LOST.
 Job cpu time:  0 days  0 hours  1 minutes 30.0 seconds.
 File lengths (MBytes):  RWF=     11 Int=      0 D2E=      0 Chk=      1 Scr=      1
 Normal termination of Gaussian 09 at Wed Sep 23 11:31:35 2015.
