 Entering Link 1 = C:\G09W\l1.exe PID=      4996.
  
 Copyright (c) 1988,1990,1992,1993,1995,1998,2003,2009, Gaussian, Inc.
                  All Rights Reserved.
  
 This is part of the Gaussian(R) 09 program.  It is based on
 the Gaussian(R) 03 system (copyright 2003, Gaussian, Inc.),
 the Gaussian(R) 98 system (copyright 1998, Gaussian, Inc.),
 the Gaussian(R) 94 system (copyright 1995, Gaussian, Inc.),
 the Gaussian 92(TM) system (copyright 1992, Gaussian, Inc.),
 the Gaussian 90(TM) system (copyright 1990, Gaussian, Inc.),
 the Gaussian 88(TM) system (copyright 1988, Gaussian, Inc.),
 the Gaussian 86(TM) system (copyright 1986, Carnegie Mellon
 University), and the Gaussian 82(TM) system (copyright 1983,
 Carnegie Mellon University). Gaussian is a federally registered
 trademark of Gaussian, Inc.
  
 This software contains proprietary and confidential information,
 including trade secrets, belonging to Gaussian, Inc.
  
 This software is provided under written license and may be
 used, copied, transmitted, or stored only in accord with that
 written license.
  
 The following legend is applicable only to US Government
 contracts under FAR:
  
                    RESTRICTED RIGHTS LEGEND
  
 Use, reproduction and disclosure by the US Government is
 subject to restrictions as set forth in subparagraphs (a)
 and (c) of the Commercial Computer Software - Restricted
 Rights clause in FAR 52.227-19.
  
 Gaussian, Inc.
 340 Quinnipiac St., Bldg. 40, Wallingford CT 06492
  
  
 ---------------------------------------------------------------
 Warning -- This program may not be used in any manner that
 competes with the business of Gaussian, Inc. or will provide
 assistance to any competitor of Gaussian, Inc.  The licensee
 of this program is prohibited from giving any competitor of
 Gaussian, Inc. access to this program.  By using this program,
 the user acknowledges that Gaussian, Inc. is engaged in the
 business of creating and licensing software in the field of
 computational chemistry and represents and warrants to the
 licensee that it is not a competitor of Gaussian, Inc. and that
 it will not use this program in any manner prohibited above.
 ---------------------------------------------------------------
  

 Cite this work as:
 Gaussian 09, Revision A.02,
 M. J. Frisch, G. W. Trucks, H. B. Schlegel, G. E. Scuseria, 
 M. A. Robb, J. R. Cheeseman, G. Scalmani, V. Barone, B. Mennucci, 
 G. A. Petersson, H. Nakatsuji, M. Caricato, X. Li, H. P. Hratchian, 
 A. F. Izmaylov, J. Bloino, G. Zheng, J. L. Sonnenberg, M. Hada, 
 M. Ehara, K. Toyota, R. Fukuda, J. Hasegawa, M. Ishida, T. Nakajima, 
 Y. Honda, O. Kitao, H. Nakai, T. Vreven, J. A. Montgomery, Jr., 
 J. E. Peralta, F. Ogliaro, M. Bearpark, J. J. Heyd, E. Brothers, 
 K. N. Kudin, V. N. Staroverov, R. Kobayashi, J. Normand, 
 K. Raghavachari, A. Rendell, J. C. Burant, S. S. Iyengar, J. Tomasi, 
 M. Cossi, N. Rega, J. M. Millam, M. Klene, J. E. Knox, J. B. Cross, 
 V. Bakken, C. Adamo, J. Jaramillo, R. Gomperts, R. E. Stratmann, 
 O. Yazyev, A. J. Austin, R. Cammi, C. Pomelli, J. W. Ochterski, 
 R. L. Martin, K. Morokuma, V. G. Zakrzewski, G. A. Voth, 
 P. Salvador, J. J. Dannenberg, S. Dapprich, A. D. Daniels, 
 O. Farkas, J. B. Foresman, J. V. Ortiz, J. Cioslowski, 
 and D. J. Fox, Gaussian, Inc., Wallingford CT, 2009.
 
 ******************************************
 Gaussian 09:  IA32W-G09RevA.02 11-Jun-2009
                23-Sep-2015 
 ******************************************
 %chk=C:\Users\214584429\Dropbox\Dropbox content\New folder\hachcpcm.chk
 ----------------------------------------------------------------------
 # freq=noraman x3lyp/6-31+g(d) scrf=(cpcm,solvent=methanol) geom=conne
 ctivity
 ----------------------------------------------------------------------
 1/10=4,30=1,38=1,57=2/1,3;
 2/12=2,17=6,18=5,40=1/2;
 3/5=1,6=6,7=11,11=2,16=1,25=1,30=1,70=2101,71=2,72=3,74=-33/1,2,3;
 4//1;
 5/5=2,38=5,53=3,98=1/2;
 8/6=4,10=90,11=11/1;
 11/6=1,8=1,9=11,15=111,16=1/1,2,10;
 10/6=1/2;
 6/7=2,8=2,9=2,10=2,18=1,28=1/1;
 7/8=1,10=1,25=1/1,2,3,16;
 1/10=4,30=1/3;
 99//99;
 ---------
 hach cpcm
 ---------
 Symbolic Z-matrix:
 Charge =  1 Multiplicity = 1
 O                     0.852    -1.02794   0.00003 
 H                     0.38452  -1.88635   0.00016 
 C                     0.08096  -0.00276  -0.00016 
 C                    -1.40503  -0.06533  -0.00008 
 H                    -1.79311   0.45686  -0.88446 
 H                    -1.77345  -1.09304  -0.0056 
 H                    -1.79192   0.44652   0.89095 
 O                     0.73972   1.10032  -0.00006 
 H                     0.18463   1.90547   0.00061 
 

 GradGradGradGradGradGradGradGradGradGradGradGradGradGradGradGradGradGrad
 Berny optimization.
 Initialization pass.
 Trust Radius=3.00D-01 FncErr=1.00D-07 GrdErr=1.00D-07
 Number of steps in this run=   2 maximum allowed number of steps=   2.
 GradGradGradGradGradGradGradGradGradGradGradGradGradGradGradGradGradGrad

                          Input orientation:                          
 ---------------------------------------------------------------------
 Center     Atomic      Atomic             Coordinates (Angstroms)
 Number     Number       Type             X           Y           Z
 ---------------------------------------------------------------------
      1          8           0        0.851998   -1.027938    0.000031
      2          1           0        0.384522   -1.886346    0.000159
      3          6           0        0.080962   -0.002762   -0.000156
      4          6           0       -1.405026   -0.065330   -0.000083
      5          1           0       -1.793112    0.456858   -0.884455
      6          1           0       -1.773445   -1.093044   -0.005597
      7          1           0       -1.791915    0.446524    0.890948
      8          8           0        0.739716    1.100324   -0.000060
      9          1           0        0.184627    1.905472    0.000614
 ---------------------------------------------------------------------
                    Distance matrix (angstroms):
                    1          2          3          4          5
     1  O    0.000000
     2  H    0.977445   0.000000
     3  C    1.282764   1.907888   0.000000
     4  C    2.453726   2.553151   1.487305   0.000000
     5  H    3.159674   3.318921   2.122590   1.097909   0.000000
     6  H    2.626256   2.299170   2.151179   1.091769   1.781846
     7  H    3.155637   3.312501   2.122167   1.098004   1.775433
     8  O    2.131222   3.007717   1.284817   2.441038   2.758880
     9  H    3.008368   3.797083   1.911048   2.532007   2.606392
                    6          7          8          9
     6  H    0.000000
     7  H    1.781686   0.000000
     8  O    3.335697   2.762337   0.000000
     9  H    3.581226   2.613033   0.977951   0.000000
 Stoichiometry    C2H5O2(1+)
 Framework group  C1[X(C2H5O2)]
 Deg. of freedom    21
 Full point group                 C1      NOp   1
 Largest Abelian subgroup         C1      NOp   1
 Largest concise Abelian subgroup C1      NOp   1
                         Standard orientation:                         
 ---------------------------------------------------------------------
 Center     Atomic      Atomic             Coordinates (Angstroms)
 Number     Number       Type             X           Y           Z
 ---------------------------------------------------------------------
      1          8           0        0.851999   -1.027937    0.000031
      2          1           0        0.384525   -1.886345    0.000159
      3          6           0        0.080962   -0.002762   -0.000156
      4          6           0       -1.405026   -0.065332   -0.000083
      5          1           0       -1.793113    0.456855   -0.884455
      6          1           0       -1.773443   -1.093047   -0.005597
      7          1           0       -1.791916    0.446521    0.890948
      8          8           0        0.739714    1.100325   -0.000060
      9          1           0        0.184624    1.905472    0.000614
 ---------------------------------------------------------------------
 Rotational constants (GHZ):     10.8065004      9.1587166      5.1167523
 Standard basis: 6-31+G(d) (6D, 7F)
 There are    86 symmetry adapted basis functions of A   symmetry.
 Integral buffers will be    262144 words long.
 Raffenetti 2 integral format.
 Two-electron integral symmetry is turned on.
    86 basis functions,   148 primitive gaussians,    86 cartesian basis functions
    16 alpha electrons       16 beta electrons
       nuclear repulsion energy       130.2493950407 Hartrees.
 NAtoms=    9 NActive=    9 NUniq=    9 SFac= 7.50D-01 NAtFMM=   80 NAOKFM=F Big=F
 ------------------------------------------------------------------------------
 Polarizable Continuum Model (PCM)
 =================================
 Model                : C-PCM.
 Atomic radii         : UFF (Universal Force Field).
 Polarization charges : Total charges.
 Charge compensation  : None.
 Solution method      : Matrix inversion.
 Cavity type          : Scaled VdW (van der Waals Surface) (Alpha=1.100).
 Cavity algorithm     : GePol (No added spheres)
                        Default sphere list used, NSphG=    9.
                        Lebedev-Laikov grids with approx.  5.0 points / Ang**2.
                        Smoothing algorithm: Karplus/York (Gamma=1.0000).
                        Polarization charges: spherical gaussians, with
                                              point-specific exponents (IZeta= 3).
                        Self-potential: point-specific (ISelfS= 7).
                        Self-field    : sphere-specific E.n sum rule (ISelfD= 2).
 1st derivatives      : Analytical E(r).r(x)/FMM algorithm (CHGder, D1EAlg=3).
                        Cavity 1st derivative terms included.
 2nd derivatives      : Analytical E(r).r(xy)/FMM algorithm (CHGder, D2EAlg=3).
                        Cavity 2nd derivative terms included.
 Solvent              : Methanol, Eps=  32.613000 Eps(inf)=   1.765709
 ------------------------------------------------------------------------------
 Spheres list:
 ISph  on   Nord    Re0     Alpha      Xe            Ye            Ze
    1   O      1    1.750   1.100      0.851999     -1.027937      0.000031
    2   H      2    1.443   1.100      0.384525     -1.886345      0.000159
    3   C      3    1.926   1.100      0.080962     -0.002762     -0.000156
    4   C      4    1.926   1.100     -1.405026     -0.065332     -0.000083
    5   H      5    1.443   1.100     -1.793113      0.456855     -0.884455
    6   H      6    1.443   1.100     -1.773443     -1.093047     -0.005597
    7   H      7    1.443   1.100     -1.791916      0.446521      0.890948
    8   O      8    1.750   1.100      0.739714      1.100325     -0.000060
    9   H      9    1.443   1.100      0.184624      1.905472      0.000614
 ------------------------------------------------------------------------------
 One-electron integrals computed using PRISM.
 NBasis=    86 RedAO= T  NBF=    86
 NBsUse=    86 1.00D-06 NBFU=    86
 Harris functional with IExCor= 3102 diagonalized for initial guess.
 ExpMin= 4.38D-02 ExpMax= 5.48D+03 ExpMxC= 8.25D+02 IAcc=2 IRadAn=         0 AccDes= 0.00D+00
 HarFok:  IExCor= 3102 AccDes= 0.00D+00 IRadAn=         0 IDoV= 1
 ScaDFX=  1.000000  1.000000  1.000000  1.000000
 FoFCou: FMM=F IPFlag=           0 FMFlag=      100000 FMFlg1=           0
         NFxFlg=           0 DoJE=T BraDBF=F KetDBF=T FulRan=T
         Omega=  0.000000  0.000000  1.000000  0.000000  0.000000 ICntrl=     500 IOpCl=  0
         NMat0=    1 NMatS0=    1 NMatT0=    0 NMatD0=    1 NMtDS0=    0 NMtDT0=    0
         I1Cent=           4 NGrid=           0.
 Petite list used in FoFCou.
 Initial guess orbital symmetries:
       Occupied  (A) (A) (A) (A) (A) (A) (A) (A) (A) (A) (A) (A)
                 (A) (A) (A) (A)
       Virtual   (A) (A) (A) (A) (A) (A) (A) (A) (A) (A) (A) (A)
                 (A) (A) (A) (A) (A) (A) (A) (A) (A) (A) (A) (A)
                 (A) (A) (A) (A) (A) (A) (A) (A) (A) (A) (A) (A)
                 (A) (A) (A) (A) (A) (A) (A) (A) (A) (A) (A) (A)
                 (A) (A) (A) (A) (A) (A) (A) (A) (A) (A) (A) (A)
                 (A) (A) (A) (A) (A) (A) (A) (A) (A) (A)
 The electronic state of the initial guess is 1-A.
 Requested convergence on RMS density matrix=1.00D-08 within 128 cycles.
 Requested convergence on MAX density matrix=1.00D-06.
 Requested convergence on             energy=1.00D-06.
 No special actions if energy rises.
 Keep R1 ints in memory in canonical form, NReq=10875326.
 Error on total polarization charges =  0.00411
 SCF Done:  E(RX3LYP) =  -229.400855235     A.U. after   11 cycles
             Convg  =    0.1248D-08             -V/T =  2.0093
 Range of M.O.s used for correlation:     1    86
 NBasis=    86 NAE=    16 NBE=    16 NFC=     0 NFV=     0
 NROrb=     86 NOA=    16 NOB=    16 NVA=    70 NVB=    70

 **** Warning!!: The largest alpha MO coefficient is  0.27709751D+02

 Symmetrizing basis deriv contribution to polar:
 IMax=3 JMax=2 DiffMx= 0.00D+00
 G2DrvN: will do    10 centers at a time, making    1 passes doing MaxLOS=2.
 Calling FoFCou, ICntrl=  3107 FMM=F I1Cent=   0 AccDes= 0.00D+00.
 FoFDir/FoFCou used for L=0 through L=2.
 G2PCM: DoFxE=T DoFxN=T DoGrad=T DoPD/DQ/DG=FFF NFrqRd=   0 IEInf=0 DoCFld=F IF1Alg=4.
 End of G2Drv Frequency-dependent properties file   721 does not exist.
 End of G2Drv Frequency-dependent properties file   722 does not exist.
          IDoAtm=111111111
 NEqPCM:  Using equilibrium solvation (IEInf=0, Eps=  32.6130, EpsInf=   1.7657)
          Differentiating once with respect to electric field.
                with respect to dipole field.
          Differentiating once with respect to nuclear coordinates.
          Keep R1 ints in memory in canonical form, NReq=7821233.
          There are    30 degrees of freedom in the 1st order CPHF.  IDoFFX=5.
     27 vectors produced by pass  0 Test12= 3.73D-15 3.33D-09 XBig12= 2.26D+01 3.13D+00.
 AX will form    27 AO Fock derivatives at one time.
     27 vectors produced by pass  1 Test12= 3.73D-15 3.33D-09 XBig12= 1.78D+00 3.56D-01.
     27 vectors produced by pass  2 Test12= 3.73D-15 3.33D-09 XBig12= 1.63D-02 3.47D-02.
     27 vectors produced by pass  3 Test12= 3.73D-15 3.33D-09 XBig12= 4.49D-05 1.48D-03.
     27 vectors produced by pass  4 Test12= 3.73D-15 3.33D-09 XBig12= 4.95D-08 5.23D-05.
     16 vectors produced by pass  5 Test12= 3.73D-15 3.33D-09 XBig12= 3.12D-11 1.06D-06.
      3 vectors produced by pass  6 Test12= 3.73D-15 3.33D-09 XBig12= 2.66D-14 3.63D-08.
 Inverted reduced A of dimension   154 with in-core refinement.
 Isotropic polarizability for W=    0.000000       33.75 Bohr**3.
 End of Minotr Frequency-dependent properties file   721 does not exist.
 End of Minotr Frequency-dependent properties file   722 does not exist.

 **********************************************************************

            Population analysis using the SCF density.

 **********************************************************************

 Orbital symmetries:
       Occupied  (A) (A) (A) (A) (A) (A) (A) (A) (A) (A) (A) (A)
                 (A) (A) (A) (A)
       Virtual   (A) (A) (A) (A) (A) (A) (A) (A) (A) (A) (A) (A)
                 (A) (A) (A) (A) (A) (A) (A) (A) (A) (A) (A) (A)
                 (A) (A) (A) (A) (A) (A) (A) (A) (A) (A) (A) (A)
                 (A) (A) (A) (A) (A) (A) (A) (A) (A) (A) (A) (A)
                 (A) (A) (A) (A) (A) (A) (A) (A) (A) (A) (A) (A)
                 (A) (A) (A) (A) (A) (A) (A) (A) (A) (A)
 The electronic state is 1-A.
 Alpha  occ. eigenvalues --  -19.33343 -19.33138 -10.47006 -10.27744  -1.24416
 Alpha  occ. eigenvalues --   -1.16436  -0.83364  -0.77506  -0.65407  -0.59733
 Alpha  occ. eigenvalues --   -0.56700  -0.52951  -0.46048  -0.45591  -0.45139
 Alpha  occ. eigenvalues --   -0.43823
 Alpha virt. eigenvalues --   -0.10169  -0.02594   0.01114   0.02902   0.04772
 Alpha virt. eigenvalues --    0.05317   0.06268   0.08511   0.08794   0.11496
 Alpha virt. eigenvalues --    0.13760   0.14746   0.15930   0.18424   0.19479
 Alpha virt. eigenvalues --    0.20352   0.20417   0.25208   0.25664   0.26423
 Alpha virt. eigenvalues --    0.27525   0.30608   0.33689   0.35017   0.36175
 Alpha virt. eigenvalues --    0.58928   0.59047   0.65093   0.66733   0.67749
 Alpha virt. eigenvalues --    0.70843   0.88262   0.92169   0.95791   0.98847
 Alpha virt. eigenvalues --    1.01124   1.05790   1.06602   1.07614   1.15673
 Alpha virt. eigenvalues --    1.17991   1.24087   1.27715   1.32190   1.36251
 Alpha virt. eigenvalues --    1.41085   1.47411   1.50606   1.62621   1.66142
 Alpha virt. eigenvalues --    1.71242   1.73764   1.86795   1.89790   1.90075
 Alpha virt. eigenvalues --    2.15688   2.17330   2.29844   2.40594   2.42638
 Alpha virt. eigenvalues --    2.44452   2.48051   2.60955   2.79258   2.89914
 Alpha virt. eigenvalues --    2.99551   3.99490   4.14773   4.15429   4.45045
          Condensed to atoms (all electrons):
              1          2          3          4          5          6
     1  O    8.128362   0.189581   0.280877  -0.040511   0.002472  -0.005503
     2  H    0.189581   0.237831  -0.009677   0.005557  -0.000038   0.003580
     3  C    0.280877  -0.009677   4.834938   0.051852  -0.033217  -0.056647
     4  C   -0.040511   0.005557   0.051852   5.657881   0.367146   0.394766
     5  H    0.002472  -0.000038  -0.033217   0.367146   0.397651  -0.018148
     6  H   -0.005503   0.003580  -0.056647   0.394766  -0.018148   0.419297
     7  H    0.002333  -0.000036  -0.032148   0.366057  -0.017781  -0.018104
     8  O   -0.085898   0.008261   0.288700  -0.059086  -0.004456   0.007686
     9  H    0.007704  -0.000264  -0.030331   0.019528   0.000177  -0.000030
              7          8          9
     1  O    0.002333  -0.085898   0.007704
     2  H   -0.000036   0.008261  -0.000264
     3  C   -0.032148   0.288700  -0.030331
     4  C    0.366057  -0.059086   0.019528
     5  H   -0.017781  -0.004456   0.000177
     6  H   -0.018104   0.007686  -0.000030
     7  H    0.397414  -0.004490   0.000166
     8  O   -0.004490   8.139877   0.196907
     9  H    0.000166   0.196907   0.232782
 Mulliken atomic charges:
              1
     1  O   -0.479417
     2  H    0.565206
     3  C    0.705652
     4  C   -0.763189
     5  H    0.306194
     6  H    0.273103
     7  H    0.306591
     8  O   -0.487501
     9  H    0.573361
 Sum of Mulliken atomic charges =   1.00000
 Mulliken charges with hydrogens summed into heavy atoms:
              1
     1  O    0.085789
     3  C    0.705652
     4  C    0.122699
     8  O    0.085860
 Sum of Mulliken charges with hydrogens summed into heavy atoms =   1.00000
 APT atomic charges:
              1
     1  O   -0.796045
     2  H    0.476557
     3  C    1.550988
     4  C   -0.229563
     5  H    0.123263
     6  H    0.081018
     7  H    0.123725
     8  O   -0.805506
     9  H    0.475563
 Sum of APT charges=   1.00000
 APT Atomic charges with hydrogens summed into heavy atoms:
              1
     1  O   -0.319488
     2  H    0.000000
     3  C    1.550988
     4  C    0.098443
     5  H    0.000000
     6  H    0.000000
     7  H    0.000000
     8  O   -0.329944
     9  H    0.000000
 Sum of APT charges=   1.00000
 Electronic spatial extent (au):  <R**2>=            253.8920
 Charge=              1.0000 electrons
 Dipole moment (field-independent basis, Debye):
    X=             -3.6139    Y=             -0.0940    Z=              0.0033  Tot=              3.6151
 Quadrupole moment (field-independent basis, Debye-Ang):
   XX=            -20.7956   YY=             -9.0507   ZZ=            -21.7522
   XY=             -0.8368   XZ=             -0.0029   YZ=              0.0021
 Traceless Quadrupole moment (field-independent basis, Debye-Ang):
   XX=             -3.5961   YY=              8.1488   ZZ=             -4.5527
   XY=             -0.8368   XZ=             -0.0029   YZ=              0.0021
 Octapole moment (field-independent basis, Debye-Ang**2):
  XXX=             -6.2272  YYY=             -0.8711  ZZZ=              0.0215  XYY=              0.9181
  XXY=             -0.2089  XXZ=              0.0033  XZZ=             -0.6433  YZZ=              1.0263
  YYZ=             -0.0080  XYZ=              0.0015
 Hexadecapole moment (field-independent basis, Debye-Ang**3):
 XXXX=           -149.1186 YYYY=            -48.1601 ZZZZ=            -24.3603 XXXY=             -0.6377
 XXXZ=             -0.0039 YYYX=             -2.3846 YYYZ=              0.0118 ZZZX=             -0.0386
 ZZZY=              0.0014 XXYY=            -43.7783 XXZZ=            -27.4624 YYZZ=            -23.1572
 XXYZ=             -0.0035 YYXZ=              0.0330 ZZXY=             -2.1105
 N-N= 1.302493950407D+02 E-N=-7.887429560885D+02  KE= 2.272780633480D+02
  Exact polarizability:  36.239  -1.061  40.777  -0.010   0.000  24.227
 Approx polarizability:  39.155  -1.561  47.291  -0.016   0.000  27.219
 D2PCM: C-PCM CHGder 2nd derivatives, FixD1E=F FixD2E=F DoIter=F DoCFld=F I1PDM=0
 Calling FoFJK, ICntrl=    100127 FMM=F ISym2X=0 I1Cent= 0 IOpClX= 0 NMat=1 NMatS=1 NMatT=0.
 Full mass-weighted force constant matrix:
 Low frequencies ---  -16.7239   -0.0012   -0.0008   -0.0008   35.7037   65.9259
 Low frequencies ---   95.8911  447.6761  573.2297
 Diagonal vibrational polarizability:
        7.3236099      16.5639012      22.9935373
 Harmonic frequencies (cm**-1), IR intensities (KM/Mole), Raman scattering
 activities (A**4/AMU), depolarization ratios for plane and unpolarized
 incident light, reduced masses (AMU), force constants (mDyne/A),
 and normal coordinates:
                     1                      2                      3
                     A                      A                      A
 Frequencies --    88.9759               447.6744               573.1338
 Red. masses --     1.0801                 2.6054                 2.2656
 Frc consts  --     0.0050                 0.3076                 0.4385
 IR Inten    --     0.2199                12.2744                86.2110
  Atom  AN      X      Y      Z        X      Y      Z        X      Y      Z
     1   8     0.00   0.00   0.05     0.17  -0.03   0.00     0.00  -0.01   0.10
     2   1     0.00   0.00   0.04     0.34  -0.13   0.01    -0.02   0.00  -0.35
     3   6     0.00   0.00  -0.03     0.00  -0.14   0.00     0.01   0.00  -0.29
     4   6     0.00   0.00  -0.01    -0.01   0.19   0.00     0.01   0.00   0.00
     5   1    -0.09   0.49   0.33     0.20   0.35   0.00    -0.47  -0.10   0.16
     6   1     0.00   0.00  -0.52    -0.42   0.34   0.00     0.01   0.00   0.39
     7   1     0.09  -0.50   0.32     0.20   0.36   0.00     0.50   0.11   0.16
     8   8     0.00   0.00  -0.04    -0.17  -0.05   0.00    -0.01   0.01   0.11
     9   1     0.00   0.00  -0.07    -0.31  -0.15   0.00    -0.02   0.00  -0.28
                     4                      5                      6
                     A                      A                      A
 Frequencies --   590.5900               624.9893               742.9779
 Red. masses --     3.9812                 1.1882                 1.1145
 Frc consts  --     0.8181                 0.2734                 0.3625
 IR Inten    --     2.4673                 0.0823               289.1678
  Atom  AN      X      Y      Z        X      Y      Z        X      Y      Z
     1   8     0.14   0.20   0.01     0.00   0.00   0.08     0.00   0.00  -0.01
     2   1     0.54  -0.01  -0.01     0.00   0.00  -0.71     0.00   0.00   0.68
     3   6    -0.14  -0.01  -0.02     0.00   0.00   0.01     0.00   0.00  -0.10
     4   6    -0.28  -0.01   0.00     0.00   0.00   0.00     0.00   0.00  -0.01
     5   1    -0.31  -0.02   0.01     0.01   0.00  -0.01    -0.09  -0.01   0.02
     6   1    -0.24  -0.03   0.03     0.00   0.00   0.03     0.00   0.00   0.06
     7   1    -0.25   0.00   0.01    -0.02   0.00  -0.01     0.09   0.01   0.02
     8   8     0.17  -0.19   0.01     0.00   0.00  -0.08     0.00   0.00  -0.01
     9   1     0.51   0.04  -0.02     0.00   0.00   0.70     0.00   0.00   0.71
                     7                      8                      9
                     A                      A                      A
 Frequencies --   901.0740              1053.7651              1081.7227
 Red. masses --     5.1654                 1.3507                 1.7461
 Frc consts  --     2.4710                 0.8837                 1.2038
 IR Inten    --     2.6696                 2.5757                34.3142
  Atom  AN      X      Y      Z        X      Y      Z        X      Y      Z
     1   8    -0.14   0.24   0.00     0.02  -0.01   0.00     0.00   0.00   0.03
     2   1     0.25   0.05   0.00     0.12  -0.07   0.00     0.00   0.00  -0.04
     3   6    -0.20  -0.01   0.00     0.00   0.01   0.00     0.00   0.00  -0.19
     4   6     0.37  -0.02   0.00     0.01   0.16   0.00     0.00   0.00   0.17
     5   1     0.46   0.09   0.02    -0.33  -0.27  -0.10     0.58  -0.08  -0.15
     6   1     0.30   0.02   0.00     0.71  -0.09   0.00     0.00   0.00  -0.45
     7   1     0.46   0.09  -0.02    -0.32  -0.28   0.10    -0.58   0.08  -0.15
     8   8    -0.10  -0.24   0.00    -0.03  -0.06   0.00     0.00   0.00   0.03
     9   1     0.28   0.00   0.00    -0.18  -0.17   0.00     0.00   0.00  -0.03
                    10                     11                     12
                     A                      A                      A
 Frequencies --  1180.1441              1218.3155              1406.6300
 Red. masses --     1.3904                 1.2974                 1.1354
 Frc consts  --     1.1409                 1.1346                 1.3236
 IR Inten    --   468.3752               103.6112                70.2207
  Atom  AN      X      Y      Z        X      Y      Z        X      Y      Z
     1   8    -0.10   0.02   0.00    -0.01   0.10   0.00     0.00  -0.01   0.00
     2   1     0.74  -0.43   0.00    -0.41   0.31   0.00     0.02  -0.02   0.00
     3   6    -0.01  -0.05   0.00     0.07  -0.01   0.00     0.01   0.03   0.00
     4   6     0.01  -0.01   0.00    -0.02  -0.01   0.00     0.10  -0.03   0.00
     5   1     0.03   0.02   0.01     0.02  -0.02  -0.02    -0.50   0.24   0.41
     6   1    -0.04   0.00   0.00    -0.16   0.03   0.00    -0.15   0.06   0.00
     7   1     0.03   0.03  -0.01     0.02  -0.02   0.02    -0.51   0.24  -0.41
     8   8     0.08   0.08   0.00     0.05  -0.06   0.00    -0.01  -0.02   0.00
     9   1    -0.41  -0.26   0.00    -0.63  -0.53   0.00    -0.04  -0.04   0.00
                    13                     14                     15
                     A                      A                      A
 Frequencies --  1480.8768              1484.8340              1548.3525
 Red. masses --     1.0403                 1.1467                 5.7712
 Frc consts  --     1.3442                 1.4895                 8.1518
 IR Inten    --    20.5622                50.9993               457.5282
  Atom  AN      X      Y      Z        X      Y      Z        X      Y      Z
     1   8     0.00   0.00   0.00     0.03  -0.03   0.00    -0.17   0.10   0.00
     2   1     0.00   0.00   0.01    -0.05   0.02   0.00     0.48  -0.21   0.00
     3   6     0.00   0.00  -0.03    -0.04   0.04   0.00     0.53   0.07   0.00
     4   6    -0.01   0.00  -0.04    -0.07  -0.04   0.00    -0.16  -0.03   0.00
     5   1     0.35   0.41   0.06     0.17   0.42   0.16     0.05   0.20   0.06
     6   1     0.04  -0.02   0.69     0.60  -0.26  -0.05     0.13  -0.14   0.00
     7   1    -0.33  -0.35   0.03     0.21   0.48  -0.17     0.05   0.20  -0.06
     8   8     0.00   0.00   0.01     0.01   0.00   0.00    -0.17  -0.15   0.00
     9   1    -0.01  -0.01  -0.03    -0.14  -0.11   0.00     0.40   0.20   0.00
                    16                     17                     18
                     A                      A                      A
 Frequencies --  1643.4144              3068.0228              3132.3222
 Red. masses --     4.1458                 1.0374                 1.1007
 Frc consts  --     6.5970                 5.7534                 6.3629
 IR Inten    --   289.9914                19.0131                10.4959
  Atom  AN      X      Y      Z        X      Y      Z        X      Y      Z
     1   8     0.06  -0.14   0.00     0.00   0.00   0.00     0.00   0.00   0.00
     2   1     0.34  -0.28   0.00     0.00   0.00   0.00     0.00   0.00   0.00
     3   6    -0.05   0.47   0.00     0.00   0.00   0.00     0.00   0.00   0.00
     4   6     0.02  -0.05   0.00    -0.05   0.02   0.00     0.00   0.00   0.09
     5   1     0.18  -0.13  -0.13     0.22  -0.30   0.52    -0.25   0.35  -0.56
     6   1    -0.42   0.11   0.01     0.13   0.38   0.00     0.00  -0.01   0.02
     7   1     0.17  -0.14   0.13     0.22  -0.30  -0.53     0.25  -0.34  -0.56
     8   8    -0.03  -0.13   0.00     0.00   0.00   0.00     0.00   0.00   0.00
     9   1    -0.33  -0.32   0.00     0.00   0.00   0.00     0.00   0.00   0.00
                    19                     20                     21
                     A                      A                      A
 Frequencies --  3177.7692              3669.2802              3683.7377
 Red. masses --     1.1043                 1.0664                 1.0702
 Frc consts  --     6.5700                 8.4592                 8.5560
 IR Inten    --     2.1343               547.6325               111.8753
  Atom  AN      X      Y      Z        X      Y      Z        X      Y      Z
     1   8     0.00   0.00   0.00    -0.01  -0.02   0.00    -0.03  -0.05   0.00
     2   1    -0.01   0.00   0.00     0.18   0.35   0.00     0.43   0.81   0.00
     3   6     0.00   0.00   0.00     0.00   0.00   0.00     0.00   0.00   0.00
     4   6    -0.01  -0.09   0.00     0.00   0.00   0.00     0.00   0.00   0.00
     5   1    -0.10   0.12  -0.23     0.00   0.00   0.00     0.00   0.00   0.00
     6   1     0.30   0.86   0.00     0.00   0.00   0.00     0.00   0.01   0.00
     7   1    -0.10   0.12   0.23     0.00   0.00   0.00     0.00   0.00   0.00
     8   8     0.00   0.00   0.00     0.03  -0.05   0.00    -0.01   0.02   0.00
     9   1     0.00   0.00   0.00    -0.51   0.76   0.00     0.22  -0.32   0.00

 -------------------
 - Thermochemistry -
 -------------------
 Temperature   298.150 Kelvin.  Pressure   1.00000 Atm.
 Atom     1 has atomic number  8 and mass  15.99491
 Atom     2 has atomic number  1 and mass   1.00783
 Atom     3 has atomic number  6 and mass  12.00000
 Atom     4 has atomic number  6 and mass  12.00000
 Atom     5 has atomic number  1 and mass   1.00783
 Atom     6 has atomic number  1 and mass   1.00783
 Atom     7 has atomic number  1 and mass   1.00783
 Atom     8 has atomic number  8 and mass  15.99491
 Atom     9 has atomic number  1 and mass   1.00783
 Molecular mass:    61.02895 amu.
 Principal axes and moments of inertia in atomic units:
                           1         2         3
     Eigenvalues --   167.00515 197.05176 352.71225
           X            0.99999  -0.00489  -0.00001
           Y            0.00489   0.99999   0.00002
           Z            0.00001  -0.00002   1.00000
 This molecule is an asymmetric top.
 Rotational symmetry number  1.
 Rotational temperatures (Kelvin)      0.51863     0.43955     0.24557
 Rotational constants (GHZ):          10.80650     9.15872     5.11675
 Zero-point vibrational energy     196179.2 (Joules/Mol)
                                   46.88796 (Kcal/Mol)
 Warning -- explicit consideration of   4 degrees of freedom as
           vibrations may cause significant error
 Vibrational temperatures:    128.02   644.10   824.61   849.73   899.22
          (Kelvin)           1068.98  1296.44  1516.13  1556.36  1697.96
                             1752.88  2023.82  2130.65  2136.34  2227.73
                             2364.50  4414.19  4506.71  4572.10  5279.27
                             5300.07
 
 Zero-point correction=                           0.074721 (Hartree/Particle)
 Thermal correction to Energy=                    0.079328
 Thermal correction to Enthalpy=                  0.080272
 Thermal correction to Gibbs Free Energy=         0.047605
 Sum of electronic and zero-point Energies=           -229.326135
 Sum of electronic and thermal Energies=              -229.321528
 Sum of electronic and thermal Enthalpies=            -229.320584
 Sum of electronic and thermal Free Energies=         -229.353250
 
                     E (Thermal)             CV                S
                      KCal/Mol        Cal/Mol-Kelvin    Cal/Mol-Kelvin
 Total                   49.779             15.053             68.753
 Electronic               0.000              0.000              0.000
 Translational            0.889              2.981             38.246
 Rotational               0.889              2.981             23.966
 Vibrational             48.001              9.092              6.541
 Vibration     1          0.602              1.957              3.682
 Vibration     2          0.807              1.366              0.803
 Vibration     3          0.929              1.089              0.498
 Vibration     4          0.948              1.052              0.466
                       Q            Log10(Q)             Ln(Q)
 Total Bot       0.126841D-21        -21.896739        -50.419104
 Total V=0       0.296709D+13         12.472331         28.718602
 Vib (Bot)       0.175505D-33        -33.755710        -77.725394
 Vib (Bot)    1  0.231121D+01          0.363839          0.837769
 Vib (Bot)    2  0.383785D+00         -0.415912         -0.957674
 Vib (Bot)    3  0.267701D+00         -0.572349         -1.317883
 Vib (Bot)    4  0.255275D+00         -0.592991         -1.365413
 Vib (V=0)       0.410544D+01          0.613360          1.412313
 Vib (V=0)    1  0.286467D+01          0.457075          1.052454
 Vib (V=0)    2  0.113031D+01          0.053198          0.122492
 Vib (V=0)    3  0.106715D+01          0.028227          0.064996
 Vib (V=0)    4  0.106140D+01          0.025877          0.059585
 Electronic      0.100000D+01          0.000000          0.000000
 Translational   0.187395D+08          7.272759         16.746147
 Rotational      0.385666D+05          4.586212         10.560143
 ***** Axes restored to original set *****
 -------------------------------------------------------------------
 Center     Atomic                   Forces (Hartrees/Bohr)
 Number     Number              X              Y              Z
 -------------------------------------------------------------------
      1        8           0.002189745   -0.000013077    0.000008454
      2        1          -0.001619876    0.000959976   -0.000015123
      3        6          -0.005184555    0.000451795   -0.000011974
      4        6          -0.000473457   -0.000725964   -0.000006144
      5        1           0.001560367    0.000057358    0.001036298
      6        1           0.001629444    0.000517318    0.000009623
      7        1           0.001577111    0.000068371   -0.001028177
      8        8           0.002089959   -0.000237103    0.000028776
      9        1          -0.001768739   -0.001078675   -0.000021733
 -------------------------------------------------------------------
 Cartesian Forces:  Max     0.005184555 RMS     0.001425656

 GradGradGradGradGradGradGradGradGradGradGradGradGradGradGradGradGradGrad
 Berny optimization.
 Search for a local minimum.
 Step number   1 out of a maximum of    2
 All quantities printed in internal units (Hartrees-Bohrs-Radians)
 Second derivative matrix not updated -- analytic derivatives used.
     Eigenvalues ---    0.00046   0.01803   0.02459   0.03624   0.03637
     Eigenvalues ---    0.03969   0.06598   0.09193   0.09952   0.09992
     Eigenvalues ---    0.17560   0.23693   0.28066   0.28128   0.63101
     Eigenvalues ---    0.74006   0.74151   0.82788   1.00571   1.29011
     Eigenvalues ---    1.30049
 Angle between quadratic step and forces=  59.76 degrees.
 Linear search not attempted -- first point.
 TrRot= -0.000088 -0.000247  0.000182  1.343341 -0.000195 -1.343210
 Variable       Old X    -DE/DX   Delta X   Delta X   Delta X     New X
                                 (Linear)    (Quad)   (Total)
    X1        1.61004   0.00219   0.00000  -0.00215  -0.00198   1.60807
    Y1       -1.94252  -0.00001   0.00000  -0.00256  -0.00260  -1.94512
    Z1        0.00006   0.00001   0.00000  -0.00088  -0.00100  -0.00094
    X2        0.72664  -0.00162   0.00000  -0.03607  -0.03569   0.69095
    Y2       -3.56468   0.00096   0.00000   0.01549   0.01533  -3.54935
    Z2        0.00030  -0.00002   0.00000  -0.00247  -0.00293  -0.00263
    X3        0.15300  -0.00518   0.00000  -0.00192  -0.00200   0.15099
    Y3       -0.00522   0.00045   0.00000  -0.00007  -0.00030  -0.00551
    Z3       -0.00029  -0.00001   0.00000   0.00008   0.00027  -0.00003
    X4       -2.65511  -0.00047   0.00000   0.00912   0.00905  -2.64607
    Y4       -0.12346  -0.00073   0.00000  -0.00166  -0.00226  -0.12571
    Z4       -0.00016  -0.00001   0.00000   0.00009   0.00013  -0.00003
    X5       -3.38849   0.00156   0.00000   0.02516   0.02503  -3.36346
    Y5        0.86334   0.00006   0.00000   0.00262   0.00225   0.86558
    Z5       -1.67138   0.00104   0.00000   0.00009   0.00029  -1.67109
    X6       -3.35133   0.00163   0.00000   0.02233   0.02252  -3.32881
    Y6       -2.06555   0.00052   0.00000  -0.00268  -0.00336  -2.06891
    Z6       -0.01058   0.00001   0.00000   0.00409   0.00373  -0.00685
    X7       -3.38623   0.00158   0.00000   0.02496   0.02469  -3.36154
    Y7        0.84381   0.00007   0.00000   0.00981   0.00880   0.85261
    Z7        1.68365  -0.00103   0.00000  -0.00421  -0.00401   1.67964
    X8        1.39786   0.00209   0.00000  -0.00397  -0.00434   1.39353
    Y8        2.07931  -0.00024   0.00000   0.00210   0.00204   2.08135
    Z8       -0.00011   0.00003   0.00000   0.00141   0.00205   0.00194
    X9        0.34889  -0.00177   0.00000  -0.03671  -0.03727   0.31162
    Y9        3.60082  -0.00108   0.00000  -0.01970  -0.01990   3.58092
    Z9        0.00116  -0.00002   0.00000   0.00059   0.00147   0.00263
         Item               Value     Threshold  Converged?
 Maximum Force            0.005185     0.000450     NO 
 RMS     Force            0.001426     0.000300     NO 
 Maximum Displacement     0.037273     0.001800     NO 
 RMS     Displacement     0.014013     0.001200     NO 
 Predicted change in Energy=-1.359385D-04
 GradGradGradGradGradGradGradGradGradGradGradGradGradGradGradGradGradGrad

 1|1|UNPC-WST-PGHS-011|Freq|RX3LYP|6-31+G(d)|C2H5O2(1+)|214584429|23-Se
 p-2015|0||# freq=noraman x3lyp/6-31+g(d) scrf=(cpcm,solvent=methanol) 
 geom=connectivity||hach cpcm||1,1|O,0.851998,-1.027938,0.000031|H,0.38
 4522,-1.886346,0.000159|C,0.080962,-0.002762,-0.000156|C,-1.405026,-0.
 06533,-0.000083|H,-1.793112,0.456858,-0.884455|H,-1.773445,-1.093044,-
 0.005597|H,-1.791915,0.446524,0.890948|O,0.739716,1.100324,-0.00006|H,
 0.184627,1.905472,0.000614||Version=IA32W-G09RevA.02|State=1-A|HF=-229
 .4008552|RMSD=1.248e-009|RMSF=1.426e-003|ZeroPoint=0.0747207|Thermal=0
 .0793275|Dipole=-1.4218262,-0.036977,0.0013066|DipoleDeriv=-0.7037612,
 0.5980771,0.0000106,0.3606363,-1.3536736,-0.0001274,-0.0000351,-0.0002
 4,-0.3306993,0.3615312,-0.0328062,0.0000021,-0.0764638,0.628065,-0.000
 0644,-0.0000664,0.0000044,0.4400749,1.7367646,-0.0897649,-0.0009744,-0
 .0528154,2.3781024,-0.0001316,-0.0004817,-0.000103,0.5380977,-0.484803
 4,0.0473076,0.0009997,0.1592561,-0.1109945,-0.0000192,0.0035312,0.0001
 176,-0.0928913,0.1348281,-0.0237741,0.0263621,-0.0632215,0.1213875,0.0
 542023,0.0118223,0.0514856,0.1135741,0.0904781,0.0377267,0.0001537,-0.
 0161265,0.0013637,-0.0005761,-0.0007722,-0.0007116,0.1512119,0.1350501
 ,-0.0232353,-0.02644,-0.0630759,0.1232345,-0.0535518,-0.013917,-0.0509
 201,0.1128912,-0.620605,-0.5107793,-0.0000655,-0.2964286,-1.4216941,0.
 0001868,-0.0000572,0.0003506,-0.3742203,0.3505175,-0.0027515,-0.000048
 3,0.0482393,0.6342089,0.0000812,-0.000024,0.0000166,0.4419611|Polar=36
 .2387325,-1.0611587,40.7768369,-0.010449,0.0003204,24.2265337|PG=C01 [
 X(C2H5O2)]|NImag=0||0.42390931,-0.00497499,0.80954482,0.00003648,-0.00
 010218,0.03746378,-0.15321101,-0.22098247,0.00002921,0.14370573,-0.165
 94772,-0.35921798,0.00004978,0.17849428,0.39393506,0.00001447,0.000046
 38,-0.01443957,-0.00010279,0.00002146,0.01618728,-0.27660818,0.2009887
 8,-0.00004164,0.01285849,-0.01667250,0.00000701,0.72987716,0.14135366,
 -0.31825127,0.00005775,0.03263070,-0.04230962,-0.00000893,-0.01063029,
 0.85270596,-0.00004316,0.00006409,-0.05821979,-0.00000808,0.00000033,-
 0.00706437,0.00008442,0.00002767,0.22964843,-0.02246833,0.01231383,0.0
 0000007,-0.00023078,-0.00078652,-0.00000608,-0.20320939,-0.00667630,-0
 .00007335,0.48588136,0.03745759,-0.00626921,-0.00009454,0.00336748,0.0
 0211229,0.00003112,-0.02213168,-0.09902773,-0.00002306,0.02147092,0.61
 517633,-0.00000119,-0.00007627,0.03101728,0.00003798,-0.00001874,-0.00
 502256,-0.00033785,-0.00003222,-0.09800085,0.00046129,0.00003463,0.540
 46610,-0.00474038,-0.00021725,0.00425372,-0.00009226,-0.00072239,-0.00
 069530,-0.01479163,0.01880449,-0.03275802,-0.07868643,0.04044672,-0.07
 700849,0.08806328,0.00015100,0.00174968,0.00035171,-0.00062955,0.00019
 964,0.00022841,0.00577296,-0.00169838,-0.00406266,0.03939453,-0.106370
 96,0.10831041,-0.04706042,0.11236814,0.00240607,-0.00147057,-0.0022839
 3,-0.00005005,0.00028377,0.00038993,-0.00107643,-0.00196533,0.00181124
 ,-0.07770046,0.10764098,-0.21833658,0.08492121,-0.11615013,0.23646726,
 0.00314792,0.00015832,0.00002272,-0.00160766,0.00074347,0.00008104,-0.
 01026052,-0.03621606,-0.00019845,-0.08053465,-0.08048130,-0.00050929,0
 .00471473,0.01185408,0.00186326,0.08827844,0.00083782,0.00136380,0.000
 01478,0.00003511,0.00137463,-0.00007514,0.00253845,0.00181846,0.000061
 91,-0.08939061,-0.30381275,-0.00137194,-0.00423556,-0.01186870,-0.0013
 6270,0.09229108,0.32086548,-0.00000717,0.00001908,-0.00064155,0.000051
 63,-0.00005630,0.00057345,0.00008600,0.00006873,-0.00501870,-0.0005505
 0,-0.00139598,-0.04576723,0.00981953,0.02348766,0.00168561,0.00044551,
 0.00155071,0.04484952,-0.00467547,-0.00021275,-0.00430564,-0.00008995,
 -0.00071084,0.00070291,-0.01479151,0.01843633,0.03303008,-0.07844452,0
 .03943611,0.07728962,0.00501123,-0.00626193,-0.00939468,0.00469777,-0.
 00412552,-0.00985984,0.08770120,0.00018897,0.00171697,-0.00027938,-0.0
 0061814,0.00019689,-0.00024450,0.00575335,-0.00174803,0.00399506,0.038
 25594,-0.10397315,-0.10695775,-0.00635723,0.00746332,0.01290545,0.0118
 4323,-0.01163519,-0.02366016,-0.04593295,0.10989256,-0.00240450,0.0015
 1931,-0.00230752,0.00003894,-0.00028222,0.00039095,0.00129124,0.001884
 78,0.00184219,0.07780183,-0.10631469,-0.22084375,0.00929204,-0.0125749
 4,-0.01980595,-0.00172226,0.00121229,0.00143307,-0.08518118,0.11470981
 ,0.23919947,0.03550821,0.02054554,-0.00000059,-0.00243992,0.00590529,-
 0.00000416,-0.23770580,-0.13040531,-0.00000085,-0.02068479,-0.03961644
 ,0.00000132,0.00131862,-0.00176654,0.00020094,-0.00796525,0.00165184,0
 .00002165,0.00129992,-0.00177479,-0.00026328,0.42770045,-0.00260996,-0
 .13374900,0.00000808,0.00720559,0.00452317,0.00000241,-0.18747507,-0.3
 4959857,-0.00006160,-0.01587723,-0.00269226,0.00008829,0.00042073,-0.0
 0209409,0.00044414,-0.00143792,0.00175072,-0.00001145,0.00040380,-0.00
 210973,-0.00049607,-0.03724857,0.80080951,-0.00000070,-0.00000349,0.00
 362991,0.00000175,-0.00000078,0.00562927,-0.00001603,-0.00008215,-0.05
 810833,-0.00000338,0.00009674,0.01867323,0.00388673,0.00085628,0.00056
 896,0.00002045,-0.00003679,0.00366654,-0.00394925,-0.00090411,0.000594
 15,-0.00014249,0.00031914,0.04002245,-0.00086206,-0.00761901,0.0000056
 7,0.00110736,-0.00030309,0.00000290,0.01463138,-0.02729721,-0.00003259
 ,-0.00162248,0.00005059,0.00006661,-0.00079717,-0.00145413,-0.00116985
 ,-0.00047078,0.00039739,-0.00000682,-0.00070866,-0.00135837,0.00114719
 ,-0.19703143,0.23661862,0.00020293,0.18575384,-0.00645636,0.00311218,-
 0.00000600,0.00049700,-0.00081407,-0.00000119,0.02185600,-0.04189083,-
 0.00000174,0.00129545,0.00485743,0.00002360,-0.00107909,0.00025135,-0.
 00032560,0.00124510,0.00014355,-0.00000230,-0.00103226,0.00019636,0.00
 034174,0.18270898,-0.31683975,-0.00024485,-0.19903481,0.35098379,-0.00
 000030,0.00000366,0.00578139,0.00000141,0.00000270,0.00335564,0.000003
 28,0.00004972,-0.00688981,0.00007060,0.00002481,-0.00218563,-0.0017114
 2,-0.00044674,-0.00049653,-0.00000298,0.00000688,-0.00078070,0.0016679
 8,0.00043559,-0.00050261,0.00018747,-0.00029294,-0.01467618,-0.0002160
 4,0.00021633,0.01639444||-0.00218974,0.00001308,-0.00000845,0.00161988
 ,-0.00095998,0.00001512,0.00518455,-0.00045180,0.00001197,0.00047346,0
 .00072596,0.00000614,-0.00156037,-0.00005736,-0.00103630,-0.00162944,-
 0.00051732,-0.00000962,-0.00157711,-0.00006837,0.00102818,-0.00208996,
 0.00023710,-0.00002878,0.00176874,0.00107867,0.00002173|||@


 THOSE WHO TRY TO PASS CHEMISTRY OFF AS A NEW SCIENCE
 SHOW HOW LITTLE KNOWLEDGE THEY HAVE OF THE CHARACTER
 AND LITERATURE OF THE ANCIENTS.
   -- NICOLAS LEFEVRE
 "COURS DE CHYMIE" J.-N.LELOUP, PARIS, 1751
 Job cpu time:  0 days  0 hours  2 minutes  4.0 seconds.
 File lengths (MBytes):  RWF=     19 Int=      0 D2E=      0 Chk=      6 Scr=      1
 Normal termination of Gaussian 09 at Wed Sep 23 12:45:23 2015.
