 Entering Link 1 = C:\G09W\l1.exe PID=       828.
  
 Copyright (c) 1988,1990,1992,1993,1995,1998,2003,2009, Gaussian, Inc.
                  All Rights Reserved.
  
 This is part of the Gaussian(R) 09 program.  It is based on
 the Gaussian(R) 03 system (copyright 2003, Gaussian, Inc.),
 the Gaussian(R) 98 system (copyright 1998, Gaussian, Inc.),
 the Gaussian(R) 94 system (copyright 1995, Gaussian, Inc.),
 the Gaussian 92(TM) system (copyright 1992, Gaussian, Inc.),
 the Gaussian 90(TM) system (copyright 1990, Gaussian, Inc.),
 the Gaussian 88(TM) system (copyright 1988, Gaussian, Inc.),
 the Gaussian 86(TM) system (copyright 1986, Carnegie Mellon
 University), and the Gaussian 82(TM) system (copyright 1983,
 Carnegie Mellon University). Gaussian is a federally registered
 trademark of Gaussian, Inc.
  
 This software contains proprietary and confidential information,
 including trade secrets, belonging to Gaussian, Inc.
  
 This software is provided under written license and may be
 used, copied, transmitted, or stored only in accord with that
 written license.
  
 The following legend is applicable only to US Government
 contracts under FAR:
  
                    RESTRICTED RIGHTS LEGEND
  
 Use, reproduction and disclosure by the US Government is
 subject to restrictions as set forth in subparagraphs (a)
 and (c) of the Commercial Computer Software - Restricted
 Rights clause in FAR 52.227-19.
  
 Gaussian, Inc.
 340 Quinnipiac St., Bldg. 40, Wallingford CT 06492
  
  
 ---------------------------------------------------------------
 Warning -- This program may not be used in any manner that
 competes with the business of Gaussian, Inc. or will provide
 assistance to any competitor of Gaussian, Inc.  The licensee
 of this program is prohibited from giving any competitor of
 Gaussian, Inc. access to this program.  By using this program,
 the user acknowledges that Gaussian, Inc. is engaged in the
 business of creating and licensing software in the field of
 computational chemistry and represents and warrants to the
 licensee that it is not a competitor of Gaussian, Inc. and that
 it will not use this program in any manner prohibited above.
 ---------------------------------------------------------------
  

 Cite this work as:
 Gaussian 09, Revision A.02,
 M. J. Frisch, G. W. Trucks, H. B. Schlegel, G. E. Scuseria, 
 M. A. Robb, J. R. Cheeseman, G. Scalmani, V. Barone, B. Mennucci, 
 G. A. Petersson, H. Nakatsuji, M. Caricato, X. Li, H. P. Hratchian, 
 A. F. Izmaylov, J. Bloino, G. Zheng, J. L. Sonnenberg, M. Hada, 
 M. Ehara, K. Toyota, R. Fukuda, J. Hasegawa, M. Ishida, T. Nakajima, 
 Y. Honda, O. Kitao, H. Nakai, T. Vreven, J. A. Montgomery, Jr., 
 J. E. Peralta, F. Ogliaro, M. Bearpark, J. J. Heyd, E. Brothers, 
 K. N. Kudin, V. N. Staroverov, R. Kobayashi, J. Normand, 
 K. Raghavachari, A. Rendell, J. C. Burant, S. S. Iyengar, J. Tomasi, 
 M. Cossi, N. Rega, J. M. Millam, M. Klene, J. E. Knox, J. B. Cross, 
 V. Bakken, C. Adamo, J. Jaramillo, R. Gomperts, R. E. Stratmann, 
 O. Yazyev, A. J. Austin, R. Cammi, C. Pomelli, J. W. Ochterski, 
 R. L. Martin, K. Morokuma, V. G. Zakrzewski, G. A. Voth, 
 P. Salvador, J. J. Dannenberg, S. Dapprich, A. D. Daniels, 
 O. Farkas, J. B. Foresman, J. V. Ortiz, J. Cioslowski, 
 and D. J. Fox, Gaussian, Inc., Wallingford CT, 2009.
 
 ******************************************
 Gaussian 09:  IA32W-G09RevA.02 11-Jun-2009
                23-Sep-2015 
 ******************************************
 %chk=C:\Users\214584429\Desktop\Solution phase\MEOH-cpcm.chk
 ----------------------------------------------------------------------
 # freq=noraman x3lyp/6-31+g(d) scrf=(cpcm,solvent=methanol) geom=conne
 ctivity
 ----------------------------------------------------------------------
 1/10=4,30=1,38=1,57=2/1,3;
 2/12=2,17=6,18=5,40=1/2;
 3/5=1,6=6,7=11,11=2,16=1,25=1,30=1,70=2101,71=2,72=3,74=-33/1,2,3;
 4//1;
 5/5=2,38=5,53=3,98=1/2;
 8/6=4,10=90,11=11/1;
 11/6=1,8=1,9=11,15=111,16=1/1,2,10;
 10/6=1/2;
 6/7=2,8=2,9=2,10=2,18=1,28=1/1;
 7/8=1,10=1,25=1/1,2,3,16;
 1/10=4,30=1/3;
 99//99;
 ---------
 meoh cpcm
 ---------
 Symbolic Z-matrix:
 Charge =  0 Multiplicity = 1
 C                     0.66831  -0.02088   0. 
 H                     1.08066   0.9907   0. 
 H                     1.02806  -0.54662  -0.89579 
 H                     1.02806  -0.54662   0.89579 
 O                    -0.74884   0.12295   0. 
 H                    -1.15589  -0.75576   0. 
 

 GradGradGradGradGradGradGradGradGradGradGradGradGradGradGradGradGradGrad
 Berny optimization.
 Initialization pass.
 Trust Radius=3.00D-01 FncErr=1.00D-07 GrdErr=1.00D-07
 Number of steps in this run=   2 maximum allowed number of steps=   2.
 GradGradGradGradGradGradGradGradGradGradGradGradGradGradGradGradGradGrad

                          Input orientation:                          
 ---------------------------------------------------------------------
 Center     Atomic      Atomic             Coordinates (Angstroms)
 Number     Number       Type             X           Y           Z
 ---------------------------------------------------------------------
      1          6           0        0.668313   -0.020879    0.000000
      2          1           0        1.080655    0.990697   -0.000002
      3          1           0        1.028058   -0.546621   -0.895790
      4          1           0        1.028059   -0.546618    0.895792
      5          8           0       -0.748844    0.122947    0.000000
      6          1           0       -1.155893   -0.755762    0.000000
 ---------------------------------------------------------------------
                    Distance matrix (angstroms):
                    1          2          3          4          5
     1  C    0.000000
     2  H    1.092388   0.000000
     3  H    1.099209   1.780042   0.000000
     4  H    1.099210   1.780042   1.791582   0.000000
     5  O    1.424437   2.024860   2.099558   2.099558   0.000000
     6  H    1.966667   2.837651   2.369772   2.369774   0.968410
                    6
     6  H    0.000000
 Stoichiometry    CH4O
 Framework group  C1[X(CH4O)]
 Deg. of freedom    12
 Full point group                 C1      NOp   1
 Largest Abelian subgroup         C1      NOp   1
 Largest concise Abelian subgroup C1      NOp   1
                         Standard orientation:                         
 ---------------------------------------------------------------------
 Center     Atomic      Atomic             Coordinates (Angstroms)
 Number     Number       Type             X           Y           Z
 ---------------------------------------------------------------------
      1          6           0        0.668313   -0.020879    0.000000
      2          1           0        1.080655    0.990697   -0.000002
      3          1           0        1.028058   -0.546621   -0.895790
      4          1           0        1.028059   -0.546618    0.895792
      5          8           0       -0.748844    0.122947    0.000000
      6          1           0       -1.155893   -0.755762    0.000000
 ---------------------------------------------------------------------
 Rotational constants (GHZ):    127.1777552     24.6341456     23.7777258
 Standard basis: 6-31+G(d) (6D, 7F)
 There are    46 symmetry adapted basis functions of A   symmetry.
 Integral buffers will be    262144 words long.
 Raffenetti 2 integral format.
 Two-electron integral symmetry is turned on.
    46 basis functions,    80 primitive gaussians,    46 cartesian basis functions
     9 alpha electrons        9 beta electrons
       nuclear repulsion energy        40.1478671978 Hartrees.
 NAtoms=    6 NActive=    6 NUniq=    6 SFac= 7.50D-01 NAtFMM=   80 NAOKFM=F Big=F
 ------------------------------------------------------------------------------
 Polarizable Continuum Model (PCM)
 =================================
 Model                : C-PCM.
 Atomic radii         : UFF (Universal Force Field).
 Polarization charges : Total charges.
 Charge compensation  : None.
 Solution method      : Matrix inversion.
 Cavity type          : Scaled VdW (van der Waals Surface) (Alpha=1.100).
 Cavity algorithm     : GePol (No added spheres)
                        Default sphere list used, NSphG=    6.
                        Lebedev-Laikov grids with approx.  5.0 points / Ang**2.
                        Smoothing algorithm: Karplus/York (Gamma=1.0000).
                        Polarization charges: spherical gaussians, with
                                              point-specific exponents (IZeta= 3).
                        Self-potential: point-specific (ISelfS= 7).
                        Self-field    : sphere-specific E.n sum rule (ISelfD= 2).
 1st derivatives      : Analytical E(r).r(x)/FMM algorithm (CHGder, D1EAlg=3).
                        Cavity 1st derivative terms included.
 2nd derivatives      : Analytical E(r).r(xy)/FMM algorithm (CHGder, D2EAlg=3).
                        Cavity 2nd derivative terms included.
 Solvent              : Methanol, Eps=  32.613000 Eps(inf)=   1.765709
 ------------------------------------------------------------------------------
 Spheres list:
 ISph  on   Nord    Re0     Alpha      Xe            Ye            Ze
    1   C      1    1.926   1.100      0.668313     -0.020879      0.000000
    2   H      2    1.443   1.100      1.080655      0.990697     -0.000002
    3   H      3    1.443   1.100      1.028058     -0.546621     -0.895790
    4   H      4    1.443   1.100      1.028059     -0.546618      0.895792
    5   O      5    1.750   1.100     -0.748844      0.122947      0.000000
    6   H      6    1.443   1.100     -1.155893     -0.755762      0.000000
 ------------------------------------------------------------------------------
 One-electron integrals computed using PRISM.
 NBasis=    46 RedAO= T  NBF=    46
 NBsUse=    46 1.00D-06 NBFU=    46
 Harris functional with IExCor= 3102 diagonalized for initial guess.
 ExpMin= 4.38D-02 ExpMax= 5.48D+03 ExpMxC= 8.25D+02 IAcc=2 IRadAn=         0 AccDes= 0.00D+00
 HarFok:  IExCor= 3102 AccDes= 0.00D+00 IRadAn=         0 IDoV= 1
 ScaDFX=  1.000000  1.000000  1.000000  1.000000
 FoFCou: FMM=F IPFlag=           0 FMFlag=      100000 FMFlg1=           0
         NFxFlg=           0 DoJE=T BraDBF=F KetDBF=T FulRan=T
         Omega=  0.000000  0.000000  1.000000  0.000000  0.000000 ICntrl=     500 IOpCl=  0
         NMat0=    1 NMatS0=    1 NMatT0=    0 NMatD0=    1 NMtDS0=    0 NMtDT0=    0
         I1Cent=           4 NGrid=           0.
 Petite list used in FoFCou.
 Initial guess orbital symmetries:
       Occupied  (A) (A) (A) (A) (A) (A) (A) (A) (A)
       Virtual   (A) (A) (A) (A) (A) (A) (A) (A) (A) (A) (A) (A)
                 (A) (A) (A) (A) (A) (A) (A) (A) (A) (A) (A) (A)
                 (A) (A) (A) (A) (A) (A) (A) (A) (A) (A) (A) (A)
                 (A)
 The electronic state of the initial guess is 1-A.
 Requested convergence on RMS density matrix=1.00D-08 within 128 cycles.
 Requested convergence on MAX density matrix=1.00D-06.
 Requested convergence on             energy=1.00D-06.
 No special actions if energy rises.
 Keep R1 ints in memory in canonical form, NReq=3976331.
 Error on total polarization charges =  0.00858
 SCF Done:  E(RX3LYP) =  -115.679667014     A.U. after    9 cycles
             Convg  =    0.3880D-08             -V/T =  2.0092
 Range of M.O.s used for correlation:     1    46
 NBasis=    46 NAE=     9 NBE=     9 NFC=     0 NFV=     0
 NROrb=     46 NOA=     9 NOB=     9 NVA=    37 NVB=    37
 Symmetrizing basis deriv contribution to polar:
 IMax=3 JMax=2 DiffMx= 0.00D+00
 G2DrvN: will do     7 centers at a time, making    1 passes doing MaxLOS=2.
 Calling FoFCou, ICntrl=  3107 FMM=F I1Cent=   0 AccDes= 0.00D+00.
 FoFDir/FoFCou used for L=0 through L=2.
 G2PCM: DoFxE=T DoFxN=T DoGrad=T DoPD/DQ/DG=FFF NFrqRd=   0 IEInf=0 DoCFld=F IF1Alg=4.
 End of G2Drv Frequency-dependent properties file   721 does not exist.
 End of G2Drv Frequency-dependent properties file   722 does not exist.
          IDoAtm=111111
 NEqPCM:  Using equilibrium solvation (IEInf=0, Eps=  32.6130, EpsInf=   1.7657)
          Differentiating once with respect to electric field.
                with respect to dipole field.
          Differentiating once with respect to nuclear coordinates.
          Keep R1 ints in memory in canonical form, NReq=1406057.
          There are    21 degrees of freedom in the 1st order CPHF.  IDoFFX=5.
     18 vectors produced by pass  0 Test12= 1.59D-15 4.76D-09 XBig12= 9.35D+00 1.14D+00.
 AX will form    18 AO Fock derivatives at one time.
     18 vectors produced by pass  1 Test12= 1.59D-15 4.76D-09 XBig12= 4.64D-01 2.96D-01.
     18 vectors produced by pass  2 Test12= 1.59D-15 4.76D-09 XBig12= 4.36D-03 2.25D-02.
     18 vectors produced by pass  3 Test12= 1.59D-15 4.76D-09 XBig12= 7.47D-06 6.36D-04.
     18 vectors produced by pass  4 Test12= 1.59D-15 4.76D-09 XBig12= 7.68D-09 2.34D-05.
      7 vectors produced by pass  5 Test12= 1.59D-15 4.76D-09 XBig12= 6.00D-12 6.93D-07.
      2 vectors produced by pass  6 Test12= 1.59D-15 4.76D-09 XBig12= 3.57D-15 1.89D-08.
 Inverted reduced A of dimension    99 with in-core refinement.
 Isotropic polarizability for W=    0.000000       20.88 Bohr**3.
 End of Minotr Frequency-dependent properties file   721 does not exist.
 End of Minotr Frequency-dependent properties file   722 does not exist.

 **********************************************************************

            Population analysis using the SCF density.

 **********************************************************************

 Orbital symmetries:
       Occupied  (A) (A) (A) (A) (A) (A) (A) (A) (A)
       Virtual   (A) (A) (A) (A) (A) (A) (A) (A) (A) (A) (A) (A)
                 (A) (A) (A) (A) (A) (A) (A) (A) (A) (A) (A) (A)
                 (A) (A) (A) (A) (A) (A) (A) (A) (A) (A) (A) (A)
                 (A)
 The electronic state is 1-A.
 Alpha  occ. eigenvalues --  -19.19549 -10.25248  -1.03475  -0.69194  -0.51799
 Alpha  occ. eigenvalues --   -0.44663  -0.43521  -0.34939  -0.28901
 Alpha virt. eigenvalues --    0.00564   0.03120   0.05411   0.05707   0.14622
 Alpha virt. eigenvalues --    0.16924   0.19117   0.19379   0.20820   0.20920
 Alpha virt. eigenvalues --    0.24674   0.28446   0.32155   0.65038   0.65314
 Alpha virt. eigenvalues --    0.66883   0.90114   0.90173   1.02829   1.05007
 Alpha virt. eigenvalues --    1.15286   1.18740   1.20394   1.26869   1.50720
 Alpha virt. eigenvalues --    1.51696   1.61681   1.73174   2.05119   2.13627
 Alpha virt. eigenvalues --    2.15228   2.34836   2.39941   2.49228   2.84789
 Alpha virt. eigenvalues --    4.00422   4.27517
          Condensed to atoms (all electrons):
              1          2          3          4          5          6
     1  C    5.059470   0.403092   0.390260   0.390260   0.134150  -0.019392
     2  H    0.403092   0.511707  -0.031982  -0.031982  -0.057732   0.005935
     3  H    0.390260  -0.031982   0.546198  -0.039537  -0.050484  -0.005005
     4  H    0.390260  -0.031982  -0.039537   0.546198  -0.050484  -0.005005
     5  O    0.134150  -0.057732  -0.050484  -0.050484   8.518592   0.214195
     6  H   -0.019392   0.005935  -0.005005  -0.005005   0.214195   0.325260
 Mulliken atomic charges:
              1
     1  C   -0.357840
     2  H    0.200964
     3  H    0.190550
     4  H    0.190550
     5  O   -0.708235
     6  H    0.484012
 Sum of Mulliken atomic charges =   0.00000
 Mulliken charges with hydrogens summed into heavy atoms:
              1
     1  C    0.224223
     5  O   -0.224223
 Sum of Mulliken charges with hydrogens summed into heavy atoms =   0.00000
 APT atomic charges:
              1
     1  C    0.598799
     2  H   -0.016486
     3  H   -0.065325
     4  H   -0.065325
     5  O   -0.769976
     6  H    0.318313
 Sum of APT charges=   0.00000
 APT Atomic charges with hydrogens summed into heavy atoms:
              1
     1  C    0.451663
     2  H    0.000000
     3  H    0.000000
     4  H    0.000000
     5  O   -0.451663
     6  H    0.000000
 Sum of APT charges=   0.00000
 Electronic spatial extent (au):  <R**2>=             85.3270
 Charge=              0.0000 electrons
 Dipole moment (field-independent basis, Debye):
    X=              1.1441    Y=             -1.9718    Z=              0.0000  Tot=              2.2796
 Quadrupole moment (field-independent basis, Debye-Ang):
   XX=            -13.1048   YY=            -12.3371   ZZ=            -14.0962
   XY=              2.6176   XZ=              0.0000   YZ=              0.0000
 Traceless Quadrupole moment (field-independent basis, Debye-Ang):
   XX=              0.0745   YY=              0.8423   ZZ=             -0.9169
   XY=              2.6176   XZ=              0.0000   YZ=              0.0000
 Octapole moment (field-independent basis, Debye-Ang**2):
  XXX=             -3.5133  YYY=             -1.2640  ZZZ=              0.0000  XYY=             -1.5339
  XXY=             -3.0397  XXZ=              0.0000  XZZ=              0.0973  YZZ=             -0.9657
  YYZ=              0.0000  XYZ=              0.0000
 Hexadecapole moment (field-independent basis, Debye-Ang**3):
 XXXX=            -64.0722 YYYY=            -21.1759 ZZZZ=            -21.5667 XXXY=              4.9848
 XXXZ=              0.0000 YYYX=              3.5716 YYYZ=              0.0000 ZZZX=              0.0000
 ZZZY=              0.0000 XXYY=            -13.1301 XXZZ=            -15.2366 YYZZ=             -7.2548
 XXYZ=              0.0000 YYXZ=              0.0000 ZZXY=              0.1005
 N-N= 4.014786719777D+01 E-N=-3.511502885248D+02  KE= 1.146221517624D+02
  Exact polarizability:  22.338   0.161  20.270   0.000   0.000  20.035
 Approx polarizability:  22.188   0.451  21.223   0.000   0.000  20.068
 D2PCM: C-PCM CHGder 2nd derivatives, FixD1E=F FixD2E=F DoIter=F DoCFld=F I1PDM=0
 Calling FoFJK, ICntrl=    100127 FMM=F ISym2X=0 I1Cent= 0 IOpClX= 0 NMat=1 NMatS=1 NMatT=0.
 Full mass-weighted force constant matrix:
 Low frequencies ---  -62.9073  -50.1682   -0.0012   -0.0009    0.0010   64.9759
 Low frequencies ---  307.1792 1053.9830 1080.8154
 Diagonal vibrational polarizability:
        5.2125970       0.4537409      57.5571217
 Harmonic frequencies (cm**-1), IR intensities (KM/Mole), Raman scattering
 activities (A**4/AMU), depolarization ratios for plane and unpolarized
 incident light, reduced masses (AMU), force constants (mDyne/A),
 and normal coordinates:
                     1                      2                      3
                     A                      A                      A
 Frequencies --   306.1748              1053.9809              1080.8112
 Red. masses --     1.0716                 3.1741                 1.3457
 Frc consts  --     0.0592                 2.0775                 0.9262
 IR Inten    --   199.5165               187.0709                 0.7453
  Atom  AN      X      Y      Z        X      Y      Z        X      Y      Z
     1   6     0.00   0.00   0.01     0.29   0.03   0.00     0.13  -0.08   0.00
     2   1     0.00   0.00   0.29     0.65  -0.13   0.00    -0.43   0.15   0.00
     3   1     0.06   0.22  -0.10    -0.05  -0.20   0.02     0.37   0.18  -0.04
     4   1    -0.06  -0.22  -0.10    -0.05  -0.20  -0.02     0.37   0.18   0.04
     5   8     0.00   0.00  -0.07    -0.28   0.03   0.00    -0.08   0.01   0.00
     6   1     0.00   0.00   0.89     0.45  -0.33   0.00    -0.60   0.25   0.00
                     4                      5                      6
                     A                      A                      A
 Frequencies --  1185.3183              1372.6535              1496.3263
 Red. masses --     1.2644                 1.2973                 1.1338
 Frc consts  --     1.0466                 1.4401                 1.4957
 IR Inten    --     0.7573                33.6254                 7.4973
  Atom  AN      X      Y      Z        X      Y      Z        X      Y      Z
     1   6     0.00   0.00   0.14     0.03   0.12   0.00    -0.10  -0.01   0.00
     2   1     0.00   0.00  -0.27     0.44  -0.04   0.00     0.60  -0.28   0.00
     3   1    -0.64   0.12  -0.18    -0.19  -0.19   0.10     0.48   0.19   0.09
     4   1     0.64  -0.12  -0.18    -0.19  -0.19  -0.10     0.48   0.19  -0.09
     5   8     0.00   0.00  -0.06     0.02  -0.08   0.00    -0.02   0.00   0.00
     6   1     0.00   0.00  -0.01    -0.74   0.28   0.00    -0.02   0.00   0.00
                     7                      8                      9
                     A                      A                      A
 Frequencies --  1509.1125              1523.6398              3017.8974
 Red. masses --     1.0481                 1.0446                 1.0352
 Frc consts  --     1.4064                 1.4288                 5.5552
 IR Inten    --     4.5938                 8.5568                79.5894
  Atom  AN      X      Y      Z        X      Y      Z        X      Y      Z
     1   6     0.00   0.00  -0.06    -0.03   0.05   0.00     0.04  -0.03   0.00
     2   1     0.00   0.00   0.73    -0.26   0.12   0.00    -0.10  -0.27   0.00
     3   1    -0.31  -0.37   0.06     0.28  -0.47   0.40    -0.20   0.32   0.56
     4   1     0.31   0.37   0.06     0.28  -0.47  -0.40    -0.20   0.32  -0.56
     5   8     0.00   0.00  -0.01    -0.01   0.02   0.00     0.00   0.00   0.00
     6   1     0.00   0.00  -0.01     0.09  -0.03   0.00     0.00   0.00   0.00
                    10                     11                     12
                     A                      A                      A
 Frequencies --  3069.5336              3142.9565              3778.0739
 Red. masses --     1.1067                 1.0984                 1.0669
 Frc consts  --     6.1437                 6.3925                 8.9723
 IR Inten    --    74.3226                40.3252                54.4950
  Atom  AN      X      Y      Z        X      Y      Z        X      Y      Z
     1   6     0.00   0.00   0.09    -0.02  -0.09   0.00     0.00   0.00   0.00
     2   1     0.00   0.00   0.02     0.35   0.89   0.00     0.00  -0.02   0.00
     3   1     0.22  -0.35  -0.57    -0.06   0.08   0.16     0.00   0.00   0.00
     4   1    -0.22   0.35  -0.57    -0.06   0.08  -0.16     0.00   0.00   0.00
     5   8     0.00   0.00   0.00     0.00   0.00   0.00     0.03   0.06   0.00
     6   1     0.00   0.00   0.00     0.00  -0.02   0.00    -0.43  -0.90   0.00

 -------------------
 - Thermochemistry -
 -------------------
 Temperature   298.150 Kelvin.  Pressure   1.00000 Atm.
 Atom     1 has atomic number  6 and mass  12.00000
 Atom     2 has atomic number  1 and mass   1.00783
 Atom     3 has atomic number  1 and mass   1.00783
 Atom     4 has atomic number  1 and mass   1.00783
 Atom     5 has atomic number  8 and mass  15.99491
 Atom     6 has atomic number  1 and mass   1.00783
 Molecular mass:    32.02621 amu.
 Principal axes and moments of inertia in atomic units:
                           1         2         3
     Eigenvalues --    14.19070  73.26177  75.90050
           X            0.99894   0.04607   0.00000
           Y           -0.04607   0.99894   0.00000
           Z            0.00000   0.00000   1.00000
 This molecule is an asymmetric top.
 Rotational symmetry number  1.
 Rotational temperatures (Kelvin)      6.10356     1.18225     1.14115
 Rotational constants (GHZ):         127.17776    24.63415    23.77773
 Zero-point vibrational energy     134798.1 (Joules/Mol)
                                   32.21751 (Kcal/Mol)
 Warning -- explicit consideration of   1 degrees of freedom as
           vibrations may cause significant error
 Vibrational temperatures:    440.52  1516.44  1555.04  1705.41  1974.94
          (Kelvin)           2152.88  2171.27  2192.18  4342.08  4416.37
                             4522.01  5435.80
 
 Zero-point correction=                           0.051342 (Hartree/Particle)
 Thermal correction to Energy=                    0.054684
 Thermal correction to Enthalpy=                  0.055628
 Thermal correction to Gibbs Free Energy=         0.028567
 Sum of electronic and zero-point Energies=           -115.628325
 Sum of electronic and thermal Energies=              -115.624983
 Sum of electronic and thermal Enthalpies=            -115.624039
 Sum of electronic and thermal Free Energies=         -115.651100
 
                     E (Thermal)             CV                S
                      KCal/Mol        Cal/Mol-Kelvin    Cal/Mol-Kelvin
 Total                   34.315              8.791             56.954
 Electronic               0.000              0.000              0.000
 Translational            0.889              2.981             36.324
 Rotational               0.889              2.981             19.007
 Vibrational             32.537              2.829              1.624
 Vibration     1          0.697              1.662              1.383
                       Q            Log10(Q)             Ln(Q)
 Total Bot       0.724447D-13        -13.139994        -30.255954
 Total V=0       0.298937D+11         10.475580         24.120913
 Vib (Bot)       0.319804D-23        -23.495117        -54.099505
 Vib (Bot)    1  0.618962D+00         -0.208336         -0.479711
 Vib (V=0)       0.131964D+01          0.120457          0.277362
 Vib (V=0)    1  0.129568D+01          0.112499          0.259039
 Electronic      0.100000D+01          0.000000          0.000000
 Translational   0.712383D+07          6.852714         15.778956
 Rotational      0.317987D+04          3.502409          8.064596
 ***** Axes restored to original set *****
 -------------------------------------------------------------------
 Center     Atomic                   Forces (Hartrees/Bohr)
 Number     Number              X              Y              Z
 -------------------------------------------------------------------
      1        6           0.004367439   -0.000056090    0.000000198
      2        1           0.000420304   -0.000019619    0.000000009
      3        1          -0.000795244    0.000137887    0.000826213
      4        1          -0.000795394    0.000138033   -0.000826455
      5        8          -0.003082962    0.000900961    0.000000026
      6        1          -0.000114143   -0.001101172    0.000000009
 -------------------------------------------------------------------
 Cartesian Forces:  Max     0.004367439 RMS     0.001363523

 GradGradGradGradGradGradGradGradGradGradGradGradGradGradGradGradGradGrad
 Berny optimization.
 Search for a local minimum.
 Step number   1 out of a maximum of    2
 All quantities printed in internal units (Hartrees-Bohrs-Radians)
 Second derivative matrix not updated -- analytic derivatives used.
 The second derivative matrix:
                          X1        Y1        Z1        X2        Y2
           X1           0.46666
           Y1           0.02150   0.60935
           Z1           0.00000   0.00000   0.56854
           X2          -0.07678  -0.07842   0.00000   0.10155
           Y2          -0.09150  -0.29295   0.00000   0.09868   0.30827
           Z2           0.00000   0.00000  -0.05319   0.00000   0.00000
           X3          -0.06777   0.02980   0.05430   0.00539  -0.00432
           Y3           0.03304  -0.11332  -0.09933   0.00830  -0.01277
           Z3           0.05679  -0.10069  -0.22754  -0.00111   0.00052
           X4          -0.06777   0.02980  -0.05430   0.00539  -0.00432
           Y4           0.03304  -0.11332   0.09933   0.00830  -0.01277
           Z4          -0.05679   0.10069  -0.22754   0.00111  -0.00052
           X5          -0.23215   0.03894   0.00000  -0.02811  -0.00068
           Y5          -0.00675  -0.09474   0.00000  -0.03765   0.00776
           Z5           0.00000   0.00000  -0.05883   0.00000   0.00000
           X6          -0.02218  -0.04162   0.00000  -0.00744   0.00214
           Y6           0.01066   0.00498   0.00000   0.00079   0.00247
           Z6           0.00000   0.00000  -0.00143   0.00000   0.00000
                          Z2        X3        Y3        Z3        X4
           Z2           0.04774
           X3          -0.00974   0.08637
           Y3          -0.02595  -0.04149   0.11357
           Z3           0.00154  -0.06752   0.11109   0.23890
           X4           0.00974   0.00534  -0.00474   0.00631   0.08637
           Y4           0.02595  -0.00474   0.00924  -0.01369  -0.04149
           Z4           0.00154  -0.00631   0.01369  -0.02149   0.06752
           X5           0.00000  -0.03099   0.00514   0.00490  -0.03099
           Y5           0.00000   0.01941   0.00291   0.00260   0.01941
           Z5           0.00177   0.02902  -0.00084   0.00815  -0.02902
           X6           0.00000   0.00166  -0.00027   0.00063   0.00166
           Y6           0.00000   0.00133   0.00037   0.00017   0.00133
           Z6           0.00059   0.00026   0.00134   0.00043  -0.00026
                          Y4        Z4        X5        Y5        Z5
           Y4           0.11356
           Z4          -0.11109   0.23890
           X5           0.00514  -0.00490   0.43635
           Y5           0.00291  -0.00260   0.14551   0.51497
           Z5           0.00084   0.00815   0.00000   0.00000   0.04325
           X6          -0.00027  -0.00063  -0.11411  -0.13992   0.00000
           Y6           0.00037  -0.00017  -0.19406  -0.43382   0.00000
           Z6          -0.00134   0.00043   0.00000   0.00000  -0.00250
                          X6        Y6        Z6
           X6           0.14041
           Y6           0.17994   0.42563
           Z6           0.00000   0.00000   0.00248
     Eigenvalues ---    0.00497   0.05062   0.08915   0.09649   0.12590
     Eigenvalues ---    0.12633   0.17454   0.33970   0.63483   0.72949
     Eigenvalues ---    0.77016   0.94641
 Angle between quadratic step and forces=  53.83 degrees.
 Linear search not attempted -- first point.
 TrRot= -0.000520  0.001057  0.000000  0.000077  0.000000  0.000077
 Variable       Old X    -DE/DX   Delta X   Delta X   Delta X     New X
                                 (Linear)    (Quad)   (Total)
    X1        1.26293   0.00437   0.00000   0.00608   0.00556   1.26849
    Y1       -0.03946  -0.00006   0.00000   0.00362   0.00487  -0.03459
    Z1        0.00000   0.00000   0.00000   0.00000   0.00000   0.00000
    X2        2.04214   0.00042   0.00000   0.01064   0.00983   2.05197
    Y2        1.87215  -0.00002   0.00000   0.00135   0.00272   1.87487
    Z2        0.00000   0.00000   0.00000   0.00000   0.00000   0.00000
    X3        1.94275  -0.00080   0.00000  -0.00781  -0.00817   1.93458
    Y3       -1.03296   0.00014   0.00000  -0.00226  -0.00091  -1.03387
    Z3       -1.69280   0.00083   0.00000   0.00239   0.00239  -1.69040
    X4        1.94275  -0.00080   0.00000  -0.00781  -0.00817   1.93458
    Y4       -1.03296   0.00014   0.00000  -0.00226  -0.00091  -1.03387
    Z4        1.69280  -0.00083   0.00000  -0.00240  -0.00240   1.69041
    X5       -1.41511  -0.00308   0.00000  -0.00641  -0.00696  -1.42207
    Y5        0.23234   0.00090   0.00000   0.00091   0.00175   0.23408
    Z5        0.00000   0.00000   0.00000   0.00000   0.00000   0.00000
    X6       -2.18432  -0.00011   0.00000   0.00821   0.00791  -2.17641
    Y6       -1.42818  -0.00110   0.00000  -0.00824  -0.00752  -1.43570
    Z6        0.00000   0.00000   0.00000   0.00000   0.00000   0.00000
         Item               Value     Threshold  Converged?
 Maximum Force            0.004367     0.000450     NO 
 RMS     Force            0.001364     0.000300     NO 
 Maximum Displacement     0.009827     0.001800     NO 
 RMS     Displacement     0.005142     0.001200     NO 
 Predicted change in Energy=-3.761113D-05
 GradGradGradGradGradGradGradGradGradGradGradGradGradGradGradGradGradGrad

 1|1|UNPC-WST-PGHS-011|Freq|RX3LYP|6-31+G(d)|C1H4O1|214584429|23-Sep-20
 15|0||# freq=noraman x3lyp/6-31+g(d) scrf=(cpcm,solvent=methanol) geom
 =connectivity||meoh cpcm||0,1|C,0.668313,-0.020879,0.|H,1.080655,0.990
 697,-0.000002|H,1.028058,-0.546621,-0.89579|H,1.028059,-0.546618,0.895
 792|O,-0.748844,0.122947,0.|H,-1.155893,-0.755762,0.||Version=IA32W-G0
 9RevA.02|State=1-A|HF=-115.679667|RMSD=3.880e-009|RMSF=1.364e-003|Zero
 Point=0.0513419|Thermal=0.054684|Dipole=0.4501151,-0.7757483,-0.000000
 3|DipoleDeriv=1.0268359,-0.1028761,0.0000008,-0.0142276,0.3241462,-0.0
 000003,0.0000005,-0.0000002,0.4454142,-0.0010698,-0.0329874,0.,-0.1047
 726,-0.1370102,0.0000005,0.0000002,0.0000006,0.0886223,-0.0757695,0.03
 40597,0.0537176,0.0833345,0.0101382,-0.1083103,0.1045408,-0.1175509,-0
 .1303425,-0.0757698,0.0340598,-0.0537181,0.0833343,0.0101388,0.10831,-
 0.1045414,0.1175506,-0.1303435,-1.1860802,0.0560637,-0.0000004,-0.0340
 916,-0.3915274,0.,0.,-0.0000001,-0.7323204,0.3118533,0.0116804,0.,-0.0
 135771,0.1841143,0.,0.,0.0000001,0.4589699|Polar=22.3380033,0.1614305,
 20.2696411,0.000008,-0.000004,20.0347629|PG=C01 [X(C1H4O1)]|NImag=0||0
 .46665775,0.02150133,0.60935091,-0.00000029,0.00000046,0.56854076,-0.0
 7678448,-0.07842284,0.00000016,0.10155131,-0.09149739,-0.29294864,0.00
 000045,0.09867889,0.30826582,0.00000019,0.00000047,-0.05319427,-0.0000
 0019,-0.00000051,0.04774369,-0.06777060,0.02980042,0.05429987,0.005388
 28,-0.00432050,-0.00974043,0.08637121,0.03304324,-0.11332293,-0.099329
 49,0.00830217,-0.01277336,-0.02594552,-0.04148773,0.11356536,0.0567887
 6,-0.10069103,-0.22754212,-0.00111059,0.00052117,0.00154366,-0.0675213
 3,0.11108953,0.23890370,-0.06777067,0.02980016,-0.05429982,0.00538829,
 -0.00432046,0.00974043,0.00534362,-0.00473602,0.00631146,0.08637126,0.
 03304293,-0.11332204,0.09932859,0.00830218,-0.01277326,0.02594556,-0.0
 0473605,0.00924402,-0.01368740,-0.04148740,0.11356439,-0.05678865,0.10
 069011,-0.22754208,0.00111055,-0.00052110,0.00154354,-0.00631147,0.013
 68732,-0.02149023,0.06752131,-0.11108859,0.23890374,-0.23215154,0.0389
 4485,0.00000007,-0.02810582,-0.00067656,0.,-0.03099300,0.00514393,0.00
 489948,-0.03099296,0.00514393,-0.00489952,0.43635472,-0.00674889,-0.09
 473559,0.,-0.03765229,0.00776040,0.,0.01940967,0.00291224,0.00260192,0
 .01940953,0.00291224,-0.00260192,0.14550500,0.51497428,0.,-0.00000002,
 -0.05882845,0.00000005,-0.00000002,0.00177351,0.02901594,-0.00084018,0
 .00815495,-0.02901596,0.00084019,0.00815498,-0.00000002,0.00000003,0.0
 4324521,-0.02218046,-0.04162392,0.,-0.00743758,0.00213602,0.,0.0016604
 8,-0.00026559,0.00063223,0.00166047,-0.00026559,-0.00063222,-0.1141114
 0,-0.13992303,0.,0.14040850,0.01065878,0.00497828,0.,0.00079188,0.0024
 6904,0.,0.00133419,0.00037466,0.00016582,0.00133419,0.00037465,-0.0001
 6581,-0.19406115,-0.43382357,0.,0.17994211,0.42562692,0.,0.,-0.0014338
 3,0.00000002,0.,0.00058987,0.00025741,0.00133835,0.00043004,-0.0002574
 1,-0.00133835,0.00043004,-0.00000001,-0.00000002,-0.00250020,0.,0.,0.0
 0248408||-0.00436744,0.00005609,-0.00000020,-0.00042030,0.00001962,0.,
 0.00079524,-0.00013789,-0.00082621,0.00079539,-0.00013803,0.00082645,0
 .00308296,-0.00090096,-0.00000003,0.00011414,0.00110117,0.|||@


 PENOTUS DIED A HUNDRED YEARS OLD WANTING BUT TWO...
 AND HE USED TO SAY BEFORE HE DIED, HAVING SPENT HIS
 WHOLE LIFE IN VAINLY SEARCHING AFTER THE PHILOSOPHER'S
 STONE, THAT IF HE HAD A MORTAL ENEMY HE DID NOT DARE
 TO ENCOUNTER OPENLY, HE WOULD ADVISE HIM ABOVE ALL
 THINGS TO GIVE HIMSELF UP TO THE STUDY AND PRACTICE
 OF ALCHEMY.  --  NICOLAS LEMERY, M.D.
 "A COURSE OF CHYMISTRY", WALTER KETTILBY, LONDON, 1686
 Job cpu time:  0 days  0 hours  0 minutes 28.0 seconds.
 File lengths (MBytes):  RWF=      9 Int=      0 D2E=      0 Chk=      3 Scr=      1
 Normal termination of Gaussian 09 at Wed Sep 23 12:41:02 2015.
