 Entering Link 1 = C:\G09W\l1.exe PID=      2556.
  
 Copyright (c) 1988,1990,1992,1993,1995,1998,2003,2009, Gaussian, Inc.
                  All Rights Reserved.
  
 This is part of the Gaussian(R) 09 program.  It is based on
 the Gaussian(R) 03 system (copyright 2003, Gaussian, Inc.),
 the Gaussian(R) 98 system (copyright 1998, Gaussian, Inc.),
 the Gaussian(R) 94 system (copyright 1995, Gaussian, Inc.),
 the Gaussian 92(TM) system (copyright 1992, Gaussian, Inc.),
 the Gaussian 90(TM) system (copyright 1990, Gaussian, Inc.),
 the Gaussian 88(TM) system (copyright 1988, Gaussian, Inc.),
 the Gaussian 86(TM) system (copyright 1986, Carnegie Mellon
 University), and the Gaussian 82(TM) system (copyright 1983,
 Carnegie Mellon University). Gaussian is a federally registered
 trademark of Gaussian, Inc.
  
 This software contains proprietary and confidential information,
 including trade secrets, belonging to Gaussian, Inc.
  
 This software is provided under written license and may be
 used, copied, transmitted, or stored only in accord with that
 written license.
  
 The following legend is applicable only to US Government
 contracts under FAR:
  
                    RESTRICTED RIGHTS LEGEND
  
 Use, reproduction and disclosure by the US Government is
 subject to restrictions as set forth in subparagraphs (a)
 and (c) of the Commercial Computer Software - Restricted
 Rights clause in FAR 52.227-19.
  
 Gaussian, Inc.
 340 Quinnipiac St., Bldg. 40, Wallingford CT 06492
  
  
 ---------------------------------------------------------------
 Warning -- This program may not be used in any manner that
 competes with the business of Gaussian, Inc. or will provide
 assistance to any competitor of Gaussian, Inc.  The licensee
 of this program is prohibited from giving any competitor of
 Gaussian, Inc. access to this program.  By using this program,
 the user acknowledges that Gaussian, Inc. is engaged in the
 business of creating and licensing software in the field of
 computational chemistry and represents and warrants to the
 licensee that it is not a competitor of Gaussian, Inc. and that
 it will not use this program in any manner prohibited above.
 ---------------------------------------------------------------
  

 Cite this work as:
 Gaussian 09, Revision A.02,
 M. J. Frisch, G. W. Trucks, H. B. Schlegel, G. E. Scuseria, 
 M. A. Robb, J. R. Cheeseman, G. Scalmani, V. Barone, B. Mennucci, 
 G. A. Petersson, H. Nakatsuji, M. Caricato, X. Li, H. P. Hratchian, 
 A. F. Izmaylov, J. Bloino, G. Zheng, J. L. Sonnenberg, M. Hada, 
 M. Ehara, K. Toyota, R. Fukuda, J. Hasegawa, M. Ishida, T. Nakajima, 
 Y. Honda, O. Kitao, H. Nakai, T. Vreven, J. A. Montgomery, Jr., 
 J. E. Peralta, F. Ogliaro, M. Bearpark, J. J. Heyd, E. Brothers, 
 K. N. Kudin, V. N. Staroverov, R. Kobayashi, J. Normand, 
 K. Raghavachari, A. Rendell, J. C. Burant, S. S. Iyengar, J. Tomasi, 
 M. Cossi, N. Rega, J. M. Millam, M. Klene, J. E. Knox, J. B. Cross, 
 V. Bakken, C. Adamo, J. Jaramillo, R. Gomperts, R. E. Stratmann, 
 O. Yazyev, A. J. Austin, R. Cammi, C. Pomelli, J. W. Ochterski, 
 R. L. Martin, K. Morokuma, V. G. Zakrzewski, G. A. Voth, 
 P. Salvador, J. J. Dannenberg, S. Dapprich, A. D. Daniels, 
 O. Farkas, J. B. Foresman, J. V. Ortiz, J. Cioslowski, 
 and D. J. Fox, Gaussian, Inc., Wallingford CT, 2009.
 
 ******************************************
 Gaussian 09:  IA32W-G09RevA.02 11-Jun-2009
                01-Oct-2015 
 ******************************************
 %chk=C:\Users\214584429\Google Drive\214584429 MONSURAT\Silva-2014remix\meohac-h
 30.chk
 ----------------------------------------------------------------
 # opt=(calcfc,ts,noeigentest) freq=noraman pm6 geom=connectivity
 ----------------------------------------------------------------
 1/5=1,10=4,11=1,14=-1,18=20,26=1,38=1,57=2/1,3;
 2/9=110,12=2,17=6,18=5,40=1/2;
 3/5=2,16=1,25=1,41=3900000,71=2/1,2,3;
 4/35=1/1;
 5/5=2,35=1,38=5/2;
 8/6=4,10=90,11=11/1;
 11/6=1,8=1,9=11,15=111,16=1/1,2,10;
 10/6=1,7=6,13=1/2;
 6/7=2,8=2,9=2,10=2,28=1/1;
 7/10=1,18=20,25=1/1,2,3,16;
 1/5=1,10=4,11=1,14=-1,18=20/3(2);
 2/9=110/2;
 99//99;
 2/9=110/2;
 3/5=2,16=1,25=1,41=3900000,71=1,135=20/1,2,3;
 4/5=5,16=3,35=1/1;
 5/5=2,35=1,38=5/2;
 7//1,2,3,16;
 1/5=1,11=1,14=-1,18=20/3(-5);
 2/9=110/2;
 6/7=2,8=2,9=2,10=2,19=2,28=1/1;
 99/9=1/99;
 -------------------
 Title Card Required
 -------------------
 Symbolic Z-matrix:
 Charge =  1 Multiplicity = 1
 C                    -3.94636  -0.36661  -0.08272 
 H                    -3.58678  -1.37429  -0.09624 
 H                    -3.59338   0.14972  -0.95089 
 H                    -5.01635  -0.36974  -0.08005 
 C                    -3.43194   0.34507   1.18238 
 O                    -3.77296   1.69098   1.42797 
 O                    -2.51889  -0.43563   2.20865 
 C                    -2.48435  -0.03739   3.58164 
 H                    -2.00666  -0.79891   4.16199 
 H                    -1.9371    0.87743   3.67401 
 H                    -3.48345   0.1073    3.93628 
 O                    -4.64748   3.91994   2.33002 
 H                    -4.19116   4.7395    2.53424 
 H                    -5.15096   3.46827   3.01127 
 H                    -4.19137   3.34236   1.72931 
 

 GradGradGradGradGradGradGradGradGradGradGradGradGradGradGradGradGradGrad
 Berny optimization.
 Initialization pass.
                           ----------------------------
                           !    Initial Parameters    !
                           ! (Angstroms and Degrees)  !
 --------------------------                            --------------------------
 ! Name  Definition              Value          Derivative Info.                !
 --------------------------------------------------------------------------------
 ! R1    R(1,2)                  1.07           calculate D2E/DX2 analytically  !
 ! R2    R(1,3)                  1.07           calculate D2E/DX2 analytically  !
 ! R3    R(1,4)                  1.07           calculate D2E/DX2 analytically  !
 ! R4    R(1,5)                  1.54           calculate D2E/DX2 analytically  !
 ! R5    R(5,6)                  1.41           calculate D2E/DX2 analytically  !
 ! R6    R(5,7)                  1.58           calculate D2E/DX2 analytically  !
 ! R7    R(6,15)                 1.73           calculate D2E/DX2 analytically  !
 ! R8    R(7,8)                  1.43           calculate D2E/DX2 analytically  !
 ! R9    R(8,9)                  1.07           calculate D2E/DX2 analytically  !
 ! R10   R(8,10)                 1.07           calculate D2E/DX2 analytically  !
 ! R11   R(8,11)                 1.07           calculate D2E/DX2 analytically  !
 ! R12   R(12,13)                0.96           calculate D2E/DX2 analytically  !
 ! R13   R(12,14)                0.96           calculate D2E/DX2 analytically  !
 ! R14   R(12,15)                0.95           calculate D2E/DX2 analytically  !
 ! A1    A(2,1,3)              109.4712         calculate D2E/DX2 analytically  !
 ! A2    A(2,1,4)              109.4712         calculate D2E/DX2 analytically  !
 ! A3    A(2,1,5)              109.4712         calculate D2E/DX2 analytically  !
 ! A4    A(3,1,4)              109.4712         calculate D2E/DX2 analytically  !
 ! A5    A(3,1,5)              109.4713         calculate D2E/DX2 analytically  !
 ! A6    A(4,1,5)              109.4712         calculate D2E/DX2 analytically  !
 ! A7    A(1,5,6)              120.2269         calculate D2E/DX2 analytically  !
 ! A8    A(1,5,7)              119.8865         calculate D2E/DX2 analytically  !
 ! A9    A(6,5,7)              119.8865         calculate D2E/DX2 analytically  !
 ! A10   A(5,7,8)              119.9998         calculate D2E/DX2 analytically  !
 ! A11   A(7,8,9)              109.4712         calculate D2E/DX2 analytically  !
 ! A12   A(7,8,10)             109.4712         calculate D2E/DX2 analytically  !
 ! A13   A(7,8,11)             109.4712         calculate D2E/DX2 analytically  !
 ! A14   A(9,8,10)             109.4713         calculate D2E/DX2 analytically  !
 ! A15   A(9,8,11)             109.4712         calculate D2E/DX2 analytically  !
 ! A16   A(10,8,11)            109.4712         calculate D2E/DX2 analytically  !
 ! A17   A(13,12,14)           120.0            calculate D2E/DX2 analytically  !
 ! A18   A(13,12,15)           115.1723         calculate D2E/DX2 analytically  !
 ! A19   A(14,12,15)           114.486          calculate D2E/DX2 analytically  !
 ! A20   A(6,15,12)            143.7662         calculate D2E/DX2 analytically  !
 ! A21   L(5,6,15,7,-1)        180.0001         calculate D2E/DX2 analytically  !
 ! A22   L(5,6,15,7,-2)        179.9999         calculate D2E/DX2 analytically  !
 ! D1    D(2,1,5,6)            179.9998         calculate D2E/DX2 analytically  !
 ! D2    D(2,1,5,7)             -0.0002         calculate D2E/DX2 analytically  !
 ! D3    D(3,1,5,6)             59.9998         calculate D2E/DX2 analytically  !
 ! D4    D(3,1,5,7)           -120.0002         calculate D2E/DX2 analytically  !
 ! D5    D(4,1,5,6)            -60.0002         calculate D2E/DX2 analytically  !
 ! D6    D(4,1,5,7)            119.9998         calculate D2E/DX2 analytically  !
 ! D7    D(1,5,15,12)          117.2674         calculate D2E/DX2 analytically  !
 ! D8    D(7,5,15,12)          -62.7326         calculate D2E/DX2 analytically  !
 ! D9    D(1,5,7,8)           -154.2633         calculate D2E/DX2 analytically  !
 ! D10   D(6,5,7,8)             25.7367         calculate D2E/DX2 analytically  !
 ! D11   D(5,7,8,9)            166.91           calculate D2E/DX2 analytically  !
 ! D12   D(5,7,8,10)           -73.0899         calculate D2E/DX2 analytically  !
 ! D13   D(5,7,8,11)            46.9101         calculate D2E/DX2 analytically  !
 ! D14   D(13,12,15,6)         137.4214         calculate D2E/DX2 analytically  !
 ! D15   D(14,12,15,6)          -7.774          calculate D2E/DX2 analytically  !
 --------------------------------------------------------------------------------
 Trust Radius=3.00D-01 FncErr=1.00D-07 GrdErr=1.00D-07
 Number of steps in this run=  61 maximum allowed number of steps= 100.
 Search for a saddle point of order  1.
 GradGradGradGradGradGradGradGradGradGradGradGradGradGradGradGradGradGrad

                          Input orientation:                          
 ---------------------------------------------------------------------
 Center     Atomic      Atomic             Coordinates (Angstroms)
 Number     Number       Type             X           Y           Z
 ---------------------------------------------------------------------
      1          6           0       -3.946362   -0.366612   -0.082725
      2          1           0       -3.586779   -1.374292   -0.096239
      3          1           0       -3.593375    0.149716   -0.950887
      4          1           0       -5.016354   -0.369741   -0.080046
      5          6           0       -3.431939    0.345069    1.182376
      6          8           0       -3.772958    1.690984    1.427973
      7          8           0       -2.518887   -0.435633    2.208651
      8          6           0       -2.484350   -0.037390    3.581643
      9          1           0       -2.006657   -0.798910    4.161985
     10          1           0       -1.937102    0.877427    3.674006
     11          1           0       -3.483447    0.107300    3.936283
     12          8           0       -4.647476    3.919942    2.330024
     13          1           0       -4.191161    4.739499    2.534238
     14          1           0       -5.150958    3.468268    3.011270
     15          1           0       -4.191370    3.342356    1.729306
 ---------------------------------------------------------------------
                    Distance matrix (angstroms):
                    1          2          3          4          5
     1  C    0.000000
     2  H    1.070000   0.000000
     3  H    1.070000   1.747302   0.000000
     4  H    1.070000   1.747303   1.747303   0.000000
     5  C    1.540000   2.148263   2.148263   2.148263   0.000000
     6  O    2.558511   3.428382   2.840199   2.840202   1.410000
     7  O    2.700527   2.708134   3.388191   3.388188   1.580000
     8  C    3.958972   4.065646   4.669987   4.464244   2.607812
     9  H    4.686886   4.578245   5.436822   5.218936   3.495452
    10  H    4.438218   4.691100   4.966129   5.012995   2.954007
    11  H    4.073242   4.297328   4.888590   4.325306   2.764632
    12  O    4.968648   5.919522   5.107848   4.934156   3.946435
    13  H    5.742890   6.683047   5.793923   5.798255   4.659932
    14  H    5.072491   5.962688   5.397920   4.929977   4.006776
    15  H    4.135206   5.093615   4.211173   4.211178   3.140000
                    6          7          8          9         10
     6  O    0.000000
     7  O    2.589335   0.000000
     8  C    3.047307   1.430000   0.000000
     9  H    4.098074   2.051796   1.070000   0.000000
    10  H    3.012790   2.051796   1.070000   1.747303   0.000000
    11  H    2.980518   2.051796   1.070000   1.747303   1.747303
    12  O    2.558658   4.849398   4.680400   5.709428   4.290607
    13  H    3.269886   5.448349   5.179665   6.172163   4.614700
    14  H    2.750355   4.776238   4.441370   5.423982   4.180975
    15  H    1.730000   4.159348   4.215182   5.276456   3.865160
                   11         12         13         14         15
    11  H    0.000000
    12  O    4.297821   0.000000
    13  H    4.891202   0.960000   0.000000
    14  H    3.864240   0.960000   1.662769   0.000000
    15  H    3.979634   0.950000   1.612428   1.606267   0.000000
 Stoichiometry    C3H9O3(1+)
 Framework group  C1[X(C3H9O3)]
 Deg. of freedom    39
 Full point group                 C1      NOp   1
 Largest Abelian subgroup         C1      NOp   1
 Largest concise Abelian subgroup C1      NOp   1
                         Standard orientation:                         
 ---------------------------------------------------------------------
 Center     Atomic      Atomic             Coordinates (Angstroms)
 Number     Number       Type             X           Y           Z
 ---------------------------------------------------------------------
      1          6           0        1.385944   -1.949295    0.151662
      2          1           0        2.448235   -1.833906    0.207548
      3          1           0        1.140373   -2.603390   -0.658741
      4          1           0        1.023683   -2.365607    1.068369
      5          6           0        0.731863   -0.574781   -0.081768
      6          8           0       -0.669564   -0.465023   -0.191569
      7          8           0        1.634284    0.716878   -0.198624
      8          6           0        1.094069    1.998857    0.132433
      9          1           0        1.889089    2.710057    0.216317
     10          1           0        0.416986    2.309716   -0.635568
     11          1           0        0.571915    1.936039    1.064264
     12          8           0       -3.161482    0.051292    0.073940
     13          1           0       -3.795676    0.428266   -0.540298
     14          1           0       -3.002716    0.475327    0.920455
     15          1           0       -2.389045   -0.330359   -0.326290
 ---------------------------------------------------------------------
 Rotational constants (GHZ):      3.4071366      1.6738176      1.1548650
 Standard basis: VSTO-6G (5D, 7F)
 There are    33 symmetry adapted basis functions of A   symmetry.
 Integral buffers will be    262144 words long.
 Regular integral format.
 Two-electron integral symmetry is turned off.
    33 basis functions,   198 primitive gaussians,    33 cartesian basis functions
    19 alpha electrons       19 beta electrons
       nuclear repulsion energy       174.2417743258 Hartrees.
 Do NDO integrals.
 One-electron integrals computed using PRISM.
 NBasis=    33 RedAO= F  NBF=    33
 NBsUse=    33 1.00D-04 NBFU=    33
 Simple Huckel Guess.
 Initial guess orbital symmetries:
       Occupied  (A) (A) (A) (A) (A) (A) (A) (A) (A) (A) (A) (A)
                 (A) (A) (A) (A) (A) (A) (A)
       Virtual   (A) (A) (A) (A) (A) (A) (A) (A) (A) (A) (A) (A)
                 (A) (A)
 The electronic state of the initial guess is 1-A.
 Requested convergence on RMS density matrix=1.00D-08 within 128 cycles.
 Requested convergence on MAX density matrix=1.00D-06.
 Requested convergence on             energy=1.00D-06.
 No special actions if energy rises.
 Overlap will be assumed to be unity.
 Keep J ints in memory in canonical form, NReq=879302.
 SCF Done:  E(RPM6) =  0.125833564885     A.U. after   14 cycles
             Convg  =    0.6567D-08             -V/T =  1.0015
 Range of M.O.s used for correlation:     1    33
 NBasis=    33 NAE=    19 NBE=    19 NFC=     0 NFV=     0
 NROrb=     33 NOA=    19 NOB=    19 NVA=    14 NVB=    14
 Symmetrizing basis deriv contribution to polar:
 IMax=3 JMax=2 DiffMx= 0.00D+00
 G2DrvN: will do    16 centers at a time, making    1 passes doing MaxLOS=1.
 Calling FoFCou, ICntrl=  3107 FMM=F I1Cent=   0 AccDes= 0.00D+00.
 FoFDir/FoFCou used for L=0 through L=1.
 End of G2Drv Frequency-dependent properties file   721 does not exist.
 End of G2Drv Frequency-dependent properties file   722 does not exist.
          IDoAtm=111111111111111
          Differentiating once with respect to nuclear coordinates.
          Electric field/nuclear overlap derivatives assumed to be zero.
          Keep J ints in memory in canonical form, NReq=802965.
          There are    48 degrees of freedom in the 1st order CPHF.  IDoFFX=5.
 LinEq1:  Iter=  0 NonCon=    45 RMS=2.15D-02 Max=2.09D-01
 AX will form    45 AO Fock derivatives at one time.
 LinEq1:  Iter=  1 NonCon=    45 RMS=3.81D-03 Max=2.31D-02
 LinEq1:  Iter=  2 NonCon=    45 RMS=6.09D-04 Max=4.31D-03
 LinEq1:  Iter=  3 NonCon=    45 RMS=8.17D-05 Max=4.15D-04
 LinEq1:  Iter=  4 NonCon=    37 RMS=1.24D-05 Max=8.17D-05
 LinEq1:  Iter=  5 NonCon=     6 RMS=2.15D-06 Max=1.16D-05
 LinEq1:  Iter=  6 NonCon=     0 RMS=3.13D-07 Max=1.91D-06
 Linear equations converged to 1.000D-06 1.000D-05 after     6 iterations.
 End of Minotr Frequency-dependent properties file   721 does not exist.
 End of Minotr Frequency-dependent properties file   722 does not exist.

 **********************************************************************

            Population analysis using the SCF density.

 **********************************************************************

 Orbital symmetries:
       Occupied  (A) (A) (A) (A) (A) (A) (A) (A) (A) (A) (A) (A)
                 (A) (A) (A) (A) (A) (A) (A)
       Virtual   (A) (A) (A) (A) (A) (A) (A) (A) (A) (A) (A) (A)
                 (A) (A)
 The electronic state is 1-A.
 Alpha  occ. eigenvalues --   -1.46128  -1.21614  -1.17762  -1.12060  -1.04861
 Alpha  occ. eigenvalues --   -1.01941  -1.00562  -0.89801  -0.77756  -0.76380
 Alpha  occ. eigenvalues --   -0.72461  -0.72026  -0.68949  -0.67398  -0.66945
 Alpha  occ. eigenvalues --   -0.61150  -0.60491  -0.54963  -0.53181
 Alpha virt. eigenvalues --   -0.17428  -0.15779  -0.14029  -0.06459  -0.04876
 Alpha virt. eigenvalues --   -0.03427  -0.01337   0.00700   0.05339   0.05857
 Alpha virt. eigenvalues --    0.06896   0.07496   0.09027   0.09749
          Condensed to atoms (all electrons):
              1          2          3          4          5          6
     1  C    4.515963   0.000000   0.000000   0.000000   0.000000   0.000000
     2  H    0.000000   0.782654   0.000000   0.000000   0.000000   0.000000
     3  H    0.000000   0.000000   0.778765   0.000000   0.000000   0.000000
     4  H    0.000000   0.000000   0.000000   0.781782   0.000000   0.000000
     5  C    0.000000   0.000000   0.000000   0.000000   3.238054   0.000000
     6  O    0.000000   0.000000   0.000000   0.000000   0.000000   6.766680
     7  O    0.000000   0.000000   0.000000   0.000000   0.000000   0.000000
     8  C    0.000000   0.000000   0.000000   0.000000   0.000000   0.000000
     9  H    0.000000   0.000000   0.000000   0.000000   0.000000   0.000000
    10  H    0.000000   0.000000   0.000000   0.000000   0.000000   0.000000
    11  H    0.000000   0.000000   0.000000   0.000000   0.000000   0.000000
    12  O    0.000000   0.000000   0.000000   0.000000   0.000000   0.000000
    13  H    0.000000   0.000000   0.000000   0.000000   0.000000   0.000000
    14  H    0.000000   0.000000   0.000000   0.000000   0.000000   0.000000
    15  H    0.000000   0.000000   0.000000   0.000000   0.000000   0.000000
              7          8          9         10         11         12
     1  C    0.000000   0.000000   0.000000   0.000000   0.000000   0.000000
     2  H    0.000000   0.000000   0.000000   0.000000   0.000000   0.000000
     3  H    0.000000   0.000000   0.000000   0.000000   0.000000   0.000000
     4  H    0.000000   0.000000   0.000000   0.000000   0.000000   0.000000
     5  C    0.000000   0.000000   0.000000   0.000000   0.000000   0.000000
     6  O    0.000000   0.000000   0.000000   0.000000   0.000000   0.000000
     7  O    6.375663   0.000000   0.000000   0.000000   0.000000   0.000000
     8  C    0.000000   4.189653   0.000000   0.000000   0.000000   0.000000
     9  H    0.000000   0.000000   0.813222   0.000000   0.000000   0.000000
    10  H    0.000000   0.000000   0.000000   0.858723   0.000000   0.000000
    11  H    0.000000   0.000000   0.000000   0.000000   0.866985   0.000000
    12  O    0.000000   0.000000   0.000000   0.000000   0.000000   6.283903
    13  H    0.000000   0.000000   0.000000   0.000000   0.000000   0.000000
    14  H    0.000000   0.000000   0.000000   0.000000   0.000000   0.000000
    15  H    0.000000   0.000000   0.000000   0.000000   0.000000   0.000000
             13         14         15
     1  C    0.000000   0.000000   0.000000
     2  H    0.000000   0.000000   0.000000
     3  H    0.000000   0.000000   0.000000
     4  H    0.000000   0.000000   0.000000
     5  C    0.000000   0.000000   0.000000
     6  O    0.000000   0.000000   0.000000
     7  O    0.000000   0.000000   0.000000
     8  C    0.000000   0.000000   0.000000
     9  H    0.000000   0.000000   0.000000
    10  H    0.000000   0.000000   0.000000
    11  H    0.000000   0.000000   0.000000
    12  O    0.000000   0.000000   0.000000
    13  H    0.590825   0.000000   0.000000
    14  H    0.000000   0.585885   0.000000
    15  H    0.000000   0.000000   0.571242
 Mulliken atomic charges:
              1
     1  C   -0.515963
     2  H    0.217346
     3  H    0.221235
     4  H    0.218218
     5  C    0.761946
     6  O   -0.766680
     7  O   -0.375663
     8  C   -0.189653
     9  H    0.186778
    10  H    0.141277
    11  H    0.133015
    12  O   -0.283903
    13  H    0.409175
    14  H    0.414115
    15  H    0.428758
 Sum of Mulliken atomic charges =   1.00000
 Mulliken charges with hydrogens summed into heavy atoms:
              1
     1  C    0.140836
     5  C    0.761946
     6  O   -0.766680
     7  O   -0.375663
     8  C    0.271416
    12  O    0.968145
 Sum of Mulliken charges with hydrogens summed into heavy atoms =   1.00000
 APT atomic charges:
              1
     1  C   -0.515963
     2  H    0.217346
     3  H    0.221235
     4  H    0.218218
     5  C    0.761946
     6  O   -0.766680
     7  O   -0.375663
     8  C   -0.189653
     9  H    0.186778
    10  H    0.141277
    11  H    0.133015
    12  O   -0.283903
    13  H    0.409175
    14  H    0.414115
    15  H    0.428758
 Sum of APT charges=   1.00000
 APT Atomic charges with hydrogens summed into heavy atoms:
              1
     1  C    0.140836
     2  H    0.000000
     3  H    0.000000
     4  H    0.000000
     5  C    0.761946
     6  O   -0.766680
     7  O   -0.375663
     8  C    0.271416
     9  H    0.000000
    10  H    0.000000
    11  H    0.000000
    12  O    0.968145
    13  H    0.000000
    14  H    0.000000
    15  H    0.000000
 Sum of APT charges=   1.00000
 Charge=              1.0000 electrons
 Dipole moment (field-independent basis, Debye):
    X=             -9.2889    Y=              0.7303    Z=              1.1684  Tot=              9.3906
 N-N= 1.742417743258D+02 E-N=-2.310575094919D+02  KE=-8.464580022366D+01
  Exact polarizability:   0.000   0.000   0.000   0.000   0.000   0.000
 Approx polarizability:  39.531   3.942  32.168   1.216   0.033  12.940
 Calling FoFJK, ICntrl=    100147 FMM=F ISym2X=0 I1Cent= 0 IOpClX= 0 NMat=1 NMatS=1 NMatT=0.
 ***** Axes restored to original set *****
 -------------------------------------------------------------------
 Center     Atomic                   Forces (Hartrees/Bohr)
 Number     Number              X              Y              Z
 -------------------------------------------------------------------
      1        6           0.033212992    0.025082751    0.065035907
      2        1           0.005304714   -0.019252527   -0.003282063
      3        1           0.005139348    0.008625581   -0.015925048
      4        1          -0.017953083    0.000334684   -0.000804493
      5        6          -0.001893131    0.106962329    0.066428164
      6        8           0.044568828   -0.169108648   -0.016673854
      7        8          -0.062348701    0.036800270   -0.085599881
      8        6          -0.014183114    0.022922776   -0.011458927
      9        1           0.008418892   -0.017046569   -0.001955223
     10        1           0.009899269    0.012642611    0.001472884
     11        1          -0.013799601    0.000291001    0.007116361
     12        8          -0.015641488    0.014556052    0.001455375
     13        1           0.001199090    0.000474539    0.006504159
     14        1           0.001920116   -0.000508265    0.005903602
     15        1           0.016155869   -0.022776584   -0.018216962
 -------------------------------------------------------------------
 Cartesian Forces:  Max     0.169108648 RMS     0.039360082

 GradGradGradGradGradGradGradGradGradGradGradGradGradGradGradGradGradGrad
 Berny optimization.
 Internal  Forces:  Max     0.184622504 RMS     0.033654037
 Search for a saddle point.
 Step number   1 out of a maximum of   61
 All quantities printed in internal units (Hartrees-Bohrs-Radians)
 Swaping is turned off.
 Second derivative matrix not updated -- analytic derivatives used.
     Eigenvalues ---   -0.02424  -0.01424  -0.01234  -0.00072  -0.00004
     Eigenvalues ---   -0.00003   0.00088   0.00258   0.00498   0.01169
     Eigenvalues ---    0.01920   0.04148   0.04532   0.04656   0.06194
     Eigenvalues ---    0.06269   0.07914   0.08648   0.08891   0.09387
     Eigenvalues ---    0.10627   0.11566   0.12129   0.12750   0.13346
     Eigenvalues ---    0.14683   0.17950   0.19079   0.19611   0.22222
     Eigenvalues ---    0.23286   0.27114   0.27183   0.27300   0.27453
     Eigenvalues ---    0.28032   0.29575   0.34039   0.428951000.00000
     Eigenvalues --- 1000.000001000.000001000.000001000.000001000.00000
     Eigenvalues --- 1000.000001000.000001000.000001000.000001000.00000
     Eigenvalues --- 1000.00000
 Eigenvectors required to have negative eigenvalues:
                          D14       D15       A21       A20       A19
   1                    0.51698  -0.46097  -0.46007   0.36571   0.24753
                          A18       A17       R13       R12       R14
   1                    0.20431   0.16873  -0.11510  -0.10172  -0.08142
 RFO step:  Lambda0=6.391682714D-03 Lambda=-1.58393116D-01.
 Linear search not attempted -- option 19 set.
 Maximum step size (   0.300) exceeded in Quadratic search.
    -- Step size scaled by   0.241
 Iteration  1 RMS(Cart)=  0.09781446 RMS(Int)=  0.00877360
 Iteration  2 RMS(Cart)=  0.01174284 RMS(Int)=  0.00192630
 Iteration  3 RMS(Cart)=  0.00011376 RMS(Int)=  0.00192255
 Iteration  4 RMS(Cart)=  0.00000041 RMS(Int)=  0.00192255
 Variable       Old X    -DE/DX   Delta X   Delta X   Delta X     New X
                                 (Linear)    (Quad)   (Total)
    R1        2.02201   0.01996   0.00000   0.01097   0.01097   2.03297
    R2        2.02201   0.01878   0.00000   0.00919   0.00919   2.03120
    R3        2.02201   0.01795   0.00000   0.00875   0.00875   2.03075
    R4        2.91018  -0.05241   0.00000  -0.02273  -0.02273   2.88745
    R5        2.66451  -0.18462   0.00000  -0.10513  -0.10514   2.55937
    R6        2.98577  -0.12783   0.00000  -0.12913  -0.12913   2.85664
    R7        3.26923  -0.00952   0.00000  -0.01395  -0.01394   3.25528
    R8        2.70231   0.00037   0.00000   0.00971   0.00971   2.71202
    R9        2.02201   0.01483   0.00000   0.00700   0.00700   2.02901
   R10        2.02201   0.01600   0.00000   0.00862   0.00862   2.03063
   R11        2.02201   0.01528   0.00000   0.00673   0.00673   2.02874
   R12        1.81414   0.00236   0.00000  -0.01965  -0.01965   1.79449
   R13        1.81414   0.00342   0.00000  -0.02364  -0.02364   1.79050
   R14        1.79524   0.02361   0.00000  -0.00024  -0.00024   1.79500
    A1        1.91063  -0.00211   0.00000  -0.00581  -0.00582   1.90482
    A2        1.91063  -0.00161   0.00000  -0.00521  -0.00522   1.90541
    A3        1.91063   0.00494   0.00000   0.00505   0.00504   1.91568
    A4        1.91063  -0.00144   0.00000  -0.00195  -0.00197   1.90867
    A5        1.91063   0.00063   0.00000   0.00479   0.00477   1.91541
    A6        1.91063  -0.00041   0.00000   0.00314   0.00313   1.91376
    A7        2.09836   0.01922   0.00000   0.02502   0.02504   2.12340
    A8        2.09241  -0.01078   0.00000  -0.01690  -0.01692   2.07550
    A9        2.09241  -0.00844   0.00000  -0.00812  -0.00813   2.08429
   A10        2.09439  -0.02853   0.00000  -0.01142  -0.01142   2.08297
   A11        1.91063  -0.02048   0.00000  -0.01483  -0.01484   1.89579
   A12        1.91063   0.00321   0.00000  -0.00324  -0.00326   1.90738
   A13        1.91063   0.00651   0.00000   0.00407   0.00407   1.91470
   A14        1.91063   0.00411   0.00000   0.00638   0.00635   1.91698
   A15        1.91063   0.00367   0.00000   0.00704   0.00704   1.91768
   A16        1.91063   0.00298   0.00000   0.00058   0.00057   1.91121
   A17        2.09440  -0.00542   0.00000   0.03085   0.02291   2.11731
   A18        2.01014   0.00132   0.00000   0.04224   0.03500   2.04514
   A19        1.99816  -0.00219   0.00000   0.05367   0.04643   2.04459
   A20        2.50919  -0.00454   0.00000   0.10932   0.10932   2.61851
   A21        3.14159   0.00255   0.00000   0.10512   0.10507   3.24666
   A22        3.14159  -0.00242   0.00000   0.06900   0.06936   3.21095
    D1        3.14159  -0.00032   0.00000   0.00103   0.00135  -3.14025
    D2        0.00000   0.00029   0.00000  -0.00117  -0.00148  -0.00149
    D3        1.04719  -0.00115   0.00000   0.00212   0.00244   1.04963
    D4       -2.09440  -0.00054   0.00000  -0.00008  -0.00040  -2.09480
    D5       -1.04720   0.00048   0.00000  -0.00034  -0.00002  -1.04723
    D6        2.09439   0.00109   0.00000  -0.00254  -0.00286   2.09153
    D7        2.04670   0.00069   0.00000  -0.00213  -0.00087   2.04583
    D8       -1.09489  -0.00073   0.00000   0.02335   0.02210  -1.07279
    D9       -2.69240  -0.00489   0.00000  -0.03030  -0.03001  -2.72242
   D10        0.44919  -0.00428   0.00000  -0.03250  -0.03278   0.41641
   D11        2.91313   0.00080   0.00000  -0.02793  -0.02796   2.88517
   D12       -1.27566  -0.00474   0.00000  -0.03117  -0.03115  -1.30681
   D13        0.81873   0.00487   0.00000  -0.02996  -0.02996   0.78878
   D14        2.39846  -0.00585   0.00000   0.11034   0.11323   2.51168
   D15       -0.13568   0.00542   0.00000  -0.08811  -0.09100  -0.22668
         Item               Value     Threshold  Converged?
 Maximum Force            0.184623     0.000450     NO 
 RMS     Force            0.033654     0.000300     NO 
 Maximum Displacement     0.396069     0.001800     NO 
 RMS     Displacement     0.102653     0.001200     NO 
 Predicted change in Energy=-3.602767D-02
 GradGradGradGradGradGradGradGradGradGradGradGradGradGradGradGradGradGrad

                          Input orientation:                          
 ---------------------------------------------------------------------
 Center     Atomic      Atomic             Coordinates (Angstroms)
 Number     Number       Type             X           Y           Z
 ---------------------------------------------------------------------
      1          6           0       -3.929970   -0.321620   -0.042385
      2          1           0       -3.581839   -1.338504   -0.088276
      3          1           0       -3.573283    0.212202   -0.904443
      4          1           0       -5.004582   -0.316277   -0.039557
      5          6           0       -3.409469    0.345673    1.229820
      6          8           0       -3.706016    1.632640    1.529944
      7          8           0       -2.545177   -0.457085    2.175187
      8          6           0       -2.475330   -0.078240    3.557656
      9          1           0       -2.040320   -0.887461    4.113330
     10          1           0       -1.864362    0.800417    3.654412
     11          1           0       -3.462034    0.128889    3.926508
     12          8           0       -4.660736    3.907494    2.316196
     13          1           0       -4.292769    4.782864    2.324647
     14          1           0       -5.192346    3.589856    3.033299
     15          1           0       -4.220941    3.257136    1.781522
 ---------------------------------------------------------------------
                    Distance matrix (angstroms):
                    1          2          3          4          5
     1  C    0.000000
     2  H    1.075804   0.000000
     3  H    1.074866   1.752396   0.000000
     4  H    1.074629   1.752575   1.753834   0.000000
     5  C    1.527974   2.145586   2.144697   2.143334   0.000000
     6  O    2.518234   3.385521   2.821613   2.819199   1.354362
     7  O    2.617943   2.640991   3.314976   3.312641   1.511668
     8  C    3.890437   4.013159   4.604365   4.403830   2.543843
     9  H    4.600100   4.498135   5.360717   5.134158   3.421962
    10  H    4.380868   4.640304   4.904036   4.975278   2.910806
    11  H    4.021695   4.276223   4.832949   4.278703   2.705898
    12  O    4.897175   5.870775   5.020981   4.848509   3.928416
    13  H    5.638282   6.618064   5.642308   5.665455   4.654840
    14  H    5.133524   6.051999   5.434678   4.973486   4.117755
    15  H    4.027257   5.002450   4.111629   4.086527   3.072374
                    6          7          8          9         10
     6  O    0.000000
     7  O    2.476053   0.000000
     8  C    2.924605   1.435138   0.000000
     9  H    3.974838   2.048537   1.073707   0.000000
    10  H    2.932175   2.057408   1.074561   1.757981   0.000000
    11  H    2.839773   2.061823   1.073563   1.757595   1.754292
    12  O    2.589333   4.852322   4.712038   5.752205   4.389130
    13  H    3.301477   5.525712   5.334204   6.358105   4.850291
    14  H    2.880963   4.911374   4.594785   5.581048   4.386596
    15  H    1.722622   4.093727   4.162516   5.231646   3.885441
                   11         12         13         14         15
    11  H    0.000000
    12  O    4.278767   0.000000
    13  H    4.991549   0.949602   0.000000
    14  H    3.971158   0.947491   1.653691   0.000000
    15  H    3.868182   0.949874   1.621108   1.619035   0.000000
 Stoichiometry    C3H9O3(1+)
 Framework group  C1[X(C3H9O3)]
 Deg. of freedom    39
 Full point group                 C1      NOp   1
 Largest Abelian subgroup         C1      NOp   1
 Largest concise Abelian subgroup C1      NOp   1
                         Standard orientation:                         
 ---------------------------------------------------------------------
 Center     Atomic      Atomic             Coordinates (Angstroms)
 Number     Number       Type             X           Y           Z
 ---------------------------------------------------------------------
      1          6           0       -1.283817    1.952518    0.146997
      2          1           0       -2.356466    1.897578    0.208311
      3          1           0       -1.010010    2.596029   -0.669250
      4          1           0       -0.898145    2.357432    1.064673
      5          6           0       -0.707209    0.555979   -0.080835
      6          8           0        0.626203    0.347065   -0.193367
      7          8           0       -1.653724   -0.618623   -0.178625
      8          6           0       -1.173222   -1.936287    0.125512
      9          1           0       -2.017024   -2.587487    0.255068
     10          1           0       -0.562798   -2.287544   -0.686080
     11          1           0       -0.590664   -1.910041    1.026887
     12          8           0        3.163941   -0.095332    0.068962
     13          1           0        3.847533   -0.272634   -0.565870
     14          1           0        3.136726   -0.545831    0.902059
     15          1           0        2.344976    0.254368   -0.261594
 ---------------------------------------------------------------------
 Rotational constants (GHZ):      3.5880245      1.6778347      1.1758913
 Standard basis: VSTO-6G (5D, 7F)
 There are    33 symmetry adapted basis functions of A   symmetry.
 Integral buffers will be    262144 words long.
 Regular integral format.
 Two-electron integral symmetry is turned off.
    33 basis functions,   198 primitive gaussians,    33 cartesian basis functions
    19 alpha electrons       19 beta electrons
       nuclear repulsion energy       175.4915903314 Hartrees.
 Do NDO integrals.
 One-electron integrals computed using PRISM.
 NBasis=    33 RedAO= F  NBF=    33
 NBsUse=    33 1.00D-04 NBFU=    33
 Initial guess read from the read-write file.
 B after Tr=     0.000000    0.000000    0.000000
         Rot=    1.000000    0.000000    0.000000    0.000000 Ang=   0.00 deg.
 Initial guess orbital symmetries:
       Occupied  (A) (A) (A) (A) (A) (A) (A) (A) (A) (A) (A) (A)
                 (A) (A) (A) (A) (A) (A) (A)
       Virtual   (A) (A) (A) (A) (A) (A) (A) (A) (A) (A) (A) (A)
                 (A) (A)
 Requested convergence on RMS density matrix=1.00D-08 within 128 cycles.
 Requested convergence on MAX density matrix=1.00D-06.
 Requested convergence on             energy=1.00D-06.
 No special actions if energy rises.
 Overlap will be assumed to be unity.
 Keep J ints in memory in canonical form, NReq=879302.
 SCF Done:  E(RPM6) =  0.903289789855E-01 A.U. after   15 cycles
             Convg  =    0.6106D-08             -V/T =  1.0011
 Calling FoFJK, ICntrl=      2127 FMM=F ISym2X=0 I1Cent= 0 IOpClX= 0 NMat=1 NMatS=1 NMatT=0.
 ***** Axes restored to original set *****
 -------------------------------------------------------------------
 Center     Atomic                   Forces (Hartrees/Bohr)
 Number     Number              X              Y              Z
 -------------------------------------------------------------------
      1        6           0.029542435    0.018851570    0.055445781
      2        1           0.004023970   -0.016346800   -0.003793763
      3        1           0.004126753    0.007095890   -0.013680403
      4        1          -0.015181237    0.000099304   -0.001111166
      5        6           0.003619011    0.082572475    0.061340961
      6        8           0.032438692   -0.134944298   -0.018765928
      7        8          -0.056017961    0.034246014   -0.072942116
      8        6          -0.009941516    0.021383970   -0.007203612
      9        1           0.006254067   -0.015084434   -0.002459211
     10        1           0.009131381    0.009865276    0.001073222
     11        1          -0.011521578    0.000774617    0.005925431
     12        8          -0.011440274    0.012445329    0.001633725
     13        1           0.000714572    0.002526889    0.004486974
     14        1           0.000200038    0.000226724    0.005008361
     15        1           0.014051646   -0.023712524   -0.014958254
 -------------------------------------------------------------------
 Cartesian Forces:  Max     0.134944298 RMS     0.032482929

 GradGradGradGradGradGradGradGradGradGradGradGradGradGradGradGradGradGrad
 Berny optimization.
 Internal  Forces:  Max     0.149170325 RMS     0.027852270
 Search for a saddle point.
 Step number   2 out of a maximum of   61
 All quantities printed in internal units (Hartrees-Bohrs-Radians)
 Swaping is turned off.
 Update second derivatives using D2CorX and points    1    2
     Eigenvalues ---   -0.02616  -0.01770  -0.01267  -0.00102  -0.00004
     Eigenvalues ---   -0.00001   0.00089   0.00262   0.00503   0.01165
     Eigenvalues ---    0.01921   0.04205   0.04533   0.04797   0.06195
     Eigenvalues ---    0.06269   0.08096   0.08645   0.08881   0.09414
     Eigenvalues ---    0.10627   0.11566   0.12154   0.12749   0.13588
     Eigenvalues ---    0.14686   0.17949   0.19186   0.19611   0.22847
     Eigenvalues ---    0.23785   0.27117   0.27218   0.27306   0.27453
     Eigenvalues ---    0.29235   0.29826   0.34257   0.429201000.00000
     Eigenvalues --- 1000.000001000.000001000.000001000.000001000.00000
     Eigenvalues --- 1000.000001000.000001000.000001000.000001000.00000
     Eigenvalues --- 1000.00000
 Eigenvectors required to have negative eigenvalues:
                          D14       D15       A20       A21       A19
   1                    0.61200  -0.53262   0.43203  -0.20165   0.19807
                          A18       R13       R12       A17       R14
   1                    0.14836  -0.12084  -0.10555   0.09997  -0.07988
 RFO step:  Lambda0=6.916435856D-03 Lambda=-1.14739021D-01.
 Linear search not attempted -- option 19 set.
 Maximum step size (   0.300) exceeded in Quadratic search.
    -- Step size scaled by   0.248
 Iteration  1 RMS(Cart)=  0.11651640 RMS(Int)=  0.01363429
 Iteration  2 RMS(Cart)=  0.03602973 RMS(Int)=  0.00135332
 Iteration  3 RMS(Cart)=  0.00131743 RMS(Int)=  0.00074723
 Iteration  4 RMS(Cart)=  0.00000205 RMS(Int)=  0.00074723
 Iteration  5 RMS(Cart)=  0.00000000 RMS(Int)=  0.00074723
 Variable       Old X    -DE/DX   Delta X   Delta X   Delta X     New X
                                 (Linear)    (Quad)   (Total)
    R1        2.03297   0.01692   0.00000   0.01094   0.01094   2.04392
    R2        2.03120   0.01587   0.00000   0.00908   0.00908   2.04028
    R3        2.03075   0.01518   0.00000   0.00886   0.00886   2.03961
    R4        2.88745  -0.04260   0.00000  -0.02066  -0.02066   2.86680
    R5        2.55937  -0.14917   0.00000  -0.07635  -0.07640   2.48298
    R6        2.85664  -0.10999   0.00000  -0.11517  -0.11514   2.74150
    R7        3.25528  -0.00964   0.00000  -0.03909  -0.03907   3.21621
    R8        2.71202   0.00161   0.00000   0.01071   0.01071   2.72272
    R9        2.02901   0.01263   0.00000   0.00712   0.00712   2.03613
   R10        2.03063   0.01336   0.00000   0.00833   0.00833   2.03896
   R11        2.02874   0.01277   0.00000   0.00638   0.00638   2.03512
   R12        1.79449   0.00265   0.00000  -0.00467  -0.00467   1.78981
   R13        1.79050   0.00360   0.00000  -0.00970  -0.00970   1.78079
   R14        1.79500   0.02154   0.00000   0.01882   0.01882   1.81382
    A1        1.90482  -0.00243   0.00000  -0.00687  -0.00689   1.89793
    A2        1.90541  -0.00195   0.00000  -0.00635  -0.00636   1.89906
    A3        1.91568   0.00472   0.00000   0.00573   0.00571   1.92139
    A4        1.90867  -0.00175   0.00000  -0.00301  -0.00303   1.90564
    A5        1.91541   0.00118   0.00000   0.00621   0.00619   1.92160
    A6        1.91376   0.00018   0.00000   0.00415   0.00413   1.91789
    A7        2.12340   0.01738   0.00000   0.02300   0.02307   2.14647
    A8        2.07550  -0.01134   0.00000  -0.01949  -0.01953   2.05597
    A9        2.08429  -0.00604   0.00000  -0.00352  -0.00357   2.08072
   A10        2.08297  -0.02195   0.00000  -0.00603  -0.00603   2.07694
   A11        1.89579  -0.01806   0.00000  -0.01640  -0.01642   1.87937
   A12        1.90738   0.00254   0.00000  -0.00447  -0.00450   1.90288
   A13        1.91470   0.00539   0.00000   0.00464   0.00464   1.91935
   A14        1.91698   0.00366   0.00000   0.00701   0.00697   1.92395
   A15        1.91768   0.00344   0.00000   0.00781   0.00782   1.92550
   A16        1.91121   0.00292   0.00000   0.00124   0.00124   1.91245
   A17        2.11731  -0.00376   0.00000   0.00439   0.00260   2.11990
   A18        2.04514   0.00204   0.00000   0.00949   0.00778   2.05292
   A19        2.04459  -0.00094   0.00000   0.02564   0.02393   2.06852
   A20        2.61851  -0.00255   0.00000   0.16178   0.16178   2.78029
   A21        3.24666   0.00421   0.00000   0.13080   0.13052   3.37718
   A22        3.21095  -0.00168   0.00000   0.09146   0.09206   3.30301
    D1       -3.14025  -0.00044   0.00000   0.00175   0.00242  -3.13783
    D2       -0.00149   0.00040   0.00000  -0.00178  -0.00244  -0.00392
    D3        1.04963  -0.00112   0.00000   0.00280   0.00346   1.05309
    D4       -2.09480  -0.00028   0.00000  -0.00073  -0.00139  -2.09619
    D5       -1.04723   0.00019   0.00000   0.00006   0.00072  -1.04651
    D6        2.09153   0.00103   0.00000  -0.00347  -0.00413   2.08740
    D7        2.04583   0.00026   0.00000  -0.00050   0.00224   2.04807
    D8       -1.07279  -0.00011   0.00000   0.02482   0.02208  -1.05072
    D9       -2.72242  -0.00564   0.00000  -0.03651  -0.03590  -2.75831
   D10        0.41641  -0.00478   0.00000  -0.03991  -0.04052   0.37589
   D11        2.88517   0.00068   0.00000  -0.03994  -0.03998   2.84519
   D12       -1.30681  -0.00416   0.00000  -0.04385  -0.04381  -1.35062
   D13        0.78878   0.00428   0.00000  -0.04224  -0.04224   0.74654
   D14        2.51168  -0.00385   0.00000   0.05516   0.05564   2.56733
   D15       -0.22668   0.00374   0.00000  -0.04511  -0.04560  -0.27228
         Item               Value     Threshold  Converged?
 Maximum Force            0.149170     0.000450     NO 
 RMS     Force            0.027852     0.000300     NO 
 Maximum Displacement     0.626336     0.001800     NO 
 RMS     Displacement     0.147893     0.001200     NO 
 Predicted change in Energy=-2.596151D-02
 GradGradGradGradGradGradGradGradGradGradGradGradGradGradGradGradGradGrad

                          Input orientation:                          
 ---------------------------------------------------------------------
 Center     Atomic      Atomic             Coordinates (Angstroms)
 Number     Number       Type             X           Y           Z
 ---------------------------------------------------------------------
      1          6           0       -3.910041   -0.249247    0.004350
      2          1           0       -3.562983   -1.268820   -0.094983
      3          1           0       -3.555663    0.321740   -0.840681
      4          1           0       -4.989355   -0.247664    0.005964
      5          6           0       -3.391170    0.354279    1.295841
      6          8           0       -3.664318    1.583405    1.671428
      7          8           0       -2.564903   -0.479560    2.148269
      8          6           0       -2.451316   -0.152522    3.546861
      9          1           0       -2.066067   -1.020649    4.055673
     10          1           0       -1.772155    0.678234    3.659821
     11          1           0       -3.416981    0.114610    3.941739
     12          8           0       -4.711144    3.913115    2.263645
     13          1           0       -4.423565    4.774053    1.993204
     14          1           0       -5.184478    3.782814    3.068016
     15          1           0       -4.295038    3.154195    1.848711
 ---------------------------------------------------------------------
                    Distance matrix (angstroms):
                    1          2          3          4          5
     1  C    0.000000
     2  H    1.081594   0.000000
     3  H    1.079670   1.756701   0.000000
     4  H    1.079316   1.757124   1.759688   0.000000
     5  C    1.517044   2.144379   2.143092   2.140166   0.000000
     6  O    2.489607   3.356436   2.813236   2.807544   1.313935
     7  O    2.541423   2.579007   3.249232   3.243642   1.450737
     8  C    3.832313   3.967991   4.549179   4.357596   2.491438
     9  H    4.517579   4.419309   5.291048   5.054034   3.356039
    10  H    4.335118   4.593108   4.854122   4.955636   2.883498
    11  H    3.984788   4.269698   4.788911   4.253695   2.656856
    12  O    4.803274   5.808085   4.885689   4.742005   3.917179
    13  H    5.427042   6.451158   5.348574   5.430182   4.592009
    14  H    5.221854   6.176796   5.469002   5.065470   4.255750
    15  H    3.890155   4.886400   3.975211   3.930704   2.993688
                    6          7          8          9         10
     6  O    0.000000
     7  O    2.385773   0.000000
     8  C    2.828792   1.440803   0.000000
     9  H    3.875581   2.044457   1.077474   0.000000
    10  H    2.890211   2.062456   1.078970   1.768979   0.000000
    11  H    2.715298   2.072584   1.076939   1.768265   1.761421
    12  O    2.621854   4.890323   4.825234   5.877910   4.588183
    13  H    3.295486   5.574864   5.529445   6.587119   5.155901
    14  H    3.016413   5.086840   4.815220   5.811472   4.651086
    15  H    1.701945   4.035749   4.149386   5.221907   3.971831
                   11         12         13         14         15
    11  H    0.000000
    12  O    4.349655   0.000000
    13  H    5.149797   0.947129   0.000000
    14  H    4.164512   0.942356   1.648260   0.000000
    15  H    3.793525   0.959831   1.631361   1.634923   0.000000
 Stoichiometry    C3H9O3(1+)
 Framework group  C1[X(C3H9O3)]
 Deg. of freedom    39
 Full point group                 C1      NOp   1
 Largest Abelian subgroup         C1      NOp   1
 Largest concise Abelian subgroup C1      NOp   1
                         Standard orientation:                         
 ---------------------------------------------------------------------
 Center     Atomic      Atomic             Coordinates (Angstroms)
 Number     Number       Type             X           Y           Z
 ---------------------------------------------------------------------
      1          6           0       -1.100325    1.981704    0.134829
      2          1           0       -2.179251    2.037679    0.186100
      3          1           0       -0.759566    2.596746   -0.684496
      4          1           0       -0.688011    2.360076    1.057735
      5          6           0       -0.662540    0.544439   -0.075017
      6          8           0        0.598384    0.187330   -0.169731
      7          8           0       -1.694718   -0.471126   -0.163761
      8          6           0       -1.351330   -1.842330    0.115164
      9          1           0       -2.268152   -2.379423    0.293820
     10          1           0       -0.836357   -2.256477   -0.737750
     11          1           0       -0.713374   -1.892858    0.981337
     12          8           0        3.182463   -0.191691    0.060473
     13          1           0        3.851052   -0.113096   -0.605759
     14          1           0        3.291157   -0.763933    0.801256
     15          1           0        2.298633    0.112301   -0.157954
 ---------------------------------------------------------------------
 Rotational constants (GHZ):      3.7885127      1.6599620      1.1848325
 Standard basis: VSTO-6G (5D, 7F)
 There are    33 symmetry adapted basis functions of A   symmetry.
 Integral buffers will be    262144 words long.
 Regular integral format.
 Two-electron integral symmetry is turned off.
    33 basis functions,   198 primitive gaussians,    33 cartesian basis functions
    19 alpha electrons       19 beta electrons
       nuclear repulsion energy       176.4292242905 Hartrees.
 Do NDO integrals.
 One-electron integrals computed using PRISM.
 NBasis=    33 RedAO= F  NBF=    33
 NBsUse=    33 1.00D-04 NBFU=    33
 Initial guess read from the read-write file.
 B after Tr=     0.000000    0.000000    0.000000
         Rot=    1.000000    0.000000    0.000000    0.000000 Ang=   0.00 deg.
 Initial guess orbital symmetries:
       Occupied  (A) (A) (A) (A) (A) (A) (A) (A) (A) (A) (A) (A)
                 (A) (A) (A) (A) (A) (A) (A)
       Virtual   (A) (A) (A) (A) (A) (A) (A) (A) (A) (A) (A) (A)
                 (A) (A)
 Requested convergence on RMS density matrix=1.00D-08 within 128 cycles.
 Requested convergence on MAX density matrix=1.00D-06.
 Requested convergence on             energy=1.00D-06.
 No special actions if energy rises.
 Overlap will be assumed to be unity.
 Keep J ints in memory in canonical form, NReq=879302.
 SCF Done:  E(RPM6) =  0.653802543904E-01 A.U. after   12 cycles
             Convg  =    0.5464D-08             -V/T =  1.0008
 Calling FoFJK, ICntrl=      2127 FMM=F ISym2X=0 I1Cent= 0 IOpClX= 0 NMat=1 NMatS=1 NMatT=0.
 ***** Axes restored to original set *****
 -------------------------------------------------------------------
 Center     Atomic                   Forces (Hartrees/Bohr)
 Number     Number              X              Y              Z
 -------------------------------------------------------------------
      1        6           0.025010742    0.013100119    0.045199387
      2        1           0.003057007   -0.013388546   -0.004233844
      3        1           0.003138625    0.005885999   -0.011339512
      4        1          -0.012554234   -0.000216888   -0.001281130
      5        6           0.003889303    0.058020779    0.050324059
      6        8           0.021916203   -0.095768479   -0.019326284
      7        8          -0.045530178    0.027535574   -0.055464936
      8        6          -0.005714856    0.019058988   -0.003135018
      9        1           0.004279726   -0.012900072   -0.002964017
     10        1           0.008140993    0.007287804    0.000814577
     11        1          -0.009450103    0.001063974    0.004905763
     12        8          -0.009363863    0.011717347   -0.000025143
     13        1           0.000725018    0.003295808    0.002779546
     14        1           0.000024234    0.000952281    0.004350275
     15        1           0.012431381   -0.025644687   -0.010603723
 -------------------------------------------------------------------
 Cartesian Forces:  Max     0.095768479 RMS     0.024607329

 GradGradGradGradGradGradGradGradGradGradGradGradGradGradGradGradGradGrad
 Berny optimization.
 Internal  Forces:  Max     0.110451151 RMS     0.021159158
 Search for a saddle point.
 Step number   3 out of a maximum of   61
 All quantities printed in internal units (Hartrees-Bohrs-Radians)
 Swaping is turned off.
 Update second derivatives using D2CorX and points    1    2    3
     Eigenvalues ---   -0.03392  -0.02120  -0.01333  -0.00148  -0.00003
     Eigenvalues ---    0.00001   0.00090   0.00269   0.00522   0.01157
     Eigenvalues ---    0.01923   0.04270   0.04534   0.05150   0.06198
     Eigenvalues ---    0.06270   0.08380   0.08653   0.08874   0.09490
     Eigenvalues ---    0.10627   0.11565   0.12187   0.12747   0.13988
     Eigenvalues ---    0.14695   0.17941   0.19310   0.19611   0.23015
     Eigenvalues ---    0.24525   0.27118   0.27231   0.27311   0.27452
     Eigenvalues ---    0.29481   0.32245   0.35674   0.430461000.00000
     Eigenvalues --- 1000.000001000.000001000.000001000.000001000.00000
     Eigenvalues --- 1000.000001000.000001000.000001000.000001000.00000
     Eigenvalues --- 1000.00000
 Eigenvectors required to have negative eigenvalues:
                          A20       D14       D15       A22       A21
   1                    0.54708   0.50426  -0.42221   0.29915   0.26490
                          A19       D13       R7        R6        R13
   1                    0.13669  -0.10338  -0.09642   0.09489  -0.09447
 RFO step:  Lambda0=6.270683026D-03 Lambda=-6.77802148D-02.
 Linear search not attempted -- option 19 set.
 Maximum step size (   0.300) exceeded in Quadratic search.
    -- Step size scaled by   0.264
 Iteration  1 RMS(Cart)=  0.10298627 RMS(Int)=  0.01538700
 Iteration  2 RMS(Cart)=  0.05202355 RMS(Int)=  0.00243645
 Iteration  3 RMS(Cart)=  0.00343796 RMS(Int)=  0.00106933
 Iteration  4 RMS(Cart)=  0.00006037 RMS(Int)=  0.00106869
 Iteration  5 RMS(Cart)=  0.00000056 RMS(Int)=  0.00106869
 Variable       Old X    -DE/DX   Delta X   Delta X   Delta X     New X
                                 (Linear)    (Quad)   (Total)
    R1        2.04392   0.01399   0.00000   0.01160   0.01160   2.05552
    R2        2.04028   0.01302   0.00000   0.00948   0.00948   2.04976
    R3        2.03961   0.01255   0.00000   0.00913   0.00913   2.04874
    R4        2.86680  -0.03265   0.00000  -0.01943  -0.01943   2.84736
    R5        2.48298  -0.11045   0.00000  -0.04102  -0.04113   2.44185
    R6        2.74150  -0.08452   0.00000  -0.09418  -0.09409   2.64741
    R7        3.21621  -0.01073   0.00000  -0.05783  -0.05782   3.15839
    R8        2.72272   0.00271   0.00000   0.01221   0.01221   2.73494
    R9        2.03613   0.01052   0.00000   0.00778   0.00778   2.04391
   R10        2.03896   0.01082   0.00000   0.00843   0.00843   2.04739
   R11        2.03512   0.01054   0.00000   0.00588   0.00588   2.04100
   R12        1.78981   0.00242   0.00000  -0.00770  -0.00770   1.78212
   R13        1.78079   0.00357   0.00000  -0.00284  -0.00284   1.77795
   R14        1.81382   0.01943   0.00000   0.01848   0.01848   1.83230
    A1        1.89793  -0.00256   0.00000  -0.00927  -0.00929   1.88864
    A2        1.89906  -0.00213   0.00000  -0.00840  -0.00842   1.89063
    A3        1.92139   0.00432   0.00000   0.00693   0.00691   1.92830
    A4        1.90564  -0.00187   0.00000  -0.00426  -0.00430   1.90134
    A5        1.92160   0.00157   0.00000   0.00800   0.00797   1.92957
    A6        1.91789   0.00056   0.00000   0.00656   0.00653   1.92442
    A7        2.14647   0.01407   0.00000   0.02032   0.02045   2.16691
    A8        2.05597  -0.01111   0.00000  -0.02101  -0.02099   2.03499
    A9        2.08072  -0.00296   0.00000   0.00064   0.00043   2.08115
   A10        2.07694  -0.01513   0.00000   0.00090   0.00090   2.07783
   A11        1.87937  -0.01545   0.00000  -0.01972  -0.01976   1.85961
   A12        1.90288   0.00192   0.00000  -0.00554  -0.00558   1.89730
   A13        1.91935   0.00429   0.00000   0.00502   0.00501   1.92436
   A14        1.92395   0.00313   0.00000   0.00748   0.00740   1.93135
   A15        1.92550   0.00311   0.00000   0.00928   0.00927   1.93477
   A16        1.91245   0.00276   0.00000   0.00305   0.00304   1.91549
   A17        2.11990  -0.00285   0.00000   0.00686   0.00573   2.12564
   A18        2.05292   0.00207   0.00000   0.01556   0.01446   2.06737
   A19        2.06852  -0.00085   0.00000   0.00120   0.00010   2.06862
   A20        2.78029  -0.00115   0.00000  -0.05821  -0.05821   2.72208
   A21        3.37718   0.00595   0.00000   0.21827   0.21749   3.59467
   A22        3.30301  -0.00067   0.00000   0.06437   0.06472   3.36773
    D1       -3.13783  -0.00047   0.00000   0.00360   0.00470  -3.13313
    D2       -0.00392   0.00048   0.00000  -0.00423  -0.00533  -0.00925
    D3        1.05309  -0.00102   0.00000   0.00563   0.00674   1.05983
    D4       -2.09619  -0.00007   0.00000  -0.00220  -0.00329  -2.09947
    D5       -1.04651  -0.00005   0.00000   0.00168   0.00278  -1.04373
    D6        2.08740   0.00090   0.00000  -0.00614  -0.00725   2.08015
    D7        2.04807   0.00013   0.00000   0.01127   0.01598   2.06405
    D8       -1.05072   0.00011   0.00000   0.01102   0.00631  -1.04441
    D9       -2.75831  -0.00611   0.00000  -0.05513  -0.05414  -2.81245
   D10        0.37589  -0.00512   0.00000  -0.06256  -0.06355   0.31234
   D11        2.84519   0.00053   0.00000  -0.04369  -0.04375   2.80144
   D12       -1.35062  -0.00356   0.00000  -0.04924  -0.04919  -1.39981
   D13        0.74654   0.00363   0.00000  -0.04589  -0.04588   0.70066
   D14        2.56733  -0.00314   0.00000   0.05123   0.05145   2.61878
   D15       -0.27228   0.00306   0.00000  -0.03280  -0.03302  -0.30530
         Item               Value     Threshold  Converged?
 Maximum Force            0.110451     0.000450     NO 
 RMS     Force            0.021159     0.000300     NO 
 Maximum Displacement     0.493768     0.001800     NO 
 RMS     Displacement     0.155670     0.001200     NO 
 Predicted change in Energy=-1.641170D-02
 GradGradGradGradGradGradGradGradGradGradGradGradGradGradGradGradGradGrad

                          Input orientation:                          
 ---------------------------------------------------------------------
 Center     Atomic      Atomic             Coordinates (Angstroms)
 Number     Number       Type             X           Y           Z
 ---------------------------------------------------------------------
      1          6           0       -3.908618   -0.133614    0.073713
      2          1           0       -3.580737   -1.158014   -0.088347
      3          1           0       -3.547293    0.472322   -0.750200
      4          1           0       -4.992660   -0.118476    0.072678
      5          6           0       -3.380746    0.387743    1.385148
      6          8           0       -3.618009    1.572487    1.843178
      7          8           0       -2.603505   -0.496558    2.144465
      8          6           0       -2.414122   -0.232490    3.554778
      9          1           0       -2.107085   -1.166939    4.004640
     10          1           0       -1.640852    0.518034    3.667010
     11          1           0       -3.333996    0.122508    3.995592
     12          8           0       -4.753123    3.877063    2.149872
     13          1           0       -4.597749    4.708039    1.731914
     14          1           0       -5.164103    3.815986    2.994008
     15          1           0       -4.316577    3.089893    1.789409
 ---------------------------------------------------------------------
                    Distance matrix (angstroms):
                    1          2          3          4          5
     1  C    0.000000
     2  H    1.087734   0.000000
     3  H    1.084687   1.759876   0.000000
     4  H    1.084148   1.760708   1.765009   0.000000
     5  C    1.506760   2.144890   2.143502   2.139416   0.000000
     6  O    2.475125   3.344820   2.817973   2.807791   1.292170
     7  O    2.474482   2.525462   3.195082   3.184856   1.400948
     8  C    3.789606   3.935727   4.507069   4.334383   2.454862
     9  H    4.445837   4.350204   5.231622   4.988601   3.301664
    10  H    4.298743   4.546977   4.811273   4.955702   2.872473
    11  H    3.972018   4.287094   4.763444   4.265969   2.624300
    12  O    4.594470   5.633482   4.632138   4.509595   3.826691
    13  H    5.163927   6.225612   5.020523   5.119011   4.501811
    14  H    5.069882   6.062065   5.273827   4.903422   4.185885
    15  H    3.674376   4.702355   3.727343   3.701065   2.888047
                    6          7          8          9         10
     6  O    0.000000
     7  O    2.323992   0.000000
     8  C    2.763487   1.447267   0.000000
     9  H    3.802534   2.038650   1.081592   0.000000
    10  H    2.889184   2.067423   1.083434   1.780589   0.000000
    11  H    2.610745   2.084113   1.080050   1.779906   1.769503
    12  O    2.587202   4.873340   4.932860   5.990294   4.824003
    13  H    3.286937   5.588832   5.700867   6.773777   5.481239
    14  H    2.957719   5.086887   4.926156   5.932645   4.872650
    15  H    1.671349   3.990402   4.215933   5.282965   4.159248
                   11         12         13         14         15
    11  H    0.000000
    12  O    4.417837   0.000000
    13  H    5.267676   0.943055   0.000000
    14  H    4.241962   0.940851   1.646025   0.000000
    15  H    3.825975   0.969609   1.643399   1.642123   0.000000
 Stoichiometry    C3H9O3(1+)
 Framework group  C1[X(C3H9O3)]
 Deg. of freedom    39
 Full point group                 C1      NOp   1
 Largest Abelian subgroup         C1      NOp   1
 Largest concise Abelian subgroup C1      NOp   1
                         Standard orientation:                         
 ---------------------------------------------------------------------
 Center     Atomic      Atomic             Coordinates (Angstroms)
 Number     Number       Type             X           Y           Z
 ---------------------------------------------------------------------
      1          6           0       -0.809751    2.010303    0.117491
      2          1           0       -1.874027    2.229402    0.167284
      3          1           0       -0.387168    2.568392   -0.711066
      4          1           0       -0.349032    2.346433    1.039516
      5          6           0       -0.583881    0.532433   -0.070147
      6          8           0        0.581997   -0.018381   -0.154022
      7          8           0       -1.727830   -0.273781   -0.133812
      8          6           0       -1.599104   -1.696143    0.100488
      9          1           0       -2.587484   -2.058029    0.349456
     10          1           0       -1.237034   -2.166274   -0.805994
     11          1           0       -0.907094   -1.880859    0.908887
     12          8           0        3.141529   -0.333303    0.053896
     13          1           0        3.844275   -0.128176   -0.540598
     14          1           0        3.235165   -0.985048    0.725953
     15          1           0        2.253255   -0.001676   -0.148919
 ---------------------------------------------------------------------
 Rotational constants (GHZ):      4.0335405      1.6720440      1.2110935
 Standard basis: VSTO-6G (5D, 7F)
 There are    33 symmetry adapted basis functions of A   symmetry.
 Integral buffers will be    262144 words long.
 Regular integral format.
 Two-electron integral symmetry is turned off.
    33 basis functions,   198 primitive gaussians,    33 cartesian basis functions
    19 alpha electrons       19 beta electrons
       nuclear repulsion energy       177.5847684082 Hartrees.
 Do NDO integrals.
 One-electron integrals computed using PRISM.
 NBasis=    33 RedAO= F  NBF=    33
 NBsUse=    33 1.00D-04 NBFU=    33
 Initial guess read from the read-write file.
 B after Tr=     0.000000    0.000000    0.000000
         Rot=    1.000000    0.000000    0.000000    0.000000 Ang=   0.00 deg.
 Initial guess orbital symmetries:
       Occupied  (A) (A) (A) (A) (A) (A) (A) (A) (A) (A) (A) (A)
                 (A) (A) (A) (A) (A) (A) (A)
       Virtual   (A) (A) (A) (A) (A) (A) (A) (A) (A) (A) (A) (A)
                 (A) (A)
 Requested convergence on RMS density matrix=1.00D-08 within 128 cycles.
 Requested convergence on MAX density matrix=1.00D-06.
 Requested convergence on             energy=1.00D-06.
 No special actions if energy rises.
 Overlap will be assumed to be unity.
 Keep J ints in memory in canonical form, NReq=879302.
 SCF Done:  E(RPM6) =  0.497060306522E-01 A.U. after   12 cycles
             Convg  =    0.7066D-08             -V/T =  1.0006
 Calling FoFJK, ICntrl=      2127 FMM=F ISym2X=0 I1Cent= 0 IOpClX= 0 NMat=1 NMatS=1 NMatT=0.
 ***** Axes restored to original set *****
 -------------------------------------------------------------------
 Center     Atomic                   Forces (Hartrees/Bohr)
 Number     Number              X              Y              Z
 -------------------------------------------------------------------
      1        6           0.020130071    0.008505960    0.034554436
      2        1           0.002025369   -0.010487507   -0.004276631
      3        1           0.002404421    0.004610717   -0.008965340
      4        1          -0.009962109   -0.000323551   -0.001280372
      5        6           0.001157431    0.042086287    0.037085591
      6        8           0.011411989   -0.062778467   -0.018408449
      7        8          -0.032551855    0.018779724   -0.037187640
      8        6          -0.001515090    0.015950346   -0.000276445
      9        1           0.002208891   -0.010488659   -0.003104601
     10        1           0.006928517    0.004762877    0.000402371
     11        1          -0.007443104    0.001513652    0.004132102
     12        8          -0.009439137    0.010670853    0.000414258
     13        1           0.000496555    0.003527797    0.002005599
     14        1           0.000036724    0.001411949    0.004014827
     15        1           0.014111327   -0.027741980   -0.009109706
 -------------------------------------------------------------------
 Cartesian Forces:  Max     0.062778467 RMS     0.017752867

 GradGradGradGradGradGradGradGradGradGradGradGradGradGradGradGradGradGrad
 Berny optimization.
 Internal  Forces:  Max     0.079124397 RMS     0.015218818
 Search for a saddle point.
 Step number   4 out of a maximum of   61
 All quantities printed in internal units (Hartrees-Bohrs-Radians)
 Swaping is turned off.
 Update second derivatives using D2CorX and points    2    3    4
     Eigenvalues ---   -0.04436  -0.02088  -0.01269  -0.00217  -0.00003
     Eigenvalues ---    0.00005   0.00092   0.00265   0.00524   0.01141
     Eigenvalues ---    0.01923   0.04312   0.04534   0.05604   0.06207
     Eigenvalues ---    0.06278   0.08621   0.08703   0.08872   0.09704
     Eigenvalues ---    0.10636   0.11564   0.12204   0.12747   0.14414
     Eigenvalues ---    0.14753   0.17943   0.19462   0.19612   0.22931
     Eigenvalues ---    0.24752   0.27118   0.27234   0.27314   0.27451
     Eigenvalues ---    0.29485   0.32931   0.37990   0.433541000.00000
     Eigenvalues --- 1000.000001000.000001000.000001000.000001000.00000
     Eigenvalues --- 1000.000001000.000001000.000001000.000001000.00000
     Eigenvalues --- 1000.00000
 Eigenvectors required to have negative eigenvalues:
                          A21       A20       D14       A22       D15
   1                    0.48707   0.43318   0.40990   0.34947  -0.32767
                          R7        D13       R6        D11       D12
   1                   -0.19662  -0.14955   0.14765  -0.13442  -0.13435
 RFO step:  Lambda0=1.794657086D-03 Lambda=-4.15415558D-02.
 Linear search not attempted -- option 19 set.
 Maximum step size (   0.300) exceeded in Quadratic search.
    -- Step size scaled by   0.280
 Iteration  1 RMS(Cart)=  0.01214804 RMS(Int)=  0.03777855
 Iteration  2 RMS(Cart)=  0.00268658 RMS(Int)=  0.03686987
 Iteration  3 RMS(Cart)=  0.00252921 RMS(Int)=  0.03601880
 Iteration  4 RMS(Cart)=  0.00238755 RMS(Int)=  0.03521932
 Iteration  5 RMS(Cart)=  0.00225941 RMS(Int)=  0.03446628
 Iteration  6 RMS(Cart)=  0.00214302 RMS(Int)=  0.03375522
 Iteration  7 RMS(Cart)=  0.00203686 RMS(Int)=  0.03308227
 Iteration  8 RMS(Cart)=  0.00193968 RMS(Int)=  0.03244406
 Iteration  9 RMS(Cart)=  0.00185043 RMS(Int)=  0.03183762
 Iteration 10 RMS(Cart)=  0.00176819 RMS(Int)=  0.03126033
 Iteration 11 RMS(Cart)=  0.00169219 RMS(Int)=  0.03070988
 Iteration 12 RMS(Cart)=  0.00162177 RMS(Int)=  0.03018421
 Iteration 13 RMS(Cart)=  0.00155635 RMS(Int)=  0.02968146
 Iteration 14 RMS(Cart)=  0.00149544 RMS(Int)=  0.02919999
 Iteration 15 RMS(Cart)=  0.00143859 RMS(Int)=  0.02873831
 Iteration 16 RMS(Cart)=  0.00138543 RMS(Int)=  0.02829506
 Iteration 17 RMS(Cart)=  0.00133561 RMS(Int)=  0.02786904
 Iteration 18 RMS(Cart)=  0.00128885 RMS(Int)=  0.02745914
 Iteration 19 RMS(Cart)=  0.00124487 RMS(Int)=  0.02706435
 Iteration 20 RMS(Cart)=  0.00120344 RMS(Int)=  0.02668375
 Iteration 21 RMS(Cart)=  0.00116436 RMS(Int)=  0.02631651
 Iteration 22 RMS(Cart)=  0.00112743 RMS(Int)=  0.02596184
 Iteration 23 RMS(Cart)=  0.00109249 RMS(Int)=  0.02561904
 Iteration 24 RMS(Cart)=  0.00105938 RMS(Int)=  0.02528745
 Iteration 25 RMS(Cart)=  0.00102797 RMS(Int)=  0.02496647
 Iteration 26 RMS(Cart)=  0.00099814 RMS(Int)=  0.02465555
 Iteration 27 RMS(Cart)=  0.00096978 RMS(Int)=  0.02435416
 Iteration 28 RMS(Cart)=  0.00094278 RMS(Int)=  0.02406182
 Iteration 29 RMS(Cart)=  0.00091704 RMS(Int)=  0.02377809
 Iteration 30 RMS(Cart)=  0.00089249 RMS(Int)=  0.02350255
 Iteration 31 RMS(Cart)=  0.00086905 RMS(Int)=  0.02323482
 Iteration 32 RMS(Cart)=  0.00084665 RMS(Int)=  0.02297453
 Iteration 33 RMS(Cart)=  0.00082522 RMS(Int)=  0.02272134
 Iteration 34 RMS(Cart)=  0.00080470 RMS(Int)=  0.02247493
 Iteration 35 RMS(Cart)=  0.00078504 RMS(Int)=  0.02223502
 Iteration 36 RMS(Cart)=  0.00076618 RMS(Int)=  0.02200131
 Iteration 37 RMS(Cart)=  0.00074809 RMS(Int)=  0.02177355
 Iteration 38 RMS(Cart)=  0.00073071 RMS(Int)=  0.02155149
 Iteration 39 RMS(Cart)=  0.00071400 RMS(Int)=  0.02133489
 Iteration 40 RMS(Cart)=  0.00069794 RMS(Int)=  0.02112355
 Iteration 41 RMS(Cart)=  0.00068248 RMS(Int)=  0.02091724
 Iteration 42 RMS(Cart)=  0.00066759 RMS(Int)=  0.02071578
 Iteration 43 RMS(Cart)=  0.00065325 RMS(Int)=  0.02051898
 Iteration 44 RMS(Cart)=  0.00063942 RMS(Int)=  0.02032666
 Iteration 45 RMS(Cart)=  0.00062607 RMS(Int)=  0.02013866
 Iteration 46 RMS(Cart)=  0.00061319 RMS(Int)=  0.01995482
 Iteration 47 RMS(Cart)=  0.00060076 RMS(Int)=  0.01977500
 Iteration 48 RMS(Cart)=  0.00058874 RMS(Int)=  0.01959904
 Iteration 49 RMS(Cart)=  0.00057712 RMS(Int)=  0.01942682
 Iteration 50 RMS(Cart)=  0.00056588 RMS(Int)=  0.01925820
 Iteration 51 RMS(Cart)=  0.00055501 RMS(Int)=  0.01909307
 Iteration 52 RMS(Cart)=  0.00054448 RMS(Int)=  0.01893131
 Iteration 53 RMS(Cart)=  0.00053428 RMS(Int)=  0.01877280
 Iteration 54 RMS(Cart)=  0.00052440 RMS(Int)=  0.01861744
 Iteration 55 RMS(Cart)=  0.00051482 RMS(Int)=  0.01846513
 Iteration 56 RMS(Cart)=  0.00050553 RMS(Int)=  0.01831578
 Iteration 57 RMS(Cart)=  0.00049652 RMS(Int)=  0.01816929
 Iteration 58 RMS(Cart)=  0.00048777 RMS(Int)=  0.01802556
 Iteration 59 RMS(Cart)=  0.00047928 RMS(Int)=  0.01788453
 Iteration 60 RMS(Cart)=  0.00047103 RMS(Int)=  0.01774610
 Iteration 61 RMS(Cart)=  0.00046302 RMS(Int)=  0.01761021
 Iteration 62 RMS(Cart)=  0.00045523 RMS(Int)=  0.01747677
 Iteration 63 RMS(Cart)=  0.00044765 RMS(Int)=  0.01734571
 Iteration 64 RMS(Cart)=  0.00044028 RMS(Int)=  0.01721697
 Iteration 65 RMS(Cart)=  0.00043312 RMS(Int)=  0.01709047
 Iteration 66 RMS(Cart)=  0.00042614 RMS(Int)=  0.01696617
 Iteration 67 RMS(Cart)=  0.00041935 RMS(Int)=  0.01684399
 Iteration 68 RMS(Cart)=  0.00041274 RMS(Int)=  0.01672388
 Iteration 69 RMS(Cart)=  0.00040629 RMS(Int)=  0.01660578
 Iteration 70 RMS(Cart)=  0.00040002 RMS(Int)=  0.01648963
 Iteration 71 RMS(Cart)=  0.00039390 RMS(Int)=  0.01637540
 Iteration 72 RMS(Cart)=  0.00038793 RMS(Int)=  0.01626302
 Iteration 73 RMS(Cart)=  0.00038211 RMS(Int)=  0.01615245
 Iteration 74 RMS(Cart)=  0.00037644 RMS(Int)=  0.01604364
 Iteration 75 RMS(Cart)=  0.00037090 RMS(Int)=  0.01593654
 Iteration 76 RMS(Cart)=  0.00036550 RMS(Int)=  0.01583112
 Iteration 77 RMS(Cart)=  0.00036022 RMS(Int)=  0.01572733
 Iteration 78 RMS(Cart)=  0.00035507 RMS(Int)=  0.01562513
 Iteration 79 RMS(Cart)=  0.00035004 RMS(Int)=  0.01552449
 Iteration 80 RMS(Cart)=  0.00034513 RMS(Int)=  0.01542536
 Iteration 81 RMS(Cart)=  0.00034032 RMS(Int)=  0.01532771
 Iteration 82 RMS(Cart)=  0.00033563 RMS(Int)=  0.01523150
 Iteration 83 RMS(Cart)=  0.00033104 RMS(Int)=  0.01513670
 Iteration 84 RMS(Cart)=  0.00032656 RMS(Int)=  0.01504328
 Iteration 85 RMS(Cart)=  0.00032217 RMS(Int)=  0.01495120
 Iteration 86 RMS(Cart)=  0.00031788 RMS(Int)=  0.01486044
 Iteration 87 RMS(Cart)=  0.00031368 RMS(Int)=  0.01477096
 Iteration 88 RMS(Cart)=  0.00030957 RMS(Int)=  0.01468274
 Iteration 89 RMS(Cart)=  0.00030555 RMS(Int)=  0.01459575
 Iteration 90 RMS(Cart)=  0.00030161 RMS(Int)=  0.01450996
 Iteration 91 RMS(Cart)=  0.00029776 RMS(Int)=  0.01442534
 Iteration 92 RMS(Cart)=  0.00029398 RMS(Int)=  0.01434187
 Iteration 93 RMS(Cart)=  0.00029029 RMS(Int)=  0.01425952
 Iteration 94 RMS(Cart)=  0.00028667 RMS(Int)=  0.01417828
 Iteration 95 RMS(Cart)=  0.00028312 RMS(Int)=  0.01409811
 Iteration 96 RMS(Cart)=  0.00027964 RMS(Int)=  0.01401900
 Iteration 97 RMS(Cart)=  0.00027623 RMS(Int)=  0.01394092
 Iteration 98 RMS(Cart)=  0.00027289 RMS(Int)=  0.01386385
 Iteration 99 RMS(Cart)=  0.00026962 RMS(Int)=  0.01378777
 Iteration100 RMS(Cart)=  0.00026641 RMS(Int)=  0.01371267
 New curvilinear step not converged.
 Iteration  1 RMS(Cart)=  0.01093323 RMS(Int)=  0.03400345
 Iteration  2 RMS(Cart)=  0.00279388 RMS(Int)=  0.03305612
 Iteration  3 RMS(Cart)=  0.00260215 RMS(Int)=  0.03217850
 Iteration  4 RMS(Cart)=  0.00243163 RMS(Int)=  0.03136251
 Iteration  5 RMS(Cart)=  0.00227914 RMS(Int)=  0.03060132
 Iteration  6 RMS(Cart)=  0.00214214 RMS(Int)=  0.02988912
 Iteration  7 RMS(Cart)=  0.00201850 RMS(Int)=  0.02922089
 Iteration  8 RMS(Cart)=  0.00190646 RMS(Int)=  0.02859233
 Iteration  9 RMS(Cart)=  0.00180454 RMS(Int)=  0.02799967
 Iteration 10 RMS(Cart)=  0.00171151 RMS(Int)=  0.02743966
 Iteration 11 RMS(Cart)=  0.00162632 RMS(Int)=  0.02690940
 Iteration 12 RMS(Cart)=  0.00154808 RMS(Int)=  0.02640637
 Iteration 13 RMS(Cart)=  0.00147600 RMS(Int)=  0.02592833
 Iteration 14 RMS(Cart)=  0.00140944 RMS(Int)=  0.02547328
 Iteration 15 RMS(Cart)=  0.00134782 RMS(Int)=  0.02503943
 Iteration 16 RMS(Cart)=  0.00129064 RMS(Int)=  0.02462519
 Iteration 17 RMS(Cart)=  0.00123746 RMS(Int)=  0.02422913
 Iteration 18 RMS(Cart)=  0.00118790 RMS(Int)=  0.02384996
 Iteration 19 RMS(Cart)=  0.00114162 RMS(Int)=  0.02348652
 Iteration 20 RMS(Cart)=  0.00109834 RMS(Int)=  0.02313773
 Iteration 21 RMS(Cart)=  0.00105778 RMS(Int)=  0.02280265
 Iteration 22 RMS(Cart)=  0.00101970 RMS(Int)=  0.02248040
 Iteration 23 RMS(Cart)=  0.00098390 RMS(Int)=  0.02217017
 Iteration 24 RMS(Cart)=  0.00095020 RMS(Int)=  0.02187124
 Iteration 25 RMS(Cart)=  0.00091842 RMS(Int)=  0.02158293
 Iteration 26 RMS(Cart)=  0.00088841 RMS(Int)=  0.02130462
 Iteration 27 RMS(Cart)=  0.00086004 RMS(Int)=  0.02103576
 Iteration 28 RMS(Cart)=  0.00083318 RMS(Int)=  0.02077581
 Iteration 29 RMS(Cart)=  0.00080773 RMS(Int)=  0.02052429
 Iteration 30 RMS(Cart)=  0.00078358 RMS(Int)=  0.02028075
 Iteration 31 RMS(Cart)=  0.00076063 RMS(Int)=  0.02004478
 Iteration 32 RMS(Cart)=  0.00073882 RMS(Int)=  0.01981599
 Iteration 33 RMS(Cart)=  0.00071805 RMS(Int)=  0.01959401
 Iteration 34 RMS(Cart)=  0.00069826 RMS(Int)=  0.01937853
 Iteration 35 RMS(Cart)=  0.00067939 RMS(Int)=  0.01916922
 Iteration 36 RMS(Cart)=  0.00066138 RMS(Int)=  0.01896579
[...]
                                 (Linear)    (Quad)   (Total)
    R1        2.10696  -0.00030   0.00000  -0.00017  -0.00005   2.10691
    R2        2.10535  -0.00018   0.00000  -0.00110  -0.00033   2.10502
    R3        2.08911  -0.00025   0.00000   0.00104   0.00031   2.08942
    R4        2.77695  -0.00049   0.00000  -0.00091  -0.00027   2.77668
    R5        2.42741   0.00014   0.00000   0.00304   0.00091   2.42832
    R6        2.48317   0.00634   0.00000   0.00931   0.00279   2.48597
    R7        2.25016   0.00044   0.00000   0.01087   0.00326   2.25343
    R8        2.78949   0.00001   0.00000  -0.00149  -0.00045   2.78904
    R9        2.08428  -0.00005   0.00000   0.00007   0.00002   2.08430
   R10        2.07275  -0.00004   0.00000   0.00016   0.00005   2.07280
   R11        2.06906  -0.00014   0.00000  -0.00062  -0.00019   2.06887
   R12        1.88681  -0.00333   0.00000  -0.00829  -0.00249   1.88432
   R13        1.87822  -0.00223   0.00000  -0.00506  -0.00152   1.87670
   R14        2.51476  -0.00091   0.00000  -0.00659  -0.00198   2.51278
    A1        1.81923   0.00017   0.00000   0.00317   0.00095   1.82018
    A2        1.85732  -0.00005   0.00000  -0.00182  -0.00055   1.85678
    A3        1.97117  -0.00005   0.00000   0.00095   0.00029   1.97145
    A4        1.85798   0.00001   0.00000   0.00067   0.00020   1.85818
    A5        1.95419  -0.00002   0.00000   0.00064   0.00019   1.95438
    A6        1.99143  -0.00004   0.00000  -0.00318  -0.00095   1.99048
    A7        2.21123   0.00165   0.00000  -0.00053  -0.00016   2.21107
    A8        2.01164   0.00194   0.00000  -0.00115  -0.00035   2.01129
    A9        2.06024  -0.00360   0.00000   0.00175   0.00052   2.06076
   A10        2.08768   0.00117   0.00000   0.00263   0.00079   2.08847
   A11        1.76689  -0.00019   0.00000  -0.00109  -0.00033   1.76657
   A12        1.87679  -0.00005   0.00000  -0.00696  -0.00209   1.87470
   A13        1.94425  -0.00004   0.00000   0.00687   0.00206   1.94631
   A14        1.95016   0.00008   0.00000  -0.00042  -0.00013   1.95003
   A15        1.95545   0.00006   0.00000  -0.00015  -0.00004   1.95541
   A16        1.95986   0.00011   0.00000   0.00138   0.00041   1.96028
   A17        1.81510   0.00018   0.00000   0.00995   0.00298   1.81807
   A18        1.83823  -0.00040   0.00000   0.00700   0.00210   1.84033
   A19        1.85415   0.00076   0.00000   0.01000   0.00300   1.85715
   A20        2.88202   0.01474   0.00000   0.02464   0.00739   2.88941
   A21        3.18190  -0.00663   0.00000  -0.03983  -0.01196   3.16994
   A22        6.13837  -0.00249   0.00000   0.03685   0.01103   6.14940
    D1       -2.72642  -0.00059   0.00000  -0.09472  -0.02840  -2.75483
    D2        0.42904   0.00064   0.00000  -0.10073  -0.03023   0.39881
    D3        1.50954  -0.00075   0.00000  -0.09985  -0.02994   1.47959
    D4       -1.61818   0.00047   0.00000  -0.10586  -0.03177  -1.64996
    D5       -0.60230  -0.00072   0.00000  -0.09888  -0.02965  -0.63195
    D6        2.55317   0.00051   0.00000  -0.10488  -0.03148   2.52169
    D7       -0.41224  -0.00377   0.00000  -0.02418  -0.00720  -0.41943
    D8        2.78283  -0.00224   0.00000  -0.02796  -0.00845   2.77439
    D9        3.10624  -0.00027   0.00000   0.01131   0.00340   3.10964
   D10       -0.02275   0.00080   0.00000   0.00587   0.00175  -0.02100
   D11        2.76748   0.00023   0.00000  -0.07706  -0.02312   2.74436
   D12       -1.46836   0.00022   0.00000  -0.08073  -0.02422  -1.49258
   D13        0.68604   0.00029   0.00000  -0.07935  -0.02381   0.66224
   D14       -0.29654   0.00085   0.00000  -0.03682  -0.01104  -0.30758
   D15       -2.21531   0.00051   0.00000  -0.05475  -0.01643  -2.23174
         Item               Value     Threshold  Converged?
 Maximum Force            0.014740     0.000450     NO 
 RMS     Force            0.002695     0.000300     NO 
 Maximum Displacement     0.321452     0.001800     NO 
 RMS     Displacement     0.065076     0.001200     NO 
 Predicted change in Energy=-2.736345D-04
 Optimization stopped.
    -- Number of steps exceeded,  NStep=  61
    -- Flag reset to prevent archiving.
                           ----------------------------
                           ! Non-Optimized Parameters !
                           ! (Angstroms and Degrees)  !
 --------------------------                            --------------------------
 ! Name  Definition              Value          Derivative Info.                !
 --------------------------------------------------------------------------------
 ! R1    R(1,2)                  1.1149         -DE/DX =   -0.0003              !
 ! R2    R(1,3)                  1.1139         -DE/DX =   -0.0002              !
 ! R3    R(1,4)                  1.1057         -DE/DX =   -0.0002              !
 ! R4    R(1,5)                  1.4694         -DE/DX =   -0.0005              !
 ! R5    R(5,6)                  1.285          -DE/DX =    0.0001              !
 ! R6    R(5,7)                  1.3155         -DE/DX =    0.0063              !
 ! R7    R(6,15)                 1.1925         -DE/DX =    0.0004              !
 ! R8    R(7,8)                  1.4759         -DE/DX =    0.0                 !
 ! R9    R(8,9)                  1.103          -DE/DX =   -0.0001              !
 ! R10   R(8,10)                 1.0969         -DE/DX =    0.0                 !
 ! R11   R(8,11)                 1.0948         -DE/DX =   -0.0001              !
 ! R12   R(12,13)                0.9971         -DE/DX =   -0.0033              !
 ! R13   R(12,14)                0.9931         -DE/DX =   -0.0022              !
 ! R14   R(12,15)                1.3297         -DE/DX =   -0.0009              !
 ! A1    A(2,1,3)              104.2885         -DE/DX =    0.0002              !
 ! A2    A(2,1,4)              106.3855         -DE/DX =    0.0                 !
 ! A3    A(2,1,5)              112.9559         -DE/DX =    0.0                 !
 ! A4    A(3,1,4)              106.4661         -DE/DX =    0.0                 !
 ! A5    A(3,1,5)              111.9776         -DE/DX =    0.0                 !
 ! A6    A(4,1,5)              114.0458         -DE/DX =    0.0                 !
 ! A7    A(1,5,6)              126.6852         -DE/DX =    0.0016              !
 ! A8    A(1,5,7)              115.2385         -DE/DX =    0.0019              !
 ! A9    A(6,5,7)              118.0729         -DE/DX =   -0.0036              !
 ! A10   A(5,7,8)              119.6605         -DE/DX =    0.0012              !
 ! A11   A(7,8,9)              101.2168         -DE/DX =   -0.0002              !
 ! A12   A(7,8,10)             107.4126         -DE/DX =    0.0                 !
 ! A13   A(7,8,11)             111.5152         -DE/DX =    0.0                 !
 ! A14   A(9,8,10)             111.7285         -DE/DX =    0.0001              !
 ! A15   A(9,8,11)             112.0366         -DE/DX =    0.0001              !
 ! A16   A(10,8,11)            112.3155         -DE/DX =    0.0001              !
 ! A17   A(13,12,14)           104.168          -DE/DX =    0.0002              !
 ! A18   A(13,12,15)           105.4432         -DE/DX =   -0.0004              !
 ! A19   A(14,12,15)           106.4066         -DE/DX =    0.0008              !
 ! A20   A(6,15,12)            165.5512         -DE/DX =    0.0147              !
 ! A21   L(5,6,15,7,-1)        181.6242         -DE/DX =   -0.0066              !
 ! A22   L(5,6,15,7,-2)        352.3346         -DE/DX =   -0.0025              !
 ! D1    D(2,1,5,6)           -157.84           -DE/DX =   -0.0006              !
 ! D2    D(2,1,5,7)             22.85           -DE/DX =    0.0006              !
 ! D3    D(3,1,5,6)             84.7745         -DE/DX =   -0.0008              !
 ! D4    D(3,1,5,7)            -94.5355         -DE/DX =    0.0005              !
 ! D5    D(4,1,5,6)            -36.2079         -DE/DX =   -0.0007              !
 ! D6    D(4,1,5,7)            144.4822         -DE/DX =    0.0005              !
 ! D7    D(1,5,15,12)          -24.0318         -DE/DX =   -0.0038              !
 ! D8    D(7,5,15,12)          158.9607         -DE/DX =   -0.0022              !
 ! D9    D(1,5,7,8)            178.1695         -DE/DX =   -0.0003              !
 ! D10   D(6,5,7,8)             -1.2034         -DE/DX =    0.0008              !
 ! D11   D(5,7,8,9)            157.2402         -DE/DX =    0.0002              !
 ! D12   D(5,7,8,10)           -85.5185         -DE/DX =    0.0002              !
 ! D13   D(5,7,8,11)            37.9435         -DE/DX =    0.0003              !
 ! D14   D(13,12,15,6)         -17.6229         -DE/DX =    0.0008              !
 ! D15   D(14,12,15,6)        -127.8691         -DE/DX =    0.0005              !
 --------------------------------------------------------------------------------
 GradGradGradGradGradGradGradGradGradGradGradGradGradGradGradGradGradGrad

                          Input orientation:                          
 ---------------------------------------------------------------------
 Center     Atomic      Atomic             Coordinates (Angstroms)
 Number     Number       Type             X           Y           Z
 ---------------------------------------------------------------------
      1          6           0       -3.977758    0.247442    0.292821
      2          1           0       -4.085876   -0.839527    0.069351
      3          1           0       -3.267831    0.617144   -0.482131
      4          1           0       -4.955792    0.711360    0.068357
      5          6           0       -3.489109    0.506434    1.654282
      6          8           0       -3.658793    1.579603    2.339511
      7          8           0       -2.798449   -0.470627    2.197457
      8          6           0       -2.223325   -0.295651    3.545637
      9          1           0       -2.084915   -1.344356    3.858001
     10          1           0       -1.264199    0.223946    3.430823
     11          1           0       -2.910745    0.242538    4.206400
     12          8           0       -4.851342    3.621272    1.526399
     13          1           0       -4.299522    4.311523    1.991119
     14          1           0       -5.743369    3.695835    1.958356
     15          1           0       -4.348151    2.451049    1.911475
 ---------------------------------------------------------------------
                    Distance matrix (angstroms):
                    1          2          3          4          5
     1  C    0.000000
     2  H    1.114957   0.000000
     3  H    1.114104   1.759323   0.000000
     4  H    1.105510   1.778202   1.777955   0.000000
     5  C    1.469500   2.163272   2.150693   2.169865   0.000000
     6  O    2.462789   3.344879   3.006799   2.755757   1.284532
     7  O    2.352452   2.514436   2.929805   3.253350   1.314039
     8  C    3.735479   3.981138   4.259942   4.535629   2.413042
     9  H    4.339030   4.314228   4.907496   5.179701   3.202118
    10  H    4.148616   4.515787   4.413655   5.017132   2.861140
    11  H    4.056432   4.434746   4.717008   4.639549   2.630105
    12  O    3.696971   4.754750   3.945439   3.256438   3.402095
    13  H    4.416390   5.502013   4.563967   4.133870   3.904988
    14  H    4.216966   5.185087   4.643555   3.619319   3.917452
    15  H    2.759188   3.780225   3.203069   2.606306   2.141409
                    6          7          8          9         10
     6  O    0.000000
     7  O    2.227962   0.000000
     8  C    2.651770   1.476135   0.000000
     9  H    3.651361   2.007471   1.102955   0.000000
    10  H    2.960211   2.087474   1.096853   1.820886   0.000000
    11  H    2.415076   2.134729   1.094897   1.822528   1.820159
    12  O    2.500347   4.626913   5.130895   6.143854   5.294927
    13  H    2.827596   5.016449   5.287076   6.354423   5.290956
    14  H    2.994858   5.107752   5.553569   6.511256   5.855351
    15  H    1.190735   3.319572   3.837934   4.828696   4.096239
                   11         12         13         14         15
    11  H    0.000000
    12  O    4.729077   0.000000
    13  H    4.836612   0.998457   0.000000
    14  H    5.000272   0.993910   1.569981   0.000000
    15  H    3.494330   1.330754   1.862813   1.870380   0.000000
 Stoichiometry    C3H9O3(1+)
 Framework group  C1[X(C3H9O3)]
 Deg. of freedom    39
 Full point group                 C1      NOp   1
 Largest Abelian subgroup         C1      NOp   1
 Largest concise Abelian subgroup C1      NOp   1
                         Standard orientation:                         
 ---------------------------------------------------------------------
 Center     Atomic      Atomic             Coordinates (Angstroms)
 Number     Number       Type             X           Y           Z
 ---------------------------------------------------------------------
      1          6           0       -0.071399    1.846257    0.014920
      2          1           0        0.699021    2.541219   -0.393258
      3          1           0       -0.244326    2.208812    1.054092
      4          1           0       -1.002481    2.047705   -0.546024
      5          6           0        0.353595    0.439832   -0.012998
      6          8           0       -0.410352   -0.592769   -0.024991
      7          8           0        1.653359    0.246691   -0.010158
      8          6           0        2.186260   -1.129770    0.008517
      9          1           0        3.202992   -0.971995   -0.388814
     10          1           0        2.205623   -1.462442    1.053524
     11          1           0        1.594986   -1.795704   -0.628450
     12          8           0       -2.908522   -0.523734    0.053223
     13          1           0       -3.063938   -1.350082    0.591657
     14          1           0       -3.288668   -0.742854   -0.838591
     15          1           0       -1.589824   -0.454081   -0.111364
 ---------------------------------------------------------------------
 Rotational constants (GHZ):      5.1322958      1.7589404      1.3403910

 **********************************************************************

            Population analysis using the SCF density.

 **********************************************************************

 Orbital symmetries:
       Occupied  (A) (A) (A) (A) (A) (A) (A) (A) (A) (A) (A) (A)
                 (A) (A) (A) (A) (A) (A) (A)
       Virtual   (A) (A) (A) (A) (A) (A) (A) (A) (A) (A) (A) (A)
                 (A) (A)
 The electronic state is 1-A.
 Alpha  occ. eigenvalues --   -1.37314  -1.34237  -1.30906  -1.19122  -1.08297
 Alpha  occ. eigenvalues --   -0.99097  -0.88227  -0.86956  -0.83092  -0.80517
 Alpha  occ. eigenvalues --   -0.77469  -0.72536  -0.71072  -0.68542  -0.68046
 Alpha  occ. eigenvalues --   -0.66939  -0.64737  -0.62797  -0.60527
 Alpha virt. eigenvalues --   -0.17606  -0.14614  -0.11870  -0.08150  -0.05623
 Alpha virt. eigenvalues --   -0.03459   0.00261   0.00528   0.01683   0.02044
 Alpha virt. eigenvalues --    0.04093   0.04226   0.05720   0.05782
          Condensed to atoms (all electrons):
              1          2          3          4          5          6
     1  C    4.615463   0.000000   0.000000   0.000000   0.000000   0.000000
     2  H    0.000000   0.751091   0.000000   0.000000   0.000000   0.000000
     3  H    0.000000   0.000000   0.752262   0.000000   0.000000   0.000000
     4  H    0.000000   0.000000   0.000000   0.771230   0.000000   0.000000
     5  C    0.000000   0.000000   0.000000   0.000000   3.327435   0.000000
     6  O    0.000000   0.000000   0.000000   0.000000   0.000000   6.521610
     7  O    0.000000   0.000000   0.000000   0.000000   0.000000   0.000000
     8  C    0.000000   0.000000   0.000000   0.000000   0.000000   0.000000
     9  H    0.000000   0.000000   0.000000   0.000000   0.000000   0.000000
    10  H    0.000000   0.000000   0.000000   0.000000   0.000000   0.000000
    11  H    0.000000   0.000000   0.000000   0.000000   0.000000   0.000000
    12  O    0.000000   0.000000   0.000000   0.000000   0.000000   0.000000
    13  H    0.000000   0.000000   0.000000   0.000000   0.000000   0.000000
    14  H    0.000000   0.000000   0.000000   0.000000   0.000000   0.000000
    15  H    0.000000   0.000000   0.000000   0.000000   0.000000   0.000000
              7          8          9         10         11         12
     1  C    0.000000   0.000000   0.000000   0.000000   0.000000   0.000000
     2  H    0.000000   0.000000   0.000000   0.000000   0.000000   0.000000
     3  H    0.000000   0.000000   0.000000   0.000000   0.000000   0.000000
     4  H    0.000000   0.000000   0.000000   0.000000   0.000000   0.000000
     5  C    0.000000   0.000000   0.000000   0.000000   0.000000   0.000000
     6  O    0.000000   0.000000   0.000000   0.000000   0.000000   0.000000
     7  O    6.252143   0.000000   0.000000   0.000000   0.000000   0.000000
     8  C    0.000000   4.193980   0.000000   0.000000   0.000000   0.000000
     9  H    0.000000   0.000000   0.802427   0.000000   0.000000   0.000000
    10  H    0.000000   0.000000   0.000000   0.821229   0.000000   0.000000
    11  H    0.000000   0.000000   0.000000   0.000000   0.826127   0.000000
    12  O    0.000000   0.000000   0.000000   0.000000   0.000000   6.468055
    13  H    0.000000   0.000000   0.000000   0.000000   0.000000   0.000000
    14  H    0.000000   0.000000   0.000000   0.000000   0.000000   0.000000
    15  H    0.000000   0.000000   0.000000   0.000000   0.000000   0.000000
             13         14         15
     1  C    0.000000   0.000000   0.000000
     2  H    0.000000   0.000000   0.000000
     3  H    0.000000   0.000000   0.000000
     4  H    0.000000   0.000000   0.000000
     5  C    0.000000   0.000000   0.000000
     6  O    0.000000   0.000000   0.000000
     7  O    0.000000   0.000000   0.000000
     8  C    0.000000   0.000000   0.000000
     9  H    0.000000   0.000000   0.000000
    10  H    0.000000   0.000000   0.000000
    11  H    0.000000   0.000000   0.000000
    12  O    0.000000   0.000000   0.000000
    13  H    0.648207   0.000000   0.000000
    14  H    0.000000   0.654874   0.000000
    15  H    0.000000   0.000000   0.593868
 Mulliken atomic charges:
              1
     1  C   -0.615463
     2  H    0.248909
     3  H    0.247738
     4  H    0.228770
     5  C    0.672565
     6  O   -0.521610
     7  O   -0.252143
     8  C   -0.193980
     9  H    0.197573
    10  H    0.178771
    11  H    0.173873
    12  O   -0.468055
    13  H    0.351793
    14  H    0.345126
    15  H    0.406132
 Sum of Mulliken atomic charges =   1.00000
 Mulliken charges with hydrogens summed into heavy atoms:
              1
     1  C    0.109954
     5  C    0.672565
     6  O   -0.115478
     7  O   -0.252143
     8  C    0.356238
    12  O    0.228864
 Sum of Mulliken charges with hydrogens summed into heavy atoms =   1.00000
 Charge=              1.0000 electrons
 Dipole moment (field-independent basis, Debye):
    X=             -3.4643    Y=             -1.1563    Z=             -0.6782  Tot=              3.7146
 N-N= 1.810354590418D+02 E-N=-2.436574368925D+02  KE=-8.478900538000D+01


 HICKORY, DICKORY, DOCK
 TWO MICE RAN UP THE CLOCK
 THE CLOCK STRUCK ONE...
 THE OTHER ESCAPED WITH MINOR INJURIES.
 Error termination request processed by link 9999.
 Error termination via Lnk1e in C:\G09W\l9999.exe at Thu Oct 01 09:52:50 2015.
 Job cpu time:  0 days  0 hours  0 minutes 25.0 seconds.
 File lengths (MBytes):  RWF=      8 Int=      0 D2E=      0 Chk=      2 Scr=      1
