 Entering Link 1 = C:\G09W\l1.exe PID=      3744.
  
 Copyright (c) 1988,1990,1992,1993,1995,1998,2003,2009, Gaussian, Inc.
                  All Rights Reserved.
  
 This is part of the Gaussian(R) 09 program.  It is based on
 the Gaussian(R) 03 system (copyright 2003, Gaussian, Inc.),
 the Gaussian(R) 98 system (copyright 1998, Gaussian, Inc.),
 the Gaussian(R) 94 system (copyright 1995, Gaussian, Inc.),
 the Gaussian 92(TM) system (copyright 1992, Gaussian, Inc.),
 the Gaussian 90(TM) system (copyright 1990, Gaussian, Inc.),
 the Gaussian 88(TM) system (copyright 1988, Gaussian, Inc.),
 the Gaussian 86(TM) system (copyright 1986, Carnegie Mellon
 University), and the Gaussian 82(TM) system (copyright 1983,
 Carnegie Mellon University). Gaussian is a federally registered
 trademark of Gaussian, Inc.
  
 This software contains proprietary and confidential information,
 including trade secrets, belonging to Gaussian, Inc.
  
 This software is provided under written license and may be
 used, copied, transmitted, or stored only in accord with that
 written license.
  
 The following legend is applicable only to US Government
 contracts under FAR:
  
                    RESTRICTED RIGHTS LEGEND
  
 Use, reproduction and disclosure by the US Government is
 subject to restrictions as set forth in subparagraphs (a)
 and (c) of the Commercial Computer Software - Restricted
 Rights clause in FAR 52.227-19.
  
 Gaussian, Inc.
 340 Quinnipiac St., Bldg. 40, Wallingford CT 06492
  
  
 ---------------------------------------------------------------
 Warning -- This program may not be used in any manner that
 competes with the business of Gaussian, Inc. or will provide
 assistance to any competitor of Gaussian, Inc.  The licensee
 of this program is prohibited from giving any competitor of
 Gaussian, Inc. access to this program.  By using this program,
 the user acknowledges that Gaussian, Inc. is engaged in the
 business of creating and licensing software in the field of
 computational chemistry and represents and warrants to the
 licensee that it is not a competitor of Gaussian, Inc. and that
 it will not use this program in any manner prohibited above.
 ---------------------------------------------------------------
  

 Cite this work as:
 Gaussian 09, Revision A.02,
 M. J. Frisch, G. W. Trucks, H. B. Schlegel, G. E. Scuseria, 
 M. A. Robb, J. R. Cheeseman, G. Scalmani, V. Barone, B. Mennucci, 
 G. A. Petersson, H. Nakatsuji, M. Caricato, X. Li, H. P. Hratchian, 
 A. F. Izmaylov, J. Bloino, G. Zheng, J. L. Sonnenberg, M. Hada, 
 M. Ehara, K. Toyota, R. Fukuda, J. Hasegawa, M. Ishida, T. Nakajima, 
 Y. Honda, O. Kitao, H. Nakai, T. Vreven, J. A. Montgomery, Jr., 
 J. E. Peralta, F. Ogliaro, M. Bearpark, J. J. Heyd, E. Brothers, 
 K. N. Kudin, V. N. Staroverov, R. Kobayashi, J. Normand, 
 K. Raghavachari, A. Rendell, J. C. Burant, S. S. Iyengar, J. Tomasi, 
 M. Cossi, N. Rega, J. M. Millam, M. Klene, J. E. Knox, J. B. Cross, 
 V. Bakken, C. Adamo, J. Jaramillo, R. Gomperts, R. E. Stratmann, 
 O. Yazyev, A. J. Austin, R. Cammi, C. Pomelli, J. W. Ochterski, 
 R. L. Martin, K. Morokuma, V. G. Zakrzewski, G. A. Voth, 
 P. Salvador, J. J. Dannenberg, S. Dapprich, A. D. Daniels, 
 O. Farkas, J. B. Foresman, J. V. Ortiz, J. Cioslowski, 
 and D. J. Fox, Gaussian, Inc., Wallingford CT, 2009.
 
 ******************************************
 Gaussian 09:  IA32W-G09RevA.02 11-Jun-2009
                01-Oct-2015 
 ******************************************
 %chk=C:\Users\214584429\Google Drive\214584429 MONSURAT\Silva-2014remix\MEOHAC-H
 30opt.chk
 ---------------------------------------------------------
 # opt=(ts,modredundant,noeigentest) pm6 geom=connectivity
 ---------------------------------------------------------
 1/5=1,11=1,14=-1,18=120,26=1,38=1,57=2/1,3;
 2/9=110,12=2,17=6,18=5,40=1/2;
 3/5=2,16=1,25=1,41=3900000,71=1/1,2,3;
 4/35=1/1;
 5/5=2,35=1,38=5/2;
 6/7=2,8=2,9=2,10=2,28=1/1;
 7//1,2,3,16;
 1/5=1,11=1,14=-1,18=20/3(2);
 2/9=110/2;
 99//99;
 2/9=110/2;
 3/5=2,16=1,25=1,41=3900000,71=1,135=20/1,2,3;
 4/5=5,16=3,35=1/1;
 5/5=2,35=1,38=5/2;
 7//1,2,3,16;
 1/5=1,11=1,14=-1,18=20/3(-5);
 2/9=110/2;
 6/7=2,8=2,9=2,10=2,19=2,28=1/1;
 99/9=1/99;
 -------------------
 Title Card Required
 -------------------
 Symbolic Z-matrix:
 Charge =  1 Multiplicity = 1
 C                    -1.8122    0.51355  -2.47348 
 H                    -1.19775  -0.36219  -2.45274 
 H                    -1.86046   0.8918   -3.47323 
 H                    -2.79756   0.26592  -2.13787 
 C                    -1.20889   1.58598  -1.54746 
 O                    -1.84158   2.83795  -1.40469 
 O                     0.12365   1.28232  -0.75466 
 C                     0.4016    1.97152   0.46708 
 H                     1.21044   1.48758   0.97352 
 H                     0.67063   2.98454   0.25188 
 H                    -0.46828   1.95813   1.09 
 O                    -2.59396   4.36607  -0.45525 
 H                    -3.45134   4.61917  -0.80514 
 H                    -2.53704   3.87986   0.37056 
 H                    -1.9003    5.00176  -0.5865 
 C                     0.92697  -0.71516   2.15144 
 H                     0.65788  -1.58959   2.7063 
 H                     0.6821    0.15749   2.72014 
 H                     1.97833  -0.72817   1.95303 
 O                     0.20877  -0.69541   0.91504 
 H                     0.44858   0.08987   0.41763 
 O                    -1.84513   0.88317   0.14559 
 H                    -1.42854   0.16872   0.63305 
 H                    -2.32109   1.45205   0.75504 
 
 The following ModRedundant input section has been read:
 A    5    6   12 F                                                            
 B   12   14 F                                                                 
 B   12   15 F                                                                 
 B   12   13 F                                                                 
 B   20   22 F                                                                 
 B    7   20 F                                                                 

 GradGradGradGradGradGradGradGradGradGradGradGradGradGradGradGradGradGrad
 Berny optimization.
 Initialization pass.
                           ----------------------------
                           !    Initial Parameters    !
                           ! (Angstroms and Degrees)  !
 --------------------------                            --------------------------
 ! Name  Definition              Value          Derivative Info.                !
 --------------------------------------------------------------------------------
 ! R1    R(1,2)                  1.07           estimate D2E/DX2                !
 ! R2    R(1,3)                  1.07           estimate D2E/DX2                !
 ! R3    R(1,4)                  1.07           estimate D2E/DX2                !
 ! R4    R(1,5)                  1.54           estimate D2E/DX2                !
 ! R5    R(5,6)                  1.41           estimate D2E/DX2                !
 ! R6    R(5,7)                  1.58           estimate D2E/DX2                !
 ! R7    R(5,22)                 1.9404         estimate D2E/DX2                !
 ! R8    R(6,12)                 1.95           estimate D2E/DX2                !
 ! R9    R(6,13)                 2.4746         estimate D2E/DX2                !
 ! R10   R(6,14)                 2.1727         estimate D2E/DX2                !
 ! R11   R(6,15)                 2.3141         estimate D2E/DX2                !
 ! R12   R(7,8)                  1.43           estimate D2E/DX2                !
 ! R13   R(7,20)                 2.5897         Frozen                          !
 ! R14   R(7,21)                 1.7035         estimate D2E/DX2                !
 ! R15   R(7,22)                 2.2013         estimate D2E/DX2                !
 ! R16   R(7,23)                 2.3612         estimate D2E/DX2                !
 ! R17   R(8,9)                  1.07           estimate D2E/DX2                !
 ! R18   R(8,10)                 1.07           estimate D2E/DX2                !
 ! R19   R(8,11)                 1.07           estimate D2E/DX2                !
 ! R20   R(8,21)                 1.8829         estimate D2E/DX2                !
 ! R21   R(11,22)                1.9857         estimate D2E/DX2                !
 ! R22   R(12,13)                0.96           Frozen                          !
 ! R23   R(12,14)                0.96           Frozen                          !
 ! R24   R(12,15)                0.95           Frozen                          !
 ! R25   R(16,17)                1.07           estimate D2E/DX2                !
 ! R26   R(16,18)                1.07           estimate D2E/DX2                !
 ! R27   R(16,19)                1.07           estimate D2E/DX2                !
 ! R28   R(16,20)                1.43           estimate D2E/DX2                !
 ! R29   R(20,21)                0.96           estimate D2E/DX2                !
 ! R30   R(20,22)                2.7023         Frozen                          !
 ! R31   R(20,23)                1.8727         estimate D2E/DX2                !
 ! R32   R(22,23)                0.96           estimate D2E/DX2                !
 ! R33   R(22,24)                0.96           estimate D2E/DX2                !
 ! A1    A(2,1,3)              109.4712         estimate D2E/DX2                !
 ! A2    A(2,1,4)              109.4712         estimate D2E/DX2                !
 ! A3    A(2,1,5)              109.4712         estimate D2E/DX2                !
 ! A4    A(3,1,4)              109.4712         estimate D2E/DX2                !
 ! A5    A(3,1,5)              109.4713         estimate D2E/DX2                !
 ! A6    A(4,1,5)              109.4712         estimate D2E/DX2                !
 ! A7    A(1,5,6)              120.2269         estimate D2E/DX2                !
 ! A8    A(1,5,7)              119.8865         estimate D2E/DX2                !
 ! A9    A(1,5,22)              98.2779         estimate D2E/DX2                !
 ! A10   A(6,5,7)              119.8865         estimate D2E/DX2                !
 ! A11   A(6,5,22)              94.9403         estimate D2E/DX2                !
 ! A12   A(5,6,12)             156.6689         Frozen                          !
 ! A13   A(5,6,13)             162.8557         estimate D2E/DX2                !
 ! A14   A(5,6,14)             130.7043         estimate D2E/DX2                !
 ! A15   A(5,6,15)             151.3357         estimate D2E/DX2                !
 ! A16   A(13,6,14)             41.2918         estimate D2E/DX2                !
 ! A17   A(13,6,15)             39.1735         estimate D2E/DX2                !
 ! A18   A(14,6,15)             41.8058         estimate D2E/DX2                !
 ! A19   A(5,7,8)              119.9998         estimate D2E/DX2                !
 ! A20   A(5,7,21)             129.8455         estimate D2E/DX2                !
 ! A21   A(5,7,23)              80.2776         estimate D2E/DX2                !
 ! A22   A(8,7,22)              84.9416         estimate D2E/DX2                !
 ! A23   A(8,7,23)              81.5444         estimate D2E/DX2                !
 ! A24   A(21,7,22)             76.245          estimate D2E/DX2                !
 ! A25   A(21,7,23)             52.4674         estimate D2E/DX2                !
 ! A26   A(7,8,9)              109.4712         estimate D2E/DX2                !
 ! A27   A(7,8,10)             109.4712         estimate D2E/DX2                !
 ! A28   A(7,8,11)             109.4712         estimate D2E/DX2                !
 ! A29   A(9,8,10)             109.4713         estimate D2E/DX2                !
 ! A30   A(9,8,11)             109.4712         estimate D2E/DX2                !
 ! A31   A(9,8,21)              62.7153         estimate D2E/DX2                !
 ! A32   A(10,8,11)            109.4712         estimate D2E/DX2                !
 ! A33   A(10,8,21)            159.1594         estimate D2E/DX2                !
 ! A34   A(11,8,21)             91.3219         estimate D2E/DX2                !
 ! A35   A(8,11,22)            107.0729         estimate D2E/DX2                !
 ! A36   A(13,12,14)           120.0            estimate D2E/DX2                !
 ! A37   A(13,12,15)           115.1723         estimate D2E/DX2                !
 ! A38   A(14,12,15)           114.486          estimate D2E/DX2                !
 ! A39   A(17,16,18)           109.4712         estimate D2E/DX2                !
 ! A40   A(17,16,19)           109.4712         estimate D2E/DX2                !
 ! A41   A(17,16,20)           109.4712         estimate D2E/DX2                !
 ! A42   A(18,16,19)           109.4713         estimate D2E/DX2                !
 ! A43   A(18,16,20)           109.4712         estimate D2E/DX2                !
 ! A44   A(19,16,20)           109.4712         estimate D2E/DX2                !
 ! A45   A(16,20,21)           109.5012         estimate D2E/DX2                !
 ! A46   A(16,20,23)           125.1471         estimate D2E/DX2                !
 ! A47   A(21,20,23)            76.2864         estimate D2E/DX2                !
 ! A48   A(7,21,20)            151.8285         estimate D2E/DX2                !
 ! A49   A(8,21,20)            142.9041         estimate D2E/DX2                !
 ! A50   A(5,22,11)             89.5156         estimate D2E/DX2                !
 ! A51   A(5,22,23)            124.7719         estimate D2E/DX2                !
 ! A52   A(5,22,24)            120.1226         estimate D2E/DX2                !
 ! A53   A(7,22,11)             58.4139         estimate D2E/DX2                !
 ! A54   A(7,22,24)            126.5552         estimate D2E/DX2                !
 ! A55   A(11,22,23)            81.9814         estimate D2E/DX2                !
 ! A56   A(11,22,24)            73.8025         estimate D2E/DX2                !
 ! A57   A(23,22,24)           109.5            estimate D2E/DX2                !
 ! A58   A(7,23,20)             74.4174         estimate D2E/DX2                !
 ! A59   A(20,23,22)           143.0598         estimate D2E/DX2                !
 ! D1    D(2,1,5,6)            179.9998         estimate D2E/DX2                !
 ! D2    D(2,1,5,7)             -0.0002         estimate D2E/DX2                !
 ! D3    D(2,1,5,22)           -79.3106         estimate D2E/DX2                !
 ! D4    D(3,1,5,6)             59.9998         estimate D2E/DX2                !
 ! D5    D(3,1,5,7)           -120.0002         estimate D2E/DX2                !
 ! D6    D(3,1,5,22)           160.6894         estimate D2E/DX2                !
 ! D7    D(4,1,5,6)            -60.0002         estimate D2E/DX2                !
 ! D8    D(4,1,5,7)            119.9998         estimate D2E/DX2                !
 ! D9    D(4,1,5,22)            40.6894         estimate D2E/DX2                !
 ! D10   D(1,5,6,12)           131.1256         estimate D2E/DX2                !
 ! D11   D(1,5,6,13)            69.5587         estimate D2E/DX2                !
 ! D12   D(1,5,6,14)           124.557          estimate D2E/DX2                !
 ! D13   D(1,5,6,15)          -173.883          estimate D2E/DX2                !
 ! D14   D(7,5,6,12)           -48.8744         estimate D2E/DX2                !
 ! D15   D(7,5,6,13)          -110.4413         estimate D2E/DX2                !
 ! D16   D(7,5,6,14)           -55.443          estimate D2E/DX2                !
 ! D17   D(7,5,6,15)             6.117          estimate D2E/DX2                !
 ! D18   D(22,5,6,12)           28.5565         estimate D2E/DX2                !
 ! D19   D(22,5,6,13)          -33.0103         estimate D2E/DX2                !
 ! D20   D(22,5,6,14)           21.988          estimate D2E/DX2                !
 ! D21   D(22,5,6,15)           83.548          estimate D2E/DX2                !
 ! D22   D(1,5,7,8)           -154.2633         estimate D2E/DX2                !
 ! D23   D(1,5,7,21)           -61.4441         estimate D2E/DX2                !
 ! D24   D(1,5,7,23)           -79.9981         estimate D2E/DX2                !
 ! D25   D(6,5,7,8)             25.7367         estimate D2E/DX2                !
 ! D26   D(6,5,7,21)           118.5559         estimate D2E/DX2                !
 ! D27   D(6,5,7,23)           100.0019         estimate D2E/DX2                !
 ! D28   D(1,5,22,11)          161.0317         estimate D2E/DX2                !
 ! D29   D(1,5,22,23)           81.1508         estimate D2E/DX2                !
 ! D30   D(1,5,22,24)         -128.0805         estimate D2E/DX2                !
 ! D31   D(6,5,22,11)          -77.4212         estimate D2E/DX2                !
 ! D32   D(6,5,22,23)         -157.3021         estimate D2E/DX2                !
 ! D33   D(6,5,22,24)           -6.5334         estimate D2E/DX2                !
 ! D34   D(5,7,8,9)            166.91           estimate D2E/DX2                !
 ! D35   D(5,7,8,10)           -73.0899         estimate D2E/DX2                !
 ! D36   D(5,7,8,11)            46.9101         estimate D2E/DX2                !
 ! D37   D(22,7,8,9)           117.2412         estimate D2E/DX2                !
 ! D38   D(22,7,8,10)         -122.7588         estimate D2E/DX2                !
 ! D39   D(22,7,8,11)           -2.7588         estimate D2E/DX2                !
 ! D40   D(23,7,8,9)            93.3476         estimate D2E/DX2                !
 ! D41   D(23,7,8,10)         -146.6524         estimate D2E/DX2                !
 ! D42   D(23,7,8,11)          -26.6524         estimate D2E/DX2                !
 ! D43   D(5,7,21,20)            8.7066         estimate D2E/DX2                !
 ! D44   D(22,7,21,20)          35.3492         estimate D2E/DX2                !
 ! D45   D(23,7,21,20)          32.0033         estimate D2E/DX2                !
 ! D46   D(8,7,22,11)            1.6449         estimate D2E/DX2                !
 ! D47   D(8,7,22,24)           31.9275         estimate D2E/DX2                !
 ! D48   D(21,7,22,11)          75.6449         estimate D2E/DX2                !
 ! D49   D(21,7,22,24)         105.9275         estimate D2E/DX2                !
 ! D50   D(5,7,23,20)          154.4048         estimate D2E/DX2                !
 ! D51   D(8,7,23,20)          -83.0253         estimate D2E/DX2                !
 ! D52   D(21,7,23,20)          -7.652          estimate D2E/DX2                !
 ! D53   D(7,8,11,22)            3.1873         estimate D2E/DX2                !
 ! D54   D(9,8,11,22)         -116.8127         estimate D2E/DX2                !
 ! D55   D(10,8,11,22)         123.1873         estimate D2E/DX2                !
 ! D56   D(21,8,11,22)         -55.38           estimate D2E/DX2                !
 ! D57   D(9,8,21,20)           83.4943         estimate D2E/DX2                !
 ! D58   D(10,8,21,20)         155.9929         estimate D2E/DX2                !
 ! D59   D(11,8,21,20)         -27.8063         estimate D2E/DX2                !
 ! D60   D(8,11,22,5)          -35.6689         estimate D2E/DX2                !
 ! D61   D(8,11,22,7)           -2.291          estimate D2E/DX2                !
 ! D62   D(8,11,22,23)          89.5817         estimate D2E/DX2                !
 ! D63   D(8,11,22,24)        -157.342          estimate D2E/DX2                !
 ! D64   D(17,16,20,21)        179.8887         estimate D2E/DX2                !
 ! D65   D(17,16,20,23)         93.2277         estimate D2E/DX2                !
 ! D66   D(18,16,20,21)         59.8887         estimate D2E/DX2                !
 ! D67   D(18,16,20,23)        -26.7722         estimate D2E/DX2                !
 ! D68   D(19,16,20,21)        -60.1113         estimate D2E/DX2                !
 ! D69   D(19,16,20,23)       -146.7723         estimate D2E/DX2                !
 ! D70   D(16,20,21,7)        -155.889          estimate D2E/DX2                !
 ! D71   D(16,20,21,8)         -62.487          estimate D2E/DX2                !
 ! D72   D(23,20,21,7)         -33.0547         estimate D2E/DX2                !
 ! D73   D(23,20,21,8)          60.3473         estimate D2E/DX2                !
 ! D74   D(16,20,23,7)         115.5053         estimate D2E/DX2                !
 ! D75   D(16,20,23,22)        114.9296         estimate D2E/DX2                !
 ! D76   D(21,20,23,7)          11.1201         estimate D2E/DX2                !
 ! D77   D(21,20,23,22)         10.5444         estimate D2E/DX2                !
 ! D78   D(5,22,23,20)          25.9231         estimate D2E/DX2                !
 ! D79   D(11,22,23,20)        -57.8653         estimate D2E/DX2                !
 ! D80   D(24,22,23,20)       -127.4557         estimate D2E/DX2                !
 --------------------------------------------------------------------------------
 Trust Radius=3.00D-01 FncErr=1.00D-07 GrdErr=1.00D-07
 Number of steps in this run= 144 maximum allowed number of steps= 144.
 Search for a saddle point of order  1.
 GradGradGradGradGradGradGradGradGradGradGradGradGradGradGradGradGradGrad

                          Input orientation:                          
 ---------------------------------------------------------------------
 Center     Atomic      Atomic             Coordinates (Angstroms)
 Number     Number       Type             X           Y           Z
 ---------------------------------------------------------------------
      1          6           0       -1.812196    0.513555   -2.473483
      2          1           0       -1.197750   -0.362188   -2.452744
      3          1           0       -1.860460    0.891798   -3.473234
      4          1           0       -2.797562    0.265925   -2.137873
      5          6           0       -1.208886    1.585985   -1.547464
      6          8           0       -1.841585    2.837946   -1.404688
      7          8           0        0.123651    1.282321   -0.754663
      8          6           0        0.401602    1.971522    0.467076
      9          1           0        1.210436    1.487582    0.973525
     10          1           0        0.670627    2.984544    0.251876
     11          1           0       -0.468278    1.958134    1.089996
     12          8           0       -2.593955    4.366065   -0.455247
     13          1           0       -3.451343    4.619170   -0.805138
     14          1           0       -2.537045    3.879856    0.370563
     15          1           0       -1.900297    5.001762   -0.586501
     16          6           0        0.926972   -0.715163    2.151439
     17          1           0        0.657878   -1.589590    2.706295
     18          1           0        0.682101    0.157490    2.720136
     19          1           0        1.978334   -0.728168    1.953027
     20          8           0        0.208767   -0.695410    0.915036
     21          1           0        0.448580    0.089875    0.417625
     22          8           0       -1.845128    0.883172    0.145591
     23          1           0       -1.428544    0.168719    0.633048
     24          1           0       -2.321092    1.452053    0.755043
 ---------------------------------------------------------------------
                    Distance matrix (angstroms):
                    1          2          3          4          5
     1  C    0.000000
     2  H    1.070000   0.000000
     3  H    1.070000   1.747302   0.000000
     4  H    1.070000   1.747303   1.747303   0.000000
     5  C    1.540000   2.148263   2.148263   2.148263   0.000000
     6  O    2.558511   3.428382   2.840199   2.840202   1.410000
     7  O    2.700527   2.708134   3.388191   3.388188   1.580000
     8  C    3.958972   4.065646   4.669987   4.464244   2.607812
     9  H    4.686886   4.578245   5.436822   5.218936   3.495452
    10  H    4.438218   4.691100   4.966129   5.012995   2.954007
    11  H    4.073242   4.297328   4.888590   4.325306   2.764632
    12  O    4.418853   5.319376   4.660129   4.436647   3.292447
    13  H    4.725066   5.710273   4.852108   4.599387   3.844460
    14  H    4.466093   5.268748   4.915388   4.406883   3.271801
    15  H    4.869544   5.722621   5.022611   5.063595   3.615111
    16  C    5.513863   5.083063   6.479896   5.764797   4.851706
    17  H    6.111840   5.618323   7.119403   6.232894   5.627038
    18  H    5.772519   5.528344   6.735106   5.976626   4.881479
    19  H    5.958522   5.443553   6.841414   6.366543   5.269451
    20  O    4.126494   3.664870   5.104689   4.391177   3.643955
    21  H    3.694471   3.339727   4.594946   4.135094   2.974410
    22  O    2.645232   2.953196   3.618868   2.549967   1.940409
    23  H    3.149069   3.139624   4.191772   3.092194   2.609891
    24  H    3.400461   3.852696   4.290035   3.162734   2.560563
                    6          7          8          9         10
     6  O    0.000000
     7  O    2.589335   0.000000
     8  C    3.047307   1.430000   0.000000
     9  H    4.098074   2.051796   1.070000   0.000000
    10  H    3.012790   2.051796   1.070000   1.747303   0.000000
    11  H    2.980518   2.051796   1.070000   1.747303   1.747303
    12  O    1.950038   4.121227   3.944348   4.980005   3.614708
    13  H    2.474579   4.890571   4.844972   5.890897   4.558499
    14  H    2.172731   3.884922   3.505239   4.486664   3.332390
    15  H    2.314082   4.237792   3.948559   4.945685   3.373676
    16  C    5.738948   3.616724   3.214244   2.513945   4.166759
    17  H    6.538392   4.528963   4.214415   3.574465   5.191054
    18  H    5.528834   3.694771   2.906143   2.258082   3.752956
    19  H    6.211538   3.848831   3.461569   2.541385   4.288152
    20  O    4.697837   2.589703   2.711158   2.402544   3.767646
    21  H    4.014670   1.703457   1.882883   1.686130   2.907901
    22  O    2.494899   2.201333   2.517072   3.222927   3.279647
    23  H    3.383452   2.361178   2.574312   2.969771   3.532801
    24  H    2.610568   2.878331   2.786726   3.538459   3.398836
                   11         12         13         14         15
    11  H    0.000000
    12  O    3.564324   0.000000
    13  H    4.423948   0.960000   0.000000
    14  H    2.913828   0.960000   1.662769   0.000000
    15  H    3.758323   0.950000   1.612428   1.606267   0.000000
    16  C    3.196858   6.708995   7.507735   6.023713   6.940676
    17  H    4.057955   7.485960   8.231923   6.751149   7.799531
    18  H    2.687573   6.207069   7.029900   5.453384   6.408556
    19  H    3.734562   7.256502   8.104498   6.642795   7.370555
    20  O    2.744138   5.945709   6.678335   5.363673   6.257837
    21  H    2.187031   5.320219   6.100743   4.824948   5.536436
    22  O    1.985739   3.612796   4.176302   3.083744   4.183514
    23  H    2.081567   4.490021   5.095745   3.882037   5.006811
    24  H    1.949675   3.167132   3.707056   2.467526   3.818016
                   16         17         18         19         20
    16  C    0.000000
    17  H    1.070000   0.000000
    18  H    1.070000   1.747302   0.000000
    19  H    1.070000   1.747302   1.747303   0.000000
    20  O    1.430000   2.051796   2.051796   2.051796   0.000000
    21  H    1.970547   2.846475   2.315310   2.316636   0.960000
    22  O    3.776590   4.351642   3.679915   4.525716   2.702304
    23  H    2.938573   3.426829   2.968313   3.762123   1.872704
    24  H    4.146886   4.683294   3.815318   4.967253   3.322256
                   21         22         23         24
    21  H    0.000000
    22  O    2.442216   0.000000
    23  H    1.891089   0.960000   0.000000
    24  H    3.104910   0.960000   1.567952   0.000000
 Stoichiometry    C4H15O5(1+)
 Framework group  C1[X(C4H15O5)]
 Deg. of freedom    66
 Full point group                 C1      NOp   1
 Largest Abelian subgroup         C1      NOp   1
 Largest concise Abelian subgroup C1      NOp   1
                         Standard orientation:                         
 ---------------------------------------------------------------------
 Center     Atomic      Atomic             Coordinates (Angstroms)
 Number     Number       Type             X           Y           Z
 ---------------------------------------------------------------------
      1          6           0        0.987121    2.380851    0.002172
      2          1           0        0.043945    2.836114   -0.217040
      3          1           0        1.759963    2.881135   -0.543109
      4          1           0        1.184449    2.456455    1.051098
      5          6           0        0.948270    0.896766   -0.407197
      6          8           0        2.080267    0.077999   -0.216658
      7          8           0       -0.364574    0.289534   -1.042892
      8          6           0       -0.635533   -1.109518   -0.923991
      9          1           0       -1.650654   -1.301162   -1.202742
     10          1           0        0.020636   -1.655954   -1.568777
     11          1           0       -0.479326   -1.418278    0.088514
     12          8           0        3.073767   -1.497841    0.359824
     13          1           0        3.880142   -1.263284    0.824950
     14          1           0        2.306753   -1.800446    0.851474
     15          1           0        3.200870   -1.929893   -0.476643
     16          6           0       -3.585642   -0.687569    0.280242
     17          1           0       -4.311901   -0.482753    1.038858
     18          1           0       -3.130768   -1.637473    0.469111
     19          1           0       -4.064501   -0.705337   -0.676460
     20          8           0       -2.582981    0.331950    0.292560
     21          1           0       -1.930192    0.147667   -0.386783
     22          8           0       -0.016433    0.208320    1.129220
     23          1           0       -0.969391    0.245732    1.239090
     24          1           0        0.334313   -0.535398    1.624661
 ---------------------------------------------------------------------
 Rotational constants (GHZ):      2.0419243      0.7571126      0.6492109
 Standard basis: VSTO-6G (5D, 7F)
 There are    51 symmetry adapted basis functions of A   symmetry.
 Integral buffers will be    262144 words long.
 Regular integral format.
 Two-electron integral symmetry is turned off.
    51 basis functions,   306 primitive gaussians,    51 cartesian basis functions
    30 alpha electrons       30 beta electrons
       nuclear repulsion energy       373.2265927787 Hartrees.
 Do NDO integrals.
 One-electron integrals computed using PRISM.
 NBasis=    51 RedAO= F  NBF=    51
 NBsUse=    51 1.00D-04 NBFU=    51
 Simple Huckel Guess.
 Initial guess orbital symmetries:
       Occupied  (A) (A) (A) (A) (A) (A) (A) (A) (A) (A) (A) (A)
                 (A) (A) (A) (A) (A) (A) (A) (A) (A) (A) (A) (A)
                 (A) (A) (A) (A) (A) (A)
       Virtual   (A) (A) (A) (A) (A) (A) (A) (A) (A) (A) (A) (A)
                 (A) (A) (A) (A) (A) (A) (A) (A) (A)
 The electronic state of the initial guess is 1-A.
 Requested convergence on RMS density matrix=1.00D-08 within 128 cycles.
 Requested convergence on MAX density matrix=1.00D-06.
 Requested convergence on             energy=1.00D-06.
 No special actions if energy rises.
 Overlap will be assumed to be unity.
 Keep J ints in memory in canonical form, NReq=887204.
 SCF Done:  E(RPM6) = -0.660619354579E-02 A.U. after   14 cycles
             Convg  =    0.3502D-08             -V/T =  1.0000

 **********************************************************************

            Population analysis using the SCF density.

 **********************************************************************

 Orbital symmetries:
       Occupied  (A) (A) (A) (A) (A) (A) (A) (A) (A) (A) (A) (A)
                 (A) (A) (A) (A) (A) (A) (A) (A) (A) (A) (A) (A)
                 (A) (A) (A) (A) (A) (A)
       Virtual   (A) (A) (A) (A) (A) (A) (A) (A) (A) (A) (A) (A)
                 (A) (A) (A) (A) (A) (A) (A) (A) (A)
 The electronic state is 1-A.
 Alpha  occ. eigenvalues --   -1.46042  -1.29103  -1.23143  -1.18580  -1.16006
 Alpha  occ. eigenvalues --   -1.10315  -1.05142  -1.02323  -1.01029  -0.99739
 Alpha  occ. eigenvalues --   -0.89869  -0.86256  -0.79985  -0.78454  -0.74925
 Alpha  occ. eigenvalues --   -0.73723  -0.71717  -0.69892  -0.67188  -0.66589
 Alpha  occ. eigenvalues --   -0.65961  -0.65046  -0.64753  -0.59606  -0.59176
 Alpha  occ. eigenvalues --   -0.57274  -0.56217  -0.53349  -0.52727  -0.49905
 Alpha virt. eigenvalues --   -0.17289  -0.13315  -0.11990  -0.04367  -0.03987
 Alpha virt. eigenvalues --   -0.03872  -0.01363  -0.00732   0.00981   0.01175
 Alpha virt. eigenvalues --    0.05151   0.05826   0.07298   0.07665   0.07971
 Alpha virt. eigenvalues --    0.08094   0.09316   0.09918   0.10898   0.11656
 Alpha virt. eigenvalues --    0.13069
          Condensed to atoms (all electrons):
              1          2          3          4          5          6
     1  C    4.509714   0.000000   0.000000   0.000000   0.000000   0.000000
     2  H    0.000000   0.787589   0.000000   0.000000   0.000000   0.000000
     3  H    0.000000   0.000000   0.788191   0.000000   0.000000   0.000000
     4  H    0.000000   0.000000   0.000000   0.781725   0.000000   0.000000
     5  C    0.000000   0.000000   0.000000   0.000000   3.175131   0.000000
     6  O    0.000000   0.000000   0.000000   0.000000   0.000000   6.773010
     7  O    0.000000   0.000000   0.000000   0.000000   0.000000   0.000000
     8  C    0.000000   0.000000   0.000000   0.000000   0.000000   0.000000
     9  H    0.000000   0.000000   0.000000   0.000000   0.000000   0.000000
    10  H    0.000000   0.000000   0.000000   0.000000   0.000000   0.000000
    11  H    0.000000   0.000000   0.000000   0.000000   0.000000   0.000000
    12  O    0.000000   0.000000   0.000000   0.000000   0.000000   0.000000
    13  H    0.000000   0.000000   0.000000   0.000000   0.000000   0.000000
    14  H    0.000000   0.000000   0.000000   0.000000   0.000000   0.000000
    15  H    0.000000   0.000000   0.000000   0.000000   0.000000   0.000000
    16  C    0.000000   0.000000   0.000000   0.000000   0.000000   0.000000
    17  H    0.000000   0.000000   0.000000   0.000000   0.000000   0.000000
    18  H    0.000000   0.000000   0.000000   0.000000   0.000000   0.000000
    19  H    0.000000   0.000000   0.000000   0.000000   0.000000   0.000000
    20  O    0.000000   0.000000   0.000000   0.000000   0.000000   0.000000
    21  H    0.000000   0.000000   0.000000   0.000000   0.000000   0.000000
    22  O    0.000000   0.000000   0.000000   0.000000   0.000000   0.000000
    23  H    0.000000   0.000000   0.000000   0.000000   0.000000   0.000000
    24  H    0.000000   0.000000   0.000000   0.000000   0.000000   0.000000
              7          8          9         10         11         12
     1  C    0.000000   0.000000   0.000000   0.000000   0.000000   0.000000
     2  H    0.000000   0.000000   0.000000   0.000000   0.000000   0.000000
     3  H    0.000000   0.000000   0.000000   0.000000   0.000000   0.000000
     4  H    0.000000   0.000000   0.000000   0.000000   0.000000   0.000000
     5  C    0.000000   0.000000   0.000000   0.000000   0.000000   0.000000
     6  O    0.000000   0.000000   0.000000   0.000000   0.000000   0.000000
     7  O    6.457183   0.000000   0.000000   0.000000   0.000000   0.000000
     8  C    0.000000   4.198784   0.000000   0.000000   0.000000   0.000000
     9  H    0.000000   0.000000   0.822905   0.000000   0.000000   0.000000
    10  H    0.000000   0.000000   0.000000   0.856626   0.000000   0.000000
    11  H    0.000000   0.000000   0.000000   0.000000   0.879100   0.000000
    12  O    0.000000   0.000000   0.000000   0.000000   0.000000   6.227993
    13  H    0.000000   0.000000   0.000000   0.000000   0.000000   0.000000
    14  H    0.000000   0.000000   0.000000   0.000000   0.000000   0.000000
    15  H    0.000000   0.000000   0.000000   0.000000   0.000000   0.000000
    16  C    0.000000   0.000000   0.000000   0.000000   0.000000   0.000000
    17  H    0.000000   0.000000   0.000000   0.000000   0.000000   0.000000
    18  H    0.000000   0.000000   0.000000   0.000000   0.000000   0.000000
    19  H    0.000000   0.000000   0.000000   0.000000   0.000000   0.000000
    20  O    0.000000   0.000000   0.000000   0.000000   0.000000   0.000000
    21  H    0.000000   0.000000   0.000000   0.000000   0.000000   0.000000
    22  O    0.000000   0.000000   0.000000   0.000000   0.000000   0.000000
    23  H    0.000000   0.000000   0.000000   0.000000   0.000000   0.000000
    24  H    0.000000   0.000000   0.000000   0.000000   0.000000   0.000000
             13         14         15         16         17         18
     1  C    0.000000   0.000000   0.000000   0.000000   0.000000   0.000000
     2  H    0.000000   0.000000   0.000000   0.000000   0.000000   0.000000
     3  H    0.000000   0.000000   0.000000   0.000000   0.000000   0.000000
     4  H    0.000000   0.000000   0.000000   0.000000   0.000000   0.000000
     5  C    0.000000   0.000000   0.000000   0.000000   0.000000   0.000000
     6  O    0.000000   0.000000   0.000000   0.000000   0.000000   0.000000
     7  O    0.000000   0.000000   0.000000   0.000000   0.000000   0.000000
     8  C    0.000000   0.000000   0.000000   0.000000   0.000000   0.000000
     9  H    0.000000   0.000000   0.000000   0.000000   0.000000   0.000000
    10  H    0.000000   0.000000   0.000000   0.000000   0.000000   0.000000
    11  H    0.000000   0.000000   0.000000   0.000000   0.000000   0.000000
    12  O    0.000000   0.000000   0.000000   0.000000   0.000000   0.000000
    13  H    0.597674   0.000000   0.000000   0.000000   0.000000   0.000000
    14  H    0.000000   0.599465   0.000000   0.000000   0.000000   0.000000
    15  H    0.000000   0.000000   0.600685   0.000000   0.000000   0.000000
    16  C    0.000000   0.000000   0.000000   4.172349   0.000000   0.000000
    17  H    0.000000   0.000000   0.000000   0.000000   0.830803   0.000000
    18  H    0.000000   0.000000   0.000000   0.000000   0.000000   0.892026
    19  H    0.000000   0.000000   0.000000   0.000000   0.000000   0.000000
    20  O    0.000000   0.000000   0.000000   0.000000   0.000000   0.000000
    21  H    0.000000   0.000000   0.000000   0.000000   0.000000   0.000000
    22  O    0.000000   0.000000   0.000000   0.000000   0.000000   0.000000
    23  H    0.000000   0.000000   0.000000   0.000000   0.000000   0.000000
    24  H    0.000000   0.000000   0.000000   0.000000   0.000000   0.000000
             19         20         21         22         23         24
     1  C    0.000000   0.000000   0.000000   0.000000   0.000000   0.000000
     2  H    0.000000   0.000000   0.000000   0.000000   0.000000   0.000000
     3  H    0.000000   0.000000   0.000000   0.000000   0.000000   0.000000
     4  H    0.000000   0.000000   0.000000   0.000000   0.000000   0.000000
     5  C    0.000000   0.000000   0.000000   0.000000   0.000000   0.000000
     6  O    0.000000   0.000000   0.000000   0.000000   0.000000   0.000000
     7  O    0.000000   0.000000   0.000000   0.000000   0.000000   0.000000
     8  C    0.000000   0.000000   0.000000   0.000000   0.000000   0.000000
     9  H    0.000000   0.000000   0.000000   0.000000   0.000000   0.000000
    10  H    0.000000   0.000000   0.000000   0.000000   0.000000   0.000000
    11  H    0.000000   0.000000   0.000000   0.000000   0.000000   0.000000
    12  O    0.000000   0.000000   0.000000   0.000000   0.000000   0.000000
    13  H    0.000000   0.000000   0.000000   0.000000   0.000000   0.000000
    14  H    0.000000   0.000000   0.000000   0.000000   0.000000   0.000000
    15  H    0.000000   0.000000   0.000000   0.000000   0.000000   0.000000
    16  C    0.000000   0.000000   0.000000   0.000000   0.000000   0.000000
    17  H    0.000000   0.000000   0.000000   0.000000   0.000000   0.000000
    18  H    0.000000   0.000000   0.000000   0.000000   0.000000   0.000000
    19  H    0.860450   0.000000   0.000000   0.000000   0.000000   0.000000
    20  O    0.000000   6.572309   0.000000   0.000000   0.000000   0.000000
    21  H    0.000000   0.000000   0.677386   0.000000   0.000000   0.000000
    22  O    0.000000   0.000000   0.000000   6.632204   0.000000   0.000000
    23  H    0.000000   0.000000   0.000000   0.000000   0.624254   0.000000
    24  H    0.000000   0.000000   0.000000   0.000000   0.000000   0.682445
 Mulliken atomic charges:
              1
     1  C   -0.509714
     2  H    0.212411
     3  H    0.211809
     4  H    0.218275
     5  C    0.824869
     6  O   -0.773010
     7  O   -0.457183
     8  C   -0.198784
     9  H    0.177095
    10  H    0.143374
    11  H    0.120900
    12  O   -0.227993
    13  H    0.402326
    14  H    0.400535
    15  H    0.399315
    16  C   -0.172349
    17  H    0.169197
    18  H    0.107974
    19  H    0.139550
    20  O   -0.572309
    21  H    0.322614
    22  O   -0.632204
    23  H    0.375746
    24  H    0.317555
 Sum of Mulliken atomic charges =   1.00000
 Mulliken charges with hydrogens summed into heavy atoms:
              1
     1  C    0.132781
     5  C    0.824869
     6  O   -0.773010
     7  O   -0.457183
     8  C    0.242585
    12  O    0.974184
    16  C    0.244372
    20  O   -0.249695
    22  O    0.061097
 Sum of Mulliken charges with hydrogens summed into heavy atoms =   1.00000
 Charge=              1.0000 electrons
 Dipole moment (field-independent basis, Debye):
    X=              9.4775    Y=             -8.2920    Z=              2.8280  Tot=             12.9065
 N-N= 3.732265927787D+02 E-N=-5.596652351044D+02  KE=-1.369204484383D+02
 Calling FoFJK, ICntrl=      2127 FMM=F ISym2X=0 I1Cent= 0 IOpClX= 0 NMat=1 NMatS=1 NMatT=0.
 ***** Axes restored to original set *****
 -------------------------------------------------------------------
 Center     Atomic                   Forces (Hartrees/Bohr)
 Number     Number              X              Y              Z
 -------------------------------------------------------------------
      1        6           0.043084817    0.042986913    0.037684259
      2        1           0.008820124   -0.017537888   -0.001642105
      3        1          -0.001743466    0.005621603   -0.017052219
      4        1          -0.016076452   -0.003497195    0.006135958
      5        6          -0.036282768    0.101812457    0.053431557
      6        8           0.098209211   -0.170658344   -0.019940190
      7        8          -0.053758459    0.013161490   -0.074086000
      8        6          -0.013971253    0.041709028   -0.010200793
      9        1           0.015975885   -0.009373687   -0.001625454
     10        1           0.006504464    0.014511665   -0.004247689
     11        1          -0.008238467    0.004705620    0.014007952
     12        8          -0.013367185    0.027332568    0.013790415
     13        1          -0.005856620   -0.001239198    0.000936785
     14        1          -0.003137745   -0.004487001   -0.000732219
     15        1           0.009302893    0.005244487   -0.004869374
     16        6           0.000578016    0.006410243   -0.001025725
     17        1          -0.007660151   -0.014232866    0.001167353
     18        1          -0.004178069    0.010970633    0.009968098
     19        1           0.015988465   -0.002991363   -0.003258112
     20        8          -0.016303060   -0.022521747    0.011589824
     21        1           0.011301295   -0.013241393   -0.011657158
     22        8          -0.036356691    0.008899402    0.001662820
     23        1           0.007941731   -0.016935065    0.004434262
     24        1          -0.000776515   -0.006650363   -0.004472244
 -------------------------------------------------------------------
 Cartesian Forces:  Max     0.170658344 RMS     0.032631511

 GradGradGradGradGradGradGradGradGradGradGradGradGradGradGradGradGradGrad
 Berny optimization.
 Internal  Forces:  Max     0.166993006 RMS     0.016151083
 Search for a saddle point.
 Step number   1 out of a maximum of  144
 All quantities printed in internal units (Hartrees-Bohrs-Radians)
 Swaping is turned off.
 Second derivative matrix not updated -- first step.
     Eigenvalues ---    0.00237   0.01164   0.01268   0.01295   0.01559
     Eigenvalues ---    0.01617   0.02066   0.02090   0.02234   0.02494
     Eigenvalues ---    0.02718   0.03053   0.03546   0.04058   0.04304
     Eigenvalues ---    0.04566   0.04862   0.05585   0.05689   0.05720
     Eigenvalues ---    0.05720   0.06033   0.06818   0.07831   0.07831
     Eigenvalues ---    0.07852   0.08568   0.08942   0.09751   0.09974
     Eigenvalues ---    0.10188   0.12098   0.13152   0.13275   0.13829
     Eigenvalues ---    0.15471   0.16000   0.16000   0.16000   0.16000
     Eigenvalues ---    0.16000   0.16000   0.16753   0.21102   0.27700
     Eigenvalues ---    0.28519   0.30554   0.32312   0.34060   0.37230
     Eigenvalues ---    0.37230   0.37230   0.37230   0.37230   0.37230
     Eigenvalues ---    0.37230   0.37230   0.40989   0.44003   0.55473
     Eigenvalues --- 1000.000001000.000001000.000001000.000001000.00000
     Eigenvalues --- 1000.000001000.000001000.000001000.000001000.00000
     Eigenvalues --- 1000.000001000.000001000.000001000.000001000.00000
     Eigenvalues --- 1000.000001000.000001000.000001000.000001000.00000
     Eigenvalues --- 1000.000001000.000001000.000001000.000001000.00000
     Eigenvalues --- 1000.000001000.000001000.000001000.000001000.00000
     Eigenvalues --- 1000.000001000.000001000.000001000.000001000.00000
     Eigenvalues --- 1000.000001000.000001000.000001000.000001000.00000
     Eigenvalues --- 1000.000001000.000001000.000001000.000001000.00000
     Eigenvalues --- 1000.000001000.000001000.000001000.000001000.00000
     Eigenvalues --- 1000.000001000.000001000.000001000.000001000.00000
     Eigenvalues --- 1000.000001000.000001000.000001000.000001000.00000
     Eigenvalues --- 1000.000001000.000001000.000001000.000001000.00000
     Eigenvalues --- 1000.000001000.000001000.000001000.000001000.00000
     Eigenvalues --- 1000.000001000.000001000.000001000.000001000.00000
     Eigenvalues --- 1000.000001000.000001000.000001000.000001000.00000
     Eigenvalues --- 1000.000001000.000001000.000001000.000001000.00000
     Eigenvalues --- 1000.000001000.000001000.000001000.000001000.00000
     Eigenvalues --- 1000.000001000.000001000.000001000.000001000.00000
     Eigenvalues --- 1000.000001000.000001000.000001000.000001000.00000
     Eigenvalues --- 1000.000001000.000001000.000001000.000001000.00000
     Eigenvalues --- 1000.000001000.000001000.000001000.000001000.00000
     Eigenvalues --- 1000.000001000.00000
 Eigenvectors required to have negative eigenvalues:
                          D5        D6        D4        D8        D9
   1                    0.33333   0.33333   0.33333   0.33333   0.33333
                          D7        D2        D3        D1        D67
   1                    0.33333   0.33333   0.33333   0.33333   0.00000
 RFO step:  Lambda0=2.378321040D-03 Lambda=-1.06232382D-01.
 Linear search not attempted -- option 19 set.
 Maximum step size (   0.300) exceeded in Quadratic search.
    -- Step size scaled by   0.020
 Iteration  1 RMS(Cart)=  0.02498164 RMS(Int)=  0.00117185
 Iteration  2 RMS(Cart)=  0.00120747 RMS(Int)=  0.00000153
 Iteration  3 RMS(Cart)=  0.00000190 RMS(Int)=  0.00000033
 Iteration  4 RMS(Cart)=  0.00000000 RMS(Int)=  0.00000033
 Iteration  1 RMS(Cart)=  0.00000006 RMS(Int)=  0.00000003
 Variable       Old X    -DE/DX   Delta X   Delta X   Delta X     New X
                                 (Linear)    (Quad)   (Total)
    R1        2.02201   0.01939   0.00000   0.00079   0.00079   2.02280
    R2        2.02201   0.01800   0.00000   0.00073   0.00073   2.02274
    R3        2.02201   0.01754   0.00000   0.00072   0.00072   2.02272
    R4        2.91018  -0.04766   0.00000  -0.00238  -0.00238   2.90780
    R5        2.66451  -0.16699   0.00000  -0.00597  -0.00597   2.65855
    R6        2.98577  -0.07812   0.00000  -0.00479  -0.00479   2.98098
    R7        3.66684  -0.00454   0.00000  -0.00044  -0.00043   3.66641
    R8        3.68504   0.02487   0.00000   0.00234   0.00234   3.68738
    R9        4.67628   0.00652   0.00000   0.00095   0.00095   4.67722
   R10        4.10587  -0.00033   0.00000  -0.00002  -0.00002   4.10585
   R11        4.37298   0.00339   0.00000   0.00032   0.00032   4.37330
   R12        2.70231   0.00866   0.00000   0.00037   0.00037   2.70268
   R13        4.89383   0.01650   0.00000   0.00000   0.00000   4.89383
   R14        3.21907   0.00136   0.00000  -0.00037  -0.00037   3.21870
   R15        4.15992   0.00209   0.00000   0.00076   0.00076   4.16068
   R16        4.46198   0.00990   0.00000   0.00074   0.00074   4.46272
   R17        2.02201   0.01555   0.00000   0.00063   0.00063   2.02264
   R18        2.02201   0.01623   0.00000   0.00066   0.00066   2.02267
   R19        2.02201   0.01653   0.00000   0.00082   0.00082   2.02283
   R20        3.55813   0.01997   0.00000   0.00231   0.00231   3.56044
   R21        3.75250   0.00602   0.00000   0.00106   0.00106   3.75357
   R22        1.81414  -0.00146   0.00000   0.00000   0.00000   1.81414
   R23        1.81414   0.00074   0.00000   0.00000   0.00000   1.81414
   R24        1.79524   0.00489   0.00000   0.00000   0.00000   1.79524
   R25        2.02201   0.01416   0.00000   0.00058   0.00058   2.02258
   R26        2.02201   0.01520   0.00000   0.00062   0.00062   2.02263
   R27        2.02201   0.01635   0.00000   0.00067   0.00067   2.02267
   R28        2.70231   0.00830   0.00000   0.00031   0.00031   2.70262
   R29        1.81414   0.01580   0.00000   0.00032   0.00032   1.81446
   R30        5.10661   0.00254   0.00000   0.00000   0.00000   5.10661
   R31        3.53890  -0.00359   0.00000  -0.00026  -0.00026   3.53864
   R32        1.81414   0.00705   0.00000   0.00036   0.00036   1.81450
   R33        1.81414  -0.00640   0.00000  -0.00019  -0.00019   1.81395
    A1        1.91063  -0.00213   0.00000  -0.00012  -0.00012   1.91051
    A2        1.91063  -0.00141   0.00000  -0.00011  -0.00011   1.91053
    A3        1.91063   0.00527   0.00000   0.00040   0.00040   1.91104
    A4        1.91063  -0.00022   0.00000  -0.00005  -0.00005   1.91058
    A5        1.91063   0.00102   0.00000   0.00008   0.00008   1.91071
    A6        1.91063  -0.00254   0.00000  -0.00020  -0.00020   1.91043
    A7        2.09836   0.01150   0.00000   0.00084   0.00084   2.09920
    A8        2.09241  -0.01057   0.00000  -0.00074  -0.00074   2.09168
    A9        1.71527  -0.00832   0.00000  -0.00045  -0.00045   1.71483
   A10        2.09241  -0.00093   0.00000  -0.00010  -0.00010   2.09231
   A11        1.65702  -0.00471   0.00000  -0.00020  -0.00020   1.65683
   A12        2.73439  -0.00063   0.00000   0.00000   0.00000   2.73439
   A13        2.84237  -0.00103   0.00000  -0.00006  -0.00006   2.84231
   A14        2.28122  -0.00070   0.00000   0.00001   0.00001   2.28123
   A15        2.64131  -0.00118   0.00000   0.00001   0.00001   2.64132
   A16        0.72068   0.00002   0.00000  -0.00004  -0.00004   0.72064
   A17        0.68371   0.00264   0.00000   0.00011   0.00011   0.68381
   A18        0.72965   0.00299   0.00000   0.00017   0.00017   0.72982
   A19        2.09439  -0.00353   0.00000  -0.00063  -0.00063   2.09376
   A20        2.26623   0.00234   0.00000  -0.00007  -0.00007   2.26617
   A21        1.40111   0.00430   0.00000   0.00002   0.00002   1.40113
   A22        1.48251   0.00048   0.00000   0.00014   0.00014   1.48265
   A23        1.42322   0.00446   0.00000   0.00059   0.00059   1.42380
   A24        1.33073  -0.00194   0.00000  -0.00009  -0.00009   1.33063
   A25        0.91573  -0.00252   0.00000  -0.00010  -0.00010   0.91563
   A26        1.91063  -0.00743   0.00000  -0.00089  -0.00089   1.90974
   A27        1.91063   0.00354   0.00000   0.00047   0.00047   1.91110
   A28        1.91063   0.00065   0.00000   0.00008   0.00008   1.91072
   A29        1.91063  -0.00104   0.00000  -0.00013  -0.00013   1.91050
   A30        1.91063   0.00239   0.00000   0.00022   0.00022   1.91085
   A31        1.09459  -0.00022   0.00000   0.00005   0.00005   1.09464
   A32        1.91063   0.00190   0.00000   0.00025   0.00025   1.91089
   A33        2.77785  -0.00154   0.00000  -0.00019  -0.00019   2.77766
   A34        1.59387  -0.00039   0.00000  -0.00007  -0.00007   1.59380
   A35        1.86877  -0.00606   0.00000  -0.00025  -0.00025   1.86853
   A36        2.09440   0.00433   0.00000   0.00037   0.00037   2.09476
   A37        2.01014   0.01230   0.00000   0.00096   0.00096   2.01109
   A38        1.99816   0.00863   0.00000   0.00083   0.00083   1.99898
   A39        1.91063   0.00278   0.00000   0.00017   0.00017   1.91080
   A40        1.91063   0.00253   0.00000   0.00010   0.00010   1.91073
   A41        1.91063  -0.01313   0.00000  -0.00102  -0.00102   1.90961
   A42        1.91063   0.00140   0.00000   0.00022   0.00022   1.91086
   A43        1.91063   0.00488   0.00000   0.00040   0.00040   1.91103
   A44        1.91063   0.00154   0.00000   0.00013   0.00013   1.91076
   A45        1.91116   0.00651   0.00000   0.00053   0.00053   1.91169
   A46        2.18423   0.00170   0.00000   0.00008   0.00008   2.18431
   A47        1.33145  -0.00120   0.00000   0.00016   0.00016   1.33161
   A48        2.64991   0.00025   0.00000   0.00010   0.00010   2.65001
   A49        2.49415   0.00076   0.00000   0.00013   0.00013   2.49427
   A50        1.56234  -0.01529   0.00000  -0.00137  -0.00137   1.56097
   A51        2.17768  -0.01554   0.00000  -0.00124  -0.00124   2.17644
   A52        2.09654   0.00788   0.00000   0.00046   0.00046   2.09699
   A53        1.01952   0.00503   0.00000   0.00005   0.00005   1.01957
   A54        2.20880   0.00724   0.00000   0.00040   0.00040   2.20921
   A55        1.43085   0.00964   0.00000   0.00078   0.00078   1.43162
   A56        1.28810   0.00224   0.00000   0.00022   0.00022   1.28832
   A57        1.91114   0.00476   0.00000   0.00050   0.00050   1.91164
   A58        1.29883   0.00357   0.00000  -0.00013  -0.00013   1.29870
   A59        2.49687  -0.00048   0.00000  -0.00010  -0.00010   2.49677
    D1        3.14159   0.00042   0.00000   0.09974   0.09974  -3.04185
    D2        0.00000   0.00809   0.00000   0.10077   0.10077   0.10076
    D3       -1.38423  -0.00736   0.00000   0.09945   0.09945  -1.28478
    D4        1.04719  -0.00083   0.00000   0.09959   0.09959   1.14679
    D5       -2.09440   0.00685   0.00000   0.10062   0.10062  -1.99378
    D6        2.80456  -0.00861   0.00000   0.09930   0.09930   2.90386
    D7       -1.04720   0.00036   0.00000   0.09974   0.09974  -0.94746
    D8        2.09439   0.00804   0.00000   0.10076   0.10076   2.19515
    D9        0.71016  -0.00742   0.00000   0.09945   0.09945   0.80961
   D10        2.28857  -0.00058   0.00000   0.00028   0.00028   2.28885
   D11        1.21403  -0.00161   0.00000   0.00009   0.00009   1.21412
   D12        2.17393  -0.00263   0.00000   0.00008   0.00008   2.17401
   D13       -3.03483   0.00248   0.00000   0.00046   0.00046  -3.03437
   D14       -0.85302  -0.00825   0.00000  -0.00075  -0.00075  -0.85377
   D15       -1.92756  -0.00928   0.00000  -0.00093  -0.00093  -1.92849
   D16       -0.96766  -0.01031   0.00000  -0.00094  -0.00094  -0.96861
   D17        0.10676  -0.00519   0.00000  -0.00056  -0.00056   0.10620
   D18        0.49841   0.00962   0.00000   0.00074   0.00074   0.49915
   D19       -0.57614   0.00858   0.00000   0.00056   0.00056  -0.57558
   D20        0.38376   0.00756   0.00000   0.00054   0.00054   0.38431
   D21        1.45819   0.01268   0.00000   0.00092   0.00092   1.45911
   D22       -2.69240  -0.01079   0.00000  -0.00129  -0.00129  -2.69369
   D23       -1.07240  -0.00332   0.00000  -0.00041  -0.00041  -1.07281
   D24       -1.39623  -0.00143   0.00000  -0.00035  -0.00035  -1.39658
   D25        0.44919  -0.00314   0.00000  -0.00027  -0.00027   0.44892
   D26        2.06919   0.00433   0.00000   0.00061   0.00061   2.06980
   D27        1.74536   0.00622   0.00000   0.00067   0.00067   1.74603
   D28        2.81053  -0.00083   0.00000  -0.00004  -0.00004   2.81050
   D29        1.41635  -0.00389   0.00000  -0.00018  -0.00018   1.41616
   D30       -2.23543  -0.00929   0.00000  -0.00072  -0.00072  -2.23614
   D31       -1.35125   0.00835   0.00000   0.00070   0.00070  -1.35056
   D32       -2.74544   0.00530   0.00000   0.00055   0.00055  -2.74489
   D33       -0.11403  -0.00011   0.00000   0.00002   0.00002  -0.11401
   D34        2.91313   0.00795   0.00000   0.00067   0.00067   2.91380
   D35       -1.27566   0.00428   0.00000   0.00025   0.00025  -1.27541
   D36        0.81873   0.00917   0.00000   0.00090   0.00090   0.81963
   D37        2.04624   0.00002   0.00000   0.00012   0.00012   2.04636
   D38       -2.14255  -0.00364   0.00000  -0.00030  -0.00030  -2.14285
   D39       -0.04815   0.00124   0.00000   0.00035   0.00035  -0.04780
   D40        1.62922  -0.00124   0.00000   0.00006   0.00006   1.62928
   D41       -2.55957  -0.00490   0.00000  -0.00036  -0.00036  -2.55993
   D42       -0.46517  -0.00002   0.00000   0.00029   0.00029  -0.46488
   D43        0.15196   0.00030   0.00000  -0.00004  -0.00004   0.15192
   D44        0.61696   0.00117   0.00000  -0.00001  -0.00001   0.61695
   D45        0.55856  -0.00098   0.00000  -0.00008  -0.00008   0.55848
   D46        0.02871  -0.00065   0.00000  -0.00020  -0.00020   0.02850
   D47        0.55724   0.00025   0.00000  -0.00044  -0.00044   0.55680
   D48        1.32025   0.00576   0.00000   0.00081   0.00081   1.32106
   D49        1.84878   0.00665   0.00000   0.00057   0.00057   1.84936
   D50        2.69487   0.00093   0.00000   0.00002   0.00002   2.69489
   D51       -1.44907  -0.00535   0.00000  -0.00083  -0.00083  -1.44990
   D52       -0.13355  -0.00090   0.00000   0.00000   0.00000  -0.13355
   D53        0.05563  -0.00160   0.00000  -0.00041  -0.00041   0.05522
   D54       -2.03877   0.00564   0.00000   0.00050   0.00050  -2.03827
   D55        2.15002   0.00429   0.00000   0.00038   0.00037   2.15040
   D56       -0.96656   0.00485   0.00000   0.00049   0.00049  -0.96607
   D57        1.45725   0.00517   0.00000   0.00061   0.00061   1.45786
   D58        2.72259   0.00337   0.00000   0.00060   0.00060   2.72319
   D59       -0.48531   0.00219   0.00000   0.00033   0.00033  -0.48498
   D60       -0.62254   0.01231   0.00000   0.00085   0.00086  -0.62168
   D61       -0.03999   0.00117   0.00000   0.00030   0.00030  -0.03969
   D62        1.56350  -0.00181   0.00000  -0.00025  -0.00025   1.56325
   D63       -2.74614  -0.00091   0.00000  -0.00006  -0.00006  -2.74620
   D64        3.13965   0.00260   0.00000   0.00040   0.00040   3.14005
   D65        1.62713  -0.00087   0.00000  -0.00020  -0.00020   1.62693
   D66        1.04526   0.00425   0.00000   0.00057   0.00057   1.04583
   D67       -0.46726   0.00078   0.00000  -0.00003  -0.00003  -0.46729
   D68       -1.04914  -0.00139   0.00000  -0.00003  -0.00003  -1.04917
   D69       -2.56166  -0.00486   0.00000  -0.00062  -0.00062  -2.56228
   D70       -2.72078  -0.00110   0.00000  -0.00009  -0.00009  -2.72087
   D71       -1.09060  -0.00066   0.00000  -0.00027  -0.00027  -1.09087
   D72       -0.57691  -0.00002   0.00000   0.00000   0.00000  -0.57691
   D73        1.05326   0.00042   0.00000  -0.00017  -0.00017   1.05309
   D74        2.01595   0.00642   0.00000   0.00067   0.00067   2.01662
   D75        2.00590   0.00030   0.00000   0.00040   0.00040   2.00630
   D76        0.19408  -0.00064   0.00000  -0.00008  -0.00008   0.19400
   D77        0.18404  -0.00675   0.00000  -0.00035  -0.00035   0.18368
   D78        0.45244  -0.00726   0.00000  -0.00068  -0.00068   0.45176
   D79       -1.00994   0.00140   0.00000   0.00019   0.00019  -1.00975
   D80       -2.22452  -0.00387   0.00000  -0.00025  -0.00025  -2.22477
         Item               Value     Threshold  Converged?
 Maximum Force            0.166993     0.000450     NO 
 RMS     Force            0.016335     0.000300     NO 
 Maximum Displacement     0.169004     0.001800     NO 
 RMS     Displacement     0.024976     0.001200     NO 
 Predicted change in Energy=-1.906439D-03
 GradGradGradGradGradGradGradGradGradGradGradGradGradGradGradGradGradGrad

                          Input orientation:                          
 ---------------------------------------------------------------------
 Center     Atomic      Atomic             Coordinates (Angstroms)
 Number     Number       Type             X           Y           Z
 ---------------------------------------------------------------------
      1          6           0       -1.812795    0.514652   -2.470986
      2          1           0       -1.254310   -0.393543   -2.375741
      3          1           0       -1.771027    0.854363   -3.485177
      4          1           0       -2.831886    0.337222   -2.195880
      5          6           0       -1.211249    1.586834   -1.545624
      6          8           0       -1.843832    2.835125   -1.401349
      7          8           0        0.121048    1.285106   -0.756733
      8          6           0        0.399790    1.974941    0.464697
      9          1           0        1.210864    1.491897    0.969122
     10          1           0        0.666848    2.988843    0.249446
     11          1           0       -0.469172    1.959543    1.089594
     12          8           0       -2.597296    4.362544   -0.449102
     13          1           0       -3.455419    4.614191   -0.798243
     14          1           0       -2.538584    3.874632    0.375576
     15          1           0       -1.904014    4.998427   -0.581434
     16          6           0        0.932519   -0.714499    2.146281
     17          1           0        0.665050   -1.590780    2.699586
     18          1           0        0.687136    0.156916    2.717269
     19          1           0        1.983948   -0.725841    1.946225
     20          8           0        0.212206   -0.694078    0.910924
     21          1           0        0.449871    0.092193    0.413709
     22          8           0       -1.845793    0.881775    0.146872
     23          1           0       -1.427054    0.167325    0.632858
     24          1           0       -2.322018    1.449168    0.757351
 ---------------------------------------------------------------------
                    Distance matrix (angstroms):
                    1          2          3          4          5
     1  C    0.000000
     2  H    1.070418   0.000000
     3  H    1.070388   1.747888   0.000000
     4  H    1.070379   1.747889   1.747897   0.000000
     5  C    1.538742   2.147753   2.147494   2.147284   0.000000
     6  O    2.555324   3.423635   2.875944   2.801258   1.406843
     7  O    2.696667   2.707519   3.348118   3.418983   1.577467
     8  C    3.955529   4.051401   4.644313   4.494943   2.605276
     9  H    4.683147   4.562902   5.398046   5.262541   3.492791
    10  H    4.435200   4.692866   4.944354   5.025121   2.952143
    11  H    4.070720   4.261690   4.883111   4.359894   2.762963
    12  O    4.416982   5.304330   4.712515   4.394255   3.290600
    13  H    4.722552   5.693046   4.918647   4.542536   3.841844
    14  H    4.463088   5.237980   4.961510   4.383113   3.269075
    15  H    4.866515   5.719702   5.061884   5.019383   3.612278
    16  C    5.510600   5.033281   6.440792   5.842193   4.849952
    17  H    6.107976   5.556642   7.082689   6.317542   5.624903
    18  H    5.770236   5.478227   6.708154   6.046078   4.880654
    19  H    5.955320   5.410742   6.789478   6.440450   5.267899
    20  O    4.122981   3.611531   5.065233   4.470157   3.641897
    21  H    3.690474   3.304725   4.551329   4.199991   2.971911
    22  O    2.643681   2.887883   3.632922   2.599500   1.940180
    23  H    3.146947   3.065303   4.189098   3.162937   2.609092
    24  H    3.399233   3.788383   4.319308   3.196554   2.560557
                    6          7          8          9         10
     6  O    0.000000
     7  O    2.584345   0.000000
     8  C    3.042348   1.430196   0.000000
     9  H    4.093234   2.051594   1.070336   0.000000
    10  H    3.008698   2.052562   1.070350   1.747780   0.000000
    11  H    2.976765   2.052352   1.070433   1.748064   1.748098
    12  O    1.951279   4.117602   3.939315   4.975345   3.609662
    13  H    2.475081   4.886270   4.839761   5.886127   4.553294
    14  H    2.172722   3.880903   3.500116   4.481974   3.327961
    15  H    2.314251   4.233244   3.942508   4.939883   3.367212
    16  C    5.735297   3.617236   3.216304   2.516220   4.169329
    17  H    6.534584   4.529106   4.216569   3.577054   5.193855
    18  H    5.526447   3.696209   2.908928   2.261080   3.756378
    19  H    6.207949   3.849713   3.463915   2.543767   4.291001
    20  O    4.693524   2.589703   2.712557   2.403994   3.769370
    21  H    4.009886   1.703262   1.884104   1.687235   2.909405
    22  O    2.492502   2.201736   2.517670   3.223584   3.280795
    23  H    3.380659   2.361571   2.575483   2.970889   3.534458
    24  H    2.609506   2.878877   2.787529   3.539481   3.400277
                   11         12         13         14         15
    11  H    0.000000
    12  O    3.559623   0.000000
    13  H    4.419135   0.960000   0.000000
    14  H    2.908583   0.960000   1.662945   0.000000
    15  H    3.753122   0.950000   1.612917   1.606694   0.000000
    16  C    3.198722   6.706114   7.504608   6.020305   6.937137
    17  H    4.059966   7.483262   8.228896   6.747964   7.796334
    18  H    2.689951   6.204894   7.027580   5.450707   6.405914
    19  H    3.736697   7.253762   8.101528   6.639623   7.366991
    20  O    2.745523   5.942423   6.674611   5.359716   6.253809
    21  H    2.188254   5.316537   6.096604   4.820702   5.531927
    22  O    1.986301   3.610497   4.173136   3.080496   4.180986
    23  H    2.082833   4.487757   5.092831   3.878894   5.004153
    24  H    1.950361   3.165291   3.704300   2.464859   3.816322
                   16         17         18         19         20
    16  C    0.000000
    17  H    1.070306   0.000000
    18  H    1.070328   1.747924   0.000000
    19  H    1.070353   1.747902   1.747996   0.000000
    20  O    1.430166   2.051452   2.052469   2.052298   0.000000
    21  H    1.971169   2.846741   2.316651   2.317581   0.960172
    22  O    3.776870   4.351346   3.680773   4.526480   2.702304
    23  H    2.938647   3.426251   2.968953   3.762661   1.872568
    24  H    4.147600   4.683603   3.816569   4.968444   3.322555
                   21         22         23         24
    21  H    0.000000
    22  O    2.442277   0.000000
    23  H    1.891169   0.960190   0.000000
    24  H    3.105292   0.959900   1.568305   0.000000
 Stoichiometry    C4H15O5(1+)
 Framework group  C1[X(C4H15O5)]
 Deg. of freedom    66
 Full point group                 C1      NOp   1
 Largest Abelian subgroup         C1      NOp   1
 Largest concise Abelian subgroup C1      NOp   1
                         Standard orientation:                         
 ---------------------------------------------------------------------
 Center     Atomic      Atomic             Coordinates (Angstroms)
 Number     Number       Type             X           Y           Z
 ---------------------------------------------------------------------
      1          6           0        0.984982    2.379264    0.001560
      2          1           0        0.012796    2.809101   -0.124504
      3          1           0        1.688266    2.901215   -0.613818
      4          1           0        1.280119    2.459376    1.027321
      5          6           0        0.947584    0.896159   -0.406764
      6          8           0        2.077262    0.079496   -0.216777
      7          8           0       -0.362658    0.289697   -1.042273
      8          6           0       -0.632152   -1.109898   -0.924094
      9          1           0       -1.647274   -1.301731   -1.203997
     10          1           0        0.024882   -1.655930   -1.568923
     11          1           0       -0.476593   -1.419017    0.088860
     12          8           0        3.071833   -1.497118    0.359944
     13          1           0        3.877954   -1.261504    0.824977
     14          1           0        2.304407   -1.798748    0.851551
     15          1           0        3.198508   -1.928189   -0.477093
     16          6           0       -3.584778   -0.687788    0.279416
     17          1           0       -4.311128   -0.481573    1.037997
     18          1           0       -3.130496   -1.638178    0.469126
     19          1           0       -4.063563   -0.705638   -0.677715
     20          8           0       -2.581788    0.331637    0.291991
     21          1           0       -1.928427    0.147540   -0.387094
     22          8           0       -0.015813    0.208303    1.130447
     23          1           0       -0.969034    0.245695    1.239697
     24          1           0        0.335079   -0.534976    1.626249
 ---------------------------------------------------------------------
 Rotational constants (GHZ):      2.0430171      0.7579888      0.6500075
 Standard basis: VSTO-6G (5D, 7F)
 There are    51 symmetry adapted basis functions of A   symmetry.
 Integral buffers will be    262144 words long.
 Regular integral format.
 Two-electron integral symmetry is turned off.
    51 basis functions,   306 primitive gaussians,    51 cartesian basis functions
    30 alpha electrons       30 beta electrons
       nuclear repulsion energy       373.3264287090 Hartrees.
 Do NDO integrals.
 One-electron integrals computed using PRISM.
 NBasis=    51 RedAO= F  NBF=    51
 NBsUse=    51 1.00D-04 NBFU=    51
 Initial guess read from the read-write file.
 B after Tr=     0.000000    0.000000    0.000000
         Rot=    1.000000    0.000000    0.000000    0.000000 Ang=   0.00 deg.
 Initial guess orbital symmetries:
       Occupied  (A) (A) (A) (A) (A) (A) (A) (A) (A) (A) (A) (A)
                 (A) (A) (A) (A) (A) (A) (A) (A) (A) (A) (A) (A)
                 (A) (A) (A) (A) (A) (A)
       Virtual   (A) (A) (A) (A) (A) (A) (A) (A) (A) (A) (A) (A)
                 (A) (A) (A) (A) (A) (A) (A) (A) (A)
 Requested convergence on RMS density matrix=1.00D-08 within 128 cycles.
 Requested convergence on MAX density matrix=1.00D-06.
 Requested convergence on             energy=1.00D-06.
 No special actions if energy rises.
 Overlap will be assumed to be unity.
 Keep J ints in memory in canonical form, NReq=887204.
 SCF Done:  E(RPM6) = -0.862365831739E-02 A.U. after   11 cycles
             Convg  =    0.2559D-08             -V/T =  0.9999
 Calling FoFJK, ICntrl=      2127 FMM=F ISym2X=0 I1Cent= 0 IOpClX= 0 NMat=1 NMatS=1 NMatT=0.
 ***** Axes restored to original set *****
 -------------------------------------------------------------------
 Center     Atomic                   Forces (Hartrees/Bohr)
 Number     Number              X              Y              Z
 -------------------------------------------------------------------
      1        6           0.042302470    0.042227217    0.037729376
      2        1           0.007938716   -0.017769423   -0.000530514
      3        1          -0.000268044    0.004731531   -0.017308106
      4        1          -0.016342326   -0.002197512    0.004909941
      5        6          -0.035696266    0.101089022    0.053088618
      6        8           0.097656201   -0.168980700   -0.019962337
      7        8          -0.053564061    0.013174051   -0.073491467
      8        6          -0.013918873    0.041542884   -0.009977883
      9        1           0.015819431   -0.009265157   -0.001689937
     10        1           0.006387831    0.014298387   -0.004243029
     11        1          -0.008028189    0.004659237    0.013841350
     12        8          -0.013403636    0.027318629    0.013892407
     13        1          -0.005737729   -0.001283464    0.000927839
     14        1          -0.003102865   -0.004459065   -0.000834964
     15        1           0.009211754    0.005160689   -0.004886794
     16        6           0.000569271    0.006397315   -0.001046364
     17        1          -0.007560301   -0.014092136    0.001119153
     18        1          -0.004139703    0.010785613    0.009838480
     19        1           0.015764923   -0.002940035   -0.003256895
     20        8          -0.016149544   -0.022405457    0.011630458
     21        1           0.011319745   -0.013202025   -0.011557293
     22        8          -0.036140933    0.008758165    0.001865370
     23        1           0.007853246   -0.016827047    0.004403028
     24        1          -0.000771119   -0.006720720   -0.004460436
 -------------------------------------------------------------------
 Cartesian Forces:  Max     0.168980700 RMS     0.032361872

 GradGradGradGradGradGradGradGradGradGradGradGradGradGradGradGradGradGrad
 Berny optimization.
 Internal  Forces:  Max     0.165377892 RMS     0.016002366
 Search for a saddle point.
 Step number   2 out of a maximum of  144
 All quantities printed in internal units (Hartrees-Bohrs-Radians)
 Swaping is turned off.
 Update second derivatives using D2CorX and points    1    2
     Eigenvalues ---    0.00003   0.01164   0.01268   0.01295   0.01559
     Eigenvalues ---    0.01617   0.02066   0.02090   0.02235   0.02494
     Eigenvalues ---    0.02719   0.03052   0.03548   0.04059   0.04298
     Eigenvalues ---    0.04566   0.04864   0.05586   0.05688   0.05714
     Eigenvalues ---    0.05720   0.06032   0.06815   0.07828   0.07837
     Eigenvalues ---    0.07851   0.08573   0.08942   0.09753   0.09955
     Eigenvalues ---    0.10187   0.12099   0.13146   0.13274   0.13825
     Eigenvalues ---    0.15468   0.15983   0.16000   0.16000   0.16000
     Eigenvalues ---    0.16000   0.16000   0.16753   0.21071   0.27693
     Eigenvalues ---    0.28518   0.30556   0.32316   0.34064   0.37225
     Eigenvalues ---    0.37230   0.37230   0.37230   0.37230   0.37230
     Eigenvalues ---    0.37230   0.37230   0.40989   0.43905   0.55472
     Eigenvalues --- 1000.000001000.000001000.000001000.000001000.00000
     Eigenvalues --- 1000.000001000.000001000.000001000.000001000.00000
     Eigenvalues --- 1000.000001000.000001000.000001000.000001000.00000
     Eigenvalues --- 1000.000001000.000001000.000001000.000001000.00000
     Eigenvalues --- 1000.000001000.000001000.000001000.000001000.00000
     Eigenvalues --- 1000.000001000.000001000.000001000.000001000.00000
     Eigenvalues --- 1000.000001000.000001000.000001000.000001000.00000
     Eigenvalues --- 1000.000001000.000001000.000001000.000001000.00000
     Eigenvalues --- 1000.000001000.000001000.000001000.000001000.00000
     Eigenvalues --- 1000.000001000.000001000.000001000.000001000.00000
     Eigenvalues --- 1000.000001000.000001000.000001000.000001000.00000
     Eigenvalues --- 1000.000001000.000001000.000001000.000001000.00000
     Eigenvalues --- 1000.000001000.000001000.000001000.000001000.00000
     Eigenvalues --- 1000.000001000.000001000.000001000.000001000.00000
     Eigenvalues --- 1000.000001000.000001000.000001000.000001000.00000
     Eigenvalues --- 1000.000001000.000001000.000001000.000001000.00000
     Eigenvalues --- 1000.000001000.000001000.000001000.000001000.00000
     Eigenvalues --- 1000.000001000.000001000.000001000.000001000.00000
     Eigenvalues --- 1000.000001000.000001000.000001000.000001000.00000
     Eigenvalues --- 1000.000001000.000001000.000001000.000001000.00000
     Eigenvalues --- 1000.000001000.000001000.000001000.000001000.00000
     Eigenvalues --- 1000.000001000.000001000.000001000.000001000.00000
     Eigenvalues --- 1000.000001000.00000
 Eigenvectors required to have negative eigenvalues:
                          D6        D5        D4        D9        D8
   1                    0.33716   0.33658   0.33587   0.33467   0.33410
                          D7        D3        D2        D1        R5
   1                    0.33338   0.32967   0.32910   0.32838  -0.00764
 RFO step:  Lambda0=2.278080189D-03 Lambda=-1.05047409D-01.
 Linear search not attempted -- option 19 set.
 Maximum step size (   0.300) exceeded in Quadratic search.
    -- Step size scaled by   0.261
 Iteration  1 RMS(Cart)=  0.03014337 RMS(Int)=  0.00088118
 Iteration  2 RMS(Cart)=  0.00091188 RMS(Int)=  0.00005583
 Iteration  3 RMS(Cart)=  0.00000118 RMS(Int)=  0.00005582
 Iteration  4 RMS(Cart)=  0.00000000 RMS(Int)=  0.00005582
 Iteration  1 RMS(Cart)=  0.00000871 RMS(Int)=  0.00000457
 Iteration  2 RMS(Cart)=  0.00000246 RMS(Int)=  0.00000498
 Iteration  3 RMS(Cart)=  0.00000097 RMS(Int)=  0.00000529
 Variable       Old X    -DE/DX   Delta X   Delta X   Delta X     New X
                                 (Linear)    (Quad)   (Total)
    R1        2.02280   0.01917   0.00000   0.01034   0.01034   2.03314
    R2        2.02274   0.01789   0.00000   0.00946   0.00946   2.03220
    R3        2.02272   0.01719   0.00000   0.00960   0.00960   2.03232
    R4        2.90780  -0.04687   0.00000  -0.03173  -0.03173   2.87607
    R5        2.65855  -0.16538   0.00000  -0.07757  -0.07757   2.58098
    R6        2.98098  -0.07760   0.00000  -0.06226  -0.06227   2.91871
    R7        3.66641  -0.00434   0.00000  -0.00675  -0.00649   3.65991
    R8        3.68738   0.02494   0.00000   0.02993   0.03017   3.71755
    R9        4.67722   0.00643   0.00000   0.01301   0.01291   4.69013
   R10        4.10585  -0.00038   0.00000   0.00018   0.00009   4.10594
   R11        4.37330   0.00332   0.00000   0.00480   0.00470   4.37800
   R12        2.70268   0.00858   0.00000   0.00481   0.00478   2.70746
   R13        4.89383   0.01641   0.00000   0.00000   0.00000   4.89382
   R14        3.21870   0.00139   0.00000  -0.00476  -0.00478   3.21392
   R15        4.16068   0.00209   0.00000   0.01015   0.01001   4.17069
   R16        4.46272   0.00987   0.00000   0.00965   0.00955   4.47227
   R17        2.02264   0.01537   0.00000   0.00829   0.00829   2.03093
   R18        2.02267   0.01599   0.00000   0.00874   0.00874   2.03141
   R19        2.02283   0.01633   0.00000   0.01080   0.01078   2.03361
   R20        3.56044   0.01986   0.00000   0.03075   0.03075   3.59119
   R21        3.75357   0.00604   0.00000   0.01394   0.01399   3.76756
   R22        1.81414  -0.00151   0.00000   0.00000   0.00000   1.81414
[...]
    13  H    5.355407   6.136827   5.995262   5.183424   4.267975
    14  H    3.710051   4.496532   4.366838   3.688030   2.575370
    15  H    4.814626   5.743238   5.188563   4.827976   3.685928
    16  C    4.711464   3.860472   5.409031   5.361893   4.616751
    17  H    5.150665   4.199021   5.889244   5.638139   5.270576
    18  H    5.221541   4.525981   5.995952   5.852251   4.832636
    19  H    5.100054   4.225275   5.610650   5.883926   5.058115
    20  O    3.283029   2.466635   4.038210   3.931904   3.290525
    21  H    2.974216   2.379220   3.619795   3.817991   2.714556
    22  O    2.957587   2.971222   4.025081   3.099763   2.325621
    23  H    3.041561   2.682742   4.087234   3.322143   2.709476
    24  H    3.838521   3.850217   4.918721   3.821656   3.193721
                    6          7          8          9         10
     6  O    0.000000
     7  O    2.265361   0.000000
     8  C    2.761042   1.455643   0.000000
     9  H    3.794822   2.006391   1.100272   0.000000
    10  H    2.699683   2.098505   1.092502   1.802521   0.000000
    11  H    2.886889   2.079860   1.095024   1.812681   1.827639
    12  O    2.288054   4.231052   4.064177   5.153611   3.766623
    13  H    3.163275   4.984685   4.707470   5.768131   4.474679
    14  H    1.503859   3.381257   3.391944   4.487278   3.286126
    15  H    2.461061   4.441386   4.241086   5.308418   3.710745
    16  C    5.632703   3.701282   4.102153   3.673866   5.163843
    17  H    6.293364   4.545881   5.069239   4.735985   6.142315
    18  H    5.684540   3.842993   3.860471   3.395933   4.931984
    19  H    6.137860   4.006704   4.398398   3.757662   5.379254
    20  O    4.369121   2.589703   3.382542   3.286502   4.398475
    21  H    3.799010   1.748924   2.549657   2.433093   3.517435
    22  O    2.712483   2.497638   2.959560   3.648197   3.738430
    23  H    3.425060   2.546227   3.154655   3.567832   4.100343
    24  H    3.345626   3.366013   3.562863   4.235311   4.312514
                   11         12         13         14         15
    11  H    0.000000
    12  O    3.715038   0.000000
    13  H    4.176783   0.960000   0.000000
    14  H    3.059453   0.960000   1.693108   0.000000
    15  H    4.100502   0.950002   1.652558   1.620743   0.000000
    16  C    4.094645   7.237348   7.706265   6.337921   7.734584
    17  H    4.959017   7.855812   8.269664   6.940725   8.425092
    18  H    3.655830   7.015551   7.394967   6.179546   7.546076
    19  H    4.620285   7.888943   8.433377   6.996410   8.287876
    20  O    3.456896   6.137825   6.683463   5.200288   6.612379
    21  H    2.859370   5.663626   6.290751   4.751721   6.030369
    22  O    2.425020   3.790378   4.166758   2.892242   4.482072
    23  H    2.760425   4.756749   5.159831   3.840447   5.400305
    24  H    2.783758   3.877786   4.033605   3.104132   4.690702
                   16         17         18         19         20
    16  C    0.000000
    17  H    1.099351   0.000000
    18  H    1.092985   1.806166   0.000000
    19  H    1.095327   1.796664   1.808379   0.000000
    20  O    1.438076   2.010293   2.085592   2.085371   0.000000
    21  H    2.011694   2.855399   2.427475   2.347589   0.984275
    22  O    3.755607   4.164020   3.690352   4.619629   2.702304
    23  H    2.827637   3.173467   2.893723   3.736910   1.811090
    24  H    4.178525   4.470186   3.939739   5.141074   3.350515
                   21         22         23         24
    21  H    0.000000
    22  O    2.696945   0.000000
    23  H    2.070740   1.000801   0.000000
    24  H    3.472331   0.949360   1.564200   0.000000
 Stoichiometry    C4H15O5(1+)
 Framework group  C1[X(C4H15O5)]
 Deg. of freedom    66
 Full point group                 C1      NOp   1
 Largest Abelian subgroup         C1      NOp   1
 Largest concise Abelian subgroup C1      NOp   1
                         Standard orientation:                         
 ---------------------------------------------------------------------
 Center     Atomic      Atomic             Coordinates (Angstroms)
 Number     Number       Type             X           Y           Z
 ---------------------------------------------------------------------
      1          6           0        0.120631    2.168296   -0.043558
      2          1           0       -0.974038    2.141445    0.148663
      3          1           0        0.275489    2.907224   -0.853275
      4          1           0        0.595704    2.583268    0.864700
      5          6           0        0.670616    0.843544   -0.391774
      6          8           0        1.844055    0.474386   -0.269812
      7          8           0       -0.257807    0.079241   -1.016738
      8          6           0        0.042294   -1.297406   -1.382362
      9          1           0       -0.868144   -1.606653   -1.917213
     10          1           0        0.907922   -1.328221   -2.048170
     11          1           0        0.180793   -1.877220   -0.463825
     12          8           0        3.580413   -0.771752    0.547130
     13          1           0        3.965610   -1.339259    1.218813
     14          1           0        2.677318   -0.447534    0.577140
     15          1           0        4.065922   -0.583741   -0.247501
     16          6           0       -3.650654   -0.637482    0.277244
     17          1           0       -4.238713   -0.304434    1.144329
     18          1           0       -3.372645   -1.690016    0.374705
     19          1           0       -4.211375   -0.454978   -0.645808
     20          8           0       -2.476726    0.192351    0.313738
     21          1           0       -1.925453    0.056436   -0.490267
     22          8           0       -0.085391   -0.387268    1.430881
     23          1           0       -1.074116   -0.243309    1.373423
     24          1           0        0.062040   -0.970381    2.165406
 ---------------------------------------------------------------------
 Rotational constants (GHZ):      2.0768368      0.6999920      0.6651000
 Standard basis: VSTO-6G (5D, 7F)
 There are    51 symmetry adapted basis functions of A   symmetry.
 Integral buffers will be    262144 words long.
 Regular integral format.
 Two-electron integral symmetry is turned off.
    51 basis functions,   306 primitive gaussians,    51 cartesian basis functions
    30 alpha electrons       30 beta electrons
       nuclear repulsion energy       369.7767662541 Hartrees.
 Do NDO integrals.
 One-electron integrals computed using PRISM.
 NBasis=    51 RedAO= F  NBF=    51
 NBsUse=    51 1.00D-04 NBFU=    51
 Initial guess read from the read-write file.
 B after Tr=     0.000000    0.000000    0.000000
         Rot=    1.000000    0.000000    0.000000    0.000000 Ang=   0.00 deg.
 Initial guess orbital symmetries:
       Occupied  (A) (A) (A) (A) (A) (A) (A) (A) (A) (A) (A) (A)
                 (A) (A) (A) (A) (A) (A) (A) (A) (A) (A) (A) (A)
                 (A) (A) (A) (A) (A) (A)
       Virtual   (A) (A) (A) (A) (A) (A) (A) (A) (A) (A) (A) (A)
                 (A) (A) (A) (A) (A) (A) (A) (A) (A)
 Requested convergence on RMS density matrix=1.00D-08 within 128 cycles.
 Requested convergence on MAX density matrix=1.00D-06.
 Requested convergence on             energy=1.00D-06.
 No special actions if energy rises.
 Overlap will be assumed to be unity.
 Keep J ints in memory in canonical form, NReq=887204.
 SCF Done:  E(RPM6) = -0.145636698115     A.U. after   12 cycles
             Convg  =    0.2162D-08             -V/T =  0.9989
 Calling FoFJK, ICntrl=      2127 FMM=F ISym2X=0 I1Cent= 0 IOpClX= 0 NMat=1 NMatS=1 NMatT=0.
 ***** Axes restored to original set *****
 -------------------------------------------------------------------
 Center     Atomic                   Forces (Hartrees/Bohr)
 Number     Number              X              Y              Z
 -------------------------------------------------------------------
      1        6           0.000308550    0.000105545   -0.000011729
      2        1          -0.000028034   -0.000218529   -0.000014072
      3        1           0.000002252    0.000025321   -0.000078149
      4        1          -0.000004701    0.000003315    0.000037405
      5        6          -0.002645650   -0.000292523   -0.001287524
      6        8           0.003774408    0.000313013   -0.001863596
      7        8           0.000615204    0.004691995   -0.002409056
      8        6          -0.000064919    0.002431277    0.000082094
      9        1           0.000191908   -0.000013702   -0.000483557
     10        1          -0.000666854    0.000378032   -0.000254145
     11        1          -0.000042521    0.000862155   -0.000165538
     12        8          -0.018210355    0.037467029    0.001746303
     13        1           0.004781215   -0.003182639   -0.004321052
     14        1           0.011305183   -0.036386393    0.006693370
     15        1           0.000406737    0.001731048   -0.002319703
     16        6          -0.000066800   -0.000436162    0.000027795
     17        1          -0.000159432   -0.000014855   -0.000031476
     18        1           0.000079648    0.000145423    0.000150965
     19        1           0.000144482   -0.000157332   -0.000078709
     20        8          -0.007591057   -0.001096220    0.001786504
     21        1           0.006577484   -0.004205340    0.001008013
     22        8           0.002150171    0.000630132    0.002735474
     23        1           0.000003899   -0.000289945   -0.000610926
     24        1          -0.000860819   -0.002490647   -0.000338691
 -------------------------------------------------------------------
 Cartesian Forces:  Max     0.037467029 RMS     0.006974248

 GradGradGradGradGradGradGradGradGradGradGradGradGradGradGradGradGradGrad
 Berny optimization.
 Internal  Forces:  Max     0.027640354 RMS     0.002661810
 Search for a saddle point.
 Step number  27 out of a maximum of  144
 All quantities printed in internal units (Hartrees-Bohrs-Radians)
 Swaping is turned off.
 Update second derivatives using D2CorX and points   24   25   26   27
     Eigenvalues ---   -0.02319   0.00369   0.01106   0.01190   0.01307
     Eigenvalues ---    0.01393   0.01554   0.01634   0.01933   0.02280
     Eigenvalues ---    0.02565   0.03083   0.03361   0.03772   0.03957
     Eigenvalues ---    0.04106   0.04782   0.04976   0.05185   0.05277
     Eigenvalues ---    0.05783   0.06610   0.06882   0.07473   0.07807
     Eigenvalues ---    0.08049   0.08420   0.09069   0.09859   0.10794
     Eigenvalues ---    0.11864   0.12327   0.12874   0.13071   0.14086
     Eigenvalues ---    0.15266   0.15988   0.15998   0.16000   0.16004
     Eigenvalues ---    0.16063   0.16122   0.17121   0.22849   0.24363
     Eigenvalues ---    0.30613   0.30845   0.34067   0.36147   0.36873
     Eigenvalues ---    0.37227   0.37230   0.37230   0.37230   0.37231
     Eigenvalues ---    0.37252   0.37265   0.41019   0.55315   0.64634
     Eigenvalues --- 1000.000001000.000001000.000001000.000001000.00000
     Eigenvalues --- 1000.000001000.000001000.000001000.000001000.00000
     Eigenvalues --- 1000.000001000.000001000.000001000.000001000.00000
     Eigenvalues --- 1000.000001000.000001000.000001000.000001000.00000
     Eigenvalues --- 1000.000001000.000001000.000001000.000001000.00000
     Eigenvalues --- 1000.000001000.000001000.000001000.000001000.00000
     Eigenvalues --- 1000.000001000.000001000.000001000.000001000.00000
     Eigenvalues --- 1000.000001000.000001000.000001000.000001000.00000
     Eigenvalues --- 1000.000001000.000001000.000001000.000001000.00000
     Eigenvalues --- 1000.000001000.000001000.000001000.000001000.00000
     Eigenvalues --- 1000.000001000.000001000.000001000.000001000.00000
     Eigenvalues --- 1000.000001000.000001000.000001000.000001000.00000
     Eigenvalues --- 1000.000001000.000001000.000001000.000001000.00000
     Eigenvalues --- 1000.000001000.000001000.000001000.000001000.00000
     Eigenvalues --- 1000.000001000.000001000.000001000.000001000.00000
     Eigenvalues --- 1000.000001000.000001000.000001000.000001000.00000
     Eigenvalues --- 1000.000001000.000001000.000001000.000001000.00000
     Eigenvalues --- 1000.000001000.000001000.000001000.000001000.00000
     Eigenvalues --- 1000.000001000.000001000.000001000.000001000.00000
     Eigenvalues --- 1000.000001000.000001000.000001000.000001000.00000
     Eigenvalues --- 1000.000001000.000001000.000001000.000001000.00000
     Eigenvalues --- 1000.000001000.000001000.000001000.000001000.00000
     Eigenvalues --- 1000.000001000.00000
 Eigenvectors required to have negative eigenvalues:
                          D11       D19       D15       D17       D21
   1                    0.36425   0.35051   0.34375  -0.31392  -0.30716
                          D13       D14       D18       D10       D12
   1                   -0.29342  -0.23131  -0.22455  -0.21081   0.17203
 RFO step:  Lambda0=4.444778800D-06 Lambda=-2.80668713D-03.
 Linear search not attempted -- option 19 set.
 Maximum step size (   0.300) exceeded in Quadratic search.
    -- Step size scaled by   0.485
 Iteration  1 RMS(Cart)=  0.04169940 RMS(Int)=  0.00281231
 Iteration  2 RMS(Cart)=  0.00269954 RMS(Int)=  0.00071156
 Iteration  3 RMS(Cart)=  0.00005240 RMS(Int)=  0.00071057
 Iteration  4 RMS(Cart)=  0.00000187 RMS(Int)=  0.00071057
 Iteration  5 RMS(Cart)=  0.00000005 RMS(Int)=  0.00071057
 Iteration  1 RMS(Cart)=  0.00011181 RMS(Int)=  0.00023710
 Iteration  2 RMS(Cart)=  0.00003893 RMS(Int)=  0.00024117
 Iteration  3 RMS(Cart)=  0.00002504 RMS(Int)=  0.00024739
 Iteration  4 RMS(Cart)=  0.00002328 RMS(Int)=  0.00025440
 Iteration  5 RMS(Cart)=  0.00002314 RMS(Int)=  0.00026257
 Iteration  6 RMS(Cart)=  0.00002303 RMS(Int)=  0.00027210
 Iteration  7 RMS(Cart)=  0.00002281 RMS(Int)=  0.00028295
 Iteration  8 RMS(Cart)=  0.00002253 RMS(Int)=  0.00029497
 Iteration  9 RMS(Cart)=  0.00002223 RMS(Int)=  0.00030800
 Iteration 10 RMS(Cart)=  0.00002193 RMS(Int)=  0.00032187
 Iteration 11 RMS(Cart)=  0.00002162 RMS(Int)=  0.00033644
 Iteration 12 RMS(Cart)=  0.00002132 RMS(Int)=  0.00035157
 Iteration 13 RMS(Cart)=  0.00002103 RMS(Int)=  0.00036714
 Iteration 14 RMS(Cart)=  0.00002074 RMS(Int)=  0.00038307
 Iteration 15 RMS(Cart)=  0.00002045 RMS(Int)=  0.00039927
 Iteration 16 RMS(Cart)=  0.00002018 RMS(Int)=  0.00041568
 Iteration 17 RMS(Cart)=  0.00001990 RMS(Int)=  0.00043224
 Iteration 18 RMS(Cart)=  0.00001964 RMS(Int)=  0.00044890
 Iteration 19 RMS(Cart)=  0.00001938 RMS(Int)=  0.00046563
 Iteration 20 RMS(Cart)=  0.00001912 RMS(Int)=  0.00048238
 Iteration 21 RMS(Cart)=  0.00001887 RMS(Int)=  0.00049913
 Iteration 22 RMS(Cart)=  0.00001862 RMS(Int)=  0.00051587
 Iteration 23 RMS(Cart)=  0.00001838 RMS(Int)=  0.00053256
 Iteration 24 RMS(Cart)=  0.00001814 RMS(Int)=  0.00054918
 Iteration 25 RMS(Cart)=  0.00001790 RMS(Int)=  0.00056574
 Iteration 26 RMS(Cart)=  0.00001767 RMS(Int)=  0.00058221
 Iteration 27 RMS(Cart)=  0.00001745 RMS(Int)=  0.00059858
 Iteration 28 RMS(Cart)=  0.00001723 RMS(Int)=  0.00061485
 Iteration 29 RMS(Cart)=  0.00001701 RMS(Int)=  0.00063100
 Iteration 30 RMS(Cart)=  0.00001679 RMS(Int)=  0.00064703
 Iteration 31 RMS(Cart)=  0.00001658 RMS(Int)=  0.00066294
 Iteration 32 RMS(Cart)=  0.00001637 RMS(Int)=  0.00067872
 Iteration 33 RMS(Cart)=  0.00001617 RMS(Int)=  0.00069437
 Iteration 34 RMS(Cart)=  0.00001597 RMS(Int)=  0.00070988
 Iteration 35 RMS(Cart)=  0.00001577 RMS(Int)=  0.00072525
 Iteration 36 RMS(Cart)=  0.00001558 RMS(Int)=  0.00074048
 Iteration 37 RMS(Cart)=  0.00001538 RMS(Int)=  0.00075557
 Iteration 38 RMS(Cart)=  0.00001520 RMS(Int)=  0.00077051
 Iteration 39 RMS(Cart)=  0.00001501 RMS(Int)=  0.00078531
 Iteration 40 RMS(Cart)=  0.00001483 RMS(Int)=  0.00079996
 Iteration 41 RMS(Cart)=  0.00001465 RMS(Int)=  0.00081447
 Iteration 42 RMS(Cart)=  0.00001447 RMS(Int)=  0.00082883
 Iteration 43 RMS(Cart)=  0.00001429 RMS(Int)=  0.00084305
 Iteration 44 RMS(Cart)=  0.00001412 RMS(Int)=  0.00085712
 Iteration 45 RMS(Cart)=  0.00001395 RMS(Int)=  0.00087104
 Iteration 46 RMS(Cart)=  0.00001378 RMS(Int)=  0.00088481
 Iteration 47 RMS(Cart)=  0.00001362 RMS(Int)=  0.00089844
 Iteration 48 RMS(Cart)=  0.00001345 RMS(Int)=  0.00091193
 Iteration 49 RMS(Cart)=  0.00001329 RMS(Int)=  0.00092527
 Iteration 50 RMS(Cart)=  0.00001314 RMS(Int)=  0.00093847
 Iteration 51 RMS(Cart)=  0.00001298 RMS(Int)=  0.00095153
 Iteration 52 RMS(Cart)=  0.00001283 RMS(Int)=  0.00096444
 Iteration 53 RMS(Cart)=  0.00001267 RMS(Int)=  0.00097722
 Iteration 54 RMS(Cart)=  0.00001252 RMS(Int)=  0.00098985
 Iteration 55 RMS(Cart)=  0.00001238 RMS(Int)=  0.00100235
 Iteration 56 RMS(Cart)=  0.00001223 RMS(Int)=  0.00101471
 Iteration 57 RMS(Cart)=  0.00001209 RMS(Int)=  0.00102693
 Iteration 58 RMS(Cart)=  0.00001194 RMS(Int)=  0.00103901
 Iteration 59 RMS(Cart)=  0.00001180 RMS(Int)=  0.00105097
 Iteration 60 RMS(Cart)=  0.00001166 RMS(Int)=  0.00106278
 Iteration 61 RMS(Cart)=  0.00001153 RMS(Int)=  0.00107447
 Iteration 62 RMS(Cart)=  0.00001139 RMS(Int)=  0.00108603
 Iteration 63 RMS(Cart)=  0.00001126 RMS(Int)=  0.00109745
 Iteration 64 RMS(Cart)=  0.00001113 RMS(Int)=  0.00110875
 Iteration 65 RMS(Cart)=  0.00001100 RMS(Int)=  0.00111992
 Iteration 66 RMS(Cart)=  0.00001087 RMS(Int)=  0.00113096
 Iteration 67 RMS(Cart)=  0.00001074 RMS(Int)=  0.00114188
 Iteration 68 RMS(Cart)=  0.00001062 RMS(Int)=  0.00115267
 Iteration 69 RMS(Cart)=  0.00001049 RMS(Int)=  0.00116335
 Iteration 70 RMS(Cart)=  0.00001037 RMS(Int)=  0.00117390
 Iteration 71 RMS(Cart)=  0.00001025 RMS(Int)=  0.00118433
 Iteration 72 RMS(Cart)=  0.00001013 RMS(Int)=  0.00119464
 Iteration 73 RMS(Cart)=  0.00001001 RMS(Int)=  0.00120483
 Iteration 74 RMS(Cart)=  0.00000990 RMS(Int)=  0.00121491
 Iteration 75 RMS(Cart)=  0.00000978 RMS(Int)=  0.00122487
 Iteration 76 RMS(Cart)=  0.00000967 RMS(Int)=  0.00123472
 Iteration 77 RMS(Cart)=  0.00000956 RMS(Int)=  0.00124446
 Iteration 78 RMS(Cart)=  0.00000945 RMS(Int)=  0.00125408
 Iteration 79 RMS(Cart)=  0.00000934 RMS(Int)=  0.00126359
 Iteration 80 RMS(Cart)=  0.00000923 RMS(Int)=  0.00127300
 Iteration 81 RMS(Cart)=  0.00000912 RMS(Int)=  0.00128229
 Iteration 82 RMS(Cart)=  0.00000902 RMS(Int)=  0.00129148
 Iteration 83 RMS(Cart)=  0.00000891 RMS(Int)=  0.00130057
 Iteration 84 RMS(Cart)=  0.00000881 RMS(Int)=  0.00130954
 Iteration 85 RMS(Cart)=  0.00000871 RMS(Int)=  0.00131842
 Iteration 86 RMS(Cart)=  0.00000861 RMS(Int)=  0.00132719
 Iteration 87 RMS(Cart)=  0.00000851 RMS(Int)=  0.00133586
 Iteration 88 RMS(Cart)=  0.00000841 RMS(Int)=  0.00134443
 Iteration 89 RMS(Cart)=  0.00000831 RMS(Int)=  0.00135290
 Iteration 90 RMS(Cart)=  0.00000822 RMS(Int)=  0.00136127
 Iteration 91 RMS(Cart)=  0.00000812 RMS(Int)=  0.00136955
 Iteration 92 RMS(Cart)=  0.00000803 RMS(Int)=  0.00137773
 Iteration 93 RMS(Cart)=  0.00000794 RMS(Int)=  0.00138582
 Iteration 94 RMS(Cart)=  0.00000785 RMS(Int)=  0.00139381
 Iteration 95 RMS(Cart)=  0.00000776 RMS(Int)=  0.00140171
 Iteration 96 RMS(Cart)=  0.00000767 RMS(Int)=  0.00140951
 Iteration 97 RMS(Cart)=  0.00000758 RMS(Int)=  0.00141723
 Iteration 98 RMS(Cart)=  0.00000749 RMS(Int)=  0.00142485
 Iteration 99 RMS(Cart)=  0.00000740 RMS(Int)=  0.00143239
 Iteration100 RMS(Cart)=  0.00000732 RMS(Int)=  0.00143984
 New curvilinear step not converged.
 Error imposing constraints
 Error termination via Lnk1e in C:\G09W\l103.exe at Thu Oct 01 18:24:37 2015.
 Job cpu time:  0 days  0 hours  0 minutes 13.0 seconds.
 File lengths (MBytes):  RWF=      5 Int=      0 D2E=      0 Chk=      3 Scr=      1
