 Entering Link 1 = C:\G09W\l1.exe PID=      4316.
  
 Copyright (c) 1988,1990,1992,1993,1995,1998,2003,2009, Gaussian, Inc.
                  All Rights Reserved.
  
 This is part of the Gaussian(R) 09 program.  It is based on
 the Gaussian(R) 03 system (copyright 2003, Gaussian, Inc.),
 the Gaussian(R) 98 system (copyright 1998, Gaussian, Inc.),
 the Gaussian(R) 94 system (copyright 1995, Gaussian, Inc.),
 the Gaussian 92(TM) system (copyright 1992, Gaussian, Inc.),
 the Gaussian 90(TM) system (copyright 1990, Gaussian, Inc.),
 the Gaussian 88(TM) system (copyright 1988, Gaussian, Inc.),
 the Gaussian 86(TM) system (copyright 1986, Carnegie Mellon
 University), and the Gaussian 82(TM) system (copyright 1983,
 Carnegie Mellon University). Gaussian is a federally registered
 trademark of Gaussian, Inc.
  
 This software contains proprietary and confidential information,
 including trade secrets, belonging to Gaussian, Inc.
  
 This software is provided under written license and may be
 used, copied, transmitted, or stored only in accord with that
 written license.
  
 The following legend is applicable only to US Government
 contracts under FAR:
  
                    RESTRICTED RIGHTS LEGEND
  
 Use, reproduction and disclosure by the US Government is
 subject to restrictions as set forth in subparagraphs (a)
 and (c) of the Commercial Computer Software - Restricted
 Rights clause in FAR 52.227-19.
  
 Gaussian, Inc.
 340 Quinnipiac St., Bldg. 40, Wallingford CT 06492
  
  
 ---------------------------------------------------------------
 Warning -- This program may not be used in any manner that
 competes with the business of Gaussian, Inc. or will provide
 assistance to any competitor of Gaussian, Inc.  The licensee
 of this program is prohibited from giving any competitor of
 Gaussian, Inc. access to this program.  By using this program,
 the user acknowledges that Gaussian, Inc. is engaged in the
 business of creating and licensing software in the field of
 computational chemistry and represents and warrants to the
 licensee that it is not a competitor of Gaussian, Inc. and that
 it will not use this program in any manner prohibited above.
 ---------------------------------------------------------------
  

 Cite this work as:
 Gaussian 09, Revision A.02,
 M. J. Frisch, G. W. Trucks, H. B. Schlegel, G. E. Scuseria, 
 M. A. Robb, J. R. Cheeseman, G. Scalmani, V. Barone, B. Mennucci, 
 G. A. Petersson, H. Nakatsuji, M. Caricato, X. Li, H. P. Hratchian, 
 A. F. Izmaylov, J. Bloino, G. Zheng, J. L. Sonnenberg, M. Hada, 
 M. Ehara, K. Toyota, R. Fukuda, J. Hasegawa, M. Ishida, T. Nakajima, 
 Y. Honda, O. Kitao, H. Nakai, T. Vreven, J. A. Montgomery, Jr., 
 J. E. Peralta, F. Ogliaro, M. Bearpark, J. J. Heyd, E. Brothers, 
 K. N. Kudin, V. N. Staroverov, R. Kobayashi, J. Normand, 
 K. Raghavachari, A. Rendell, J. C. Burant, S. S. Iyengar, J. Tomasi, 
 M. Cossi, N. Rega, J. M. Millam, M. Klene, J. E. Knox, J. B. Cross, 
 V. Bakken, C. Adamo, J. Jaramillo, R. Gomperts, R. E. Stratmann, 
 O. Yazyev, A. J. Austin, R. Cammi, C. Pomelli, J. W. Ochterski, 
 R. L. Martin, K. Morokuma, V. G. Zakrzewski, G. A. Voth, 
 P. Salvador, J. J. Dannenberg, S. Dapprich, A. D. Daniels, 
 O. Farkas, J. B. Foresman, J. V. Ortiz, J. Cioslowski, 
 and D. J. Fox, Gaussian, Inc., Wallingford CT, 2009.
 
 ******************************************
 Gaussian 09:  IA32W-G09RevA.02 11-Jun-2009
                01-Oct-2015 
 ******************************************
 %chk=C:\Users\214584429\Google Drive\214584429 MONSURAT\Silva-2014remix\MEOHAC-H
 30all.chk
 --------------------------------
 # opt freq pm6 geom=connectivity
 --------------------------------
 1/14=-1,18=20,19=15,26=1,38=1,57=2/1,3;
 2/9=110,12=2,17=6,18=5,40=1/2;
 3/5=2,16=1,25=1,41=3900000,71=1/1,2,3;
 4/35=1/1;
 5/5=2,35=1,38=5/2;
 6/7=2,8=2,9=2,10=2,28=1/1;
 7//1,2,3,16;
 1/14=-1,18=20,19=15/3(2);
 2/9=110/2;
 99//99;
 2/9=110/2;
 3/5=2,16=1,25=1,41=3900000,71=1,135=20/1,2,3;
 4/5=5,16=3,35=1/1;
 5/5=2,35=1,38=5/2;
 7//1,2,3,16;
 1/14=-1,18=20,19=15/3(-5);
 2/9=110/2;
 6/7=2,8=2,9=2,10=2,19=2,28=1/1;
 99/9=1/99;
 -------------------
 Title Card Required
 -------------------
 Symbolic Z-matrix:
 Charge =  1 Multiplicity = 1
 C                     0.12063   2.1683   -0.04356 
 H                    -0.97404   2.14145   0.14866 
 H                     0.27549   2.90722  -0.85328 
 H                     0.5957    2.58327   0.8647 
 C                     0.67062   0.84354  -0.39177 
 O                     1.84406   0.47439  -0.26981 
 O                    -0.25781   0.07924  -1.01674 
 C                     0.04229  -1.29741  -1.38236 
 H                    -0.86814  -1.60665  -1.91721 
 H                     0.90792  -1.32822  -2.04817 
 H                     0.18079  -1.87722  -0.46383 
 O                     3.58041  -0.77175   0.54713 
 H                     3.96561  -1.33926   1.21881 
 H                     2.67732  -0.44753   0.57714 
 H                     4.06592  -0.58374  -0.2475 
 C                    -3.65065  -0.63748   0.27724 
 H                    -4.23871  -0.30443   1.14433 
 H                    -3.37265  -1.69002   0.37471 
 H                    -4.21138  -0.45498  -0.64581 
 O                    -2.47673   0.19235   0.31374 
 H                    -1.92545   0.05644  -0.49027 
 O                    -0.08539  -0.38727   1.43088 
 H                    -1.07412  -0.24331   1.37342 
 H                     0.06204  -0.97038   2.16541 
 

 GradGradGradGradGradGradGradGradGradGradGradGradGradGradGradGradGradGrad
 Berny optimization.
 Initialization pass.
                           ----------------------------
                           !    Initial Parameters    !
                           ! (Angstroms and Degrees)  !
 --------------------------                            --------------------------
 ! Name  Definition              Value          Derivative Info.                !
 --------------------------------------------------------------------------------
 ! R1    R(1,2)                  1.1117         estimate D2E/DX2                !
 ! R2    R(1,3)                  1.1071         estimate D2E/DX2                !
 ! R3    R(1,4)                  1.1058         estimate D2E/DX2                !
 ! R4    R(1,5)                  1.476          estimate D2E/DX2                !
 ! R5    R(5,6)                  1.2362         estimate D2E/DX2                !
 ! R6    R(5,7)                  1.3553         estimate D2E/DX2                !
 ! R7    R(5,22)                 2.3256         estimate D2E/DX2                !
 ! R8    R(6,14)                 1.5039         estimate D2E/DX2                !
 ! R9    R(7,8)                  1.4556         estimate D2E/DX2                !
 ! R10   R(7,21)                 1.7489         estimate D2E/DX2                !
 ! R11   R(8,9)                  1.1003         estimate D2E/DX2                !
 ! R12   R(8,10)                 1.0925         estimate D2E/DX2                !
 ! R13   R(8,11)                 1.095          estimate D2E/DX2                !
 ! R14   R(12,13)                0.96           estimate D2E/DX2                !
 ! R15   R(12,14)                0.96           estimate D2E/DX2                !
 ! R16   R(12,15)                0.95           estimate D2E/DX2                !
 ! R17   R(16,17)                1.0994         estimate D2E/DX2                !
 ! R18   R(16,18)                1.093          estimate D2E/DX2                !
 ! R19   R(16,19)                1.0953         estimate D2E/DX2                !
 ! R20   R(16,20)                1.4381         estimate D2E/DX2                !
 ! R21   R(20,21)                0.9843         estimate D2E/DX2                !
 ! R22   R(20,23)                1.8111         estimate D2E/DX2                !
 ! R23   R(22,23)                1.0008         estimate D2E/DX2                !
 ! R24   R(22,24)                0.9494         estimate D2E/DX2                !
 ! A1    A(2,1,3)              106.2787         estimate D2E/DX2                !
 ! A2    A(2,1,4)              106.862          estimate D2E/DX2                !
 ! A3    A(2,1,5)              112.7057         estimate D2E/DX2                !
 ! A4    A(3,1,4)              106.8678         estimate D2E/DX2                !
 ! A5    A(3,1,5)              111.9858         estimate D2E/DX2                !
 ! A6    A(4,1,5)              111.7457         estimate D2E/DX2                !
 ! A7    A(1,5,6)              126.7587         estimate D2E/DX2                !
 ! A8    A(1,5,7)              111.0808         estimate D2E/DX2                !
 ! A9    A(1,5,22)              99.7283         estimate D2E/DX2                !
 ! A10   A(6,5,7)              121.8282         estimate D2E/DX2                !
 ! A11   A(6,5,22)              94.1984         estimate D2E/DX2                !
 ! A12   A(7,5,22)              80.8074         estimate D2E/DX2                !
 ! A13   A(5,6,14)             139.8717         estimate D2E/DX2                !
 ! A14   A(5,7,8)              120.5271         estimate D2E/DX2                !
 ! A15   A(5,7,21)             121.4502         estimate D2E/DX2                !
 ! A16   A(8,7,21)             105.0618         estimate D2E/DX2                !
 ! A17   A(7,8,9)              102.5515         estimate D2E/DX2                !
 ! A18   A(7,8,10)             110.066          estimate D2E/DX2                !
 ! A19   A(7,8,11)             108.4299         estimate D2E/DX2                !
 ! A20   A(9,8,10)             110.5762         estimate D2E/DX2                !
 ! A21   A(9,8,11)             111.3212         estimate D2E/DX2                !
 ! A22   A(10,8,11)            113.3321         estimate D2E/DX2                !
 ! A23   A(13,12,14)           123.7272         estimate D2E/DX2                !
 ! A24   A(13,12,15)           119.813          estimate D2E/DX2                !
 ! A25   A(14,12,15)           116.1088         estimate D2E/DX2                !
 ! A26   A(6,14,12)            135.2897         estimate D2E/DX2                !
 ! A27   A(17,16,18)           110.9447         estimate D2E/DX2                !
 ! A28   A(17,16,19)           109.8989         estimate D2E/DX2                !
 ! A29   A(17,16,20)           103.9946         estimate D2E/DX2                !
 ! A30   A(18,16,19)           111.4574         estimate D2E/DX2                !
 ! A31   A(18,16,20)           110.2299         estimate D2E/DX2                !
 ! A32   A(19,16,20)           110.0676         estimate D2E/DX2                !
 ! A33   A(16,20,21)           110.9033         estimate D2E/DX2                !
 ! A34   A(16,20,23)           120.5469         estimate D2E/DX2                !
 ! A35   A(21,20,23)            90.6286         estimate D2E/DX2                !
 ! A36   A(7,21,20)            141.0909         estimate D2E/DX2                !
 ! A37   A(5,22,23)            101.5388         estimate D2E/DX2                !
 ! A38   A(5,22,24)            151.7584         estimate D2E/DX2                !
 ! A39   A(23,22,24)           106.6302         estimate D2E/DX2                !
 ! A40   A(20,23,22)           146.4398         estimate D2E/DX2                !
 ! D1    D(2,1,5,6)           -156.8196         estimate D2E/DX2                !
 ! D2    D(2,1,5,7)             29.7567         estimate D2E/DX2                !
 ! D3    D(2,1,5,22)           -54.065          estimate D2E/DX2                !
 ! D4    D(3,1,5,6)             83.4035         estimate D2E/DX2                !
 ! D5    D(3,1,5,7)            -90.0202         estimate D2E/DX2                !
 ! D6    D(3,1,5,22)          -173.8419         estimate D2E/DX2                !
 ! D7    D(4,1,5,6)            -36.46           estimate D2E/DX2                !
 ! D8    D(4,1,5,7)            150.1163         estimate D2E/DX2                !
 ! D9    D(4,1,5,22)            66.2946         estimate D2E/DX2                !
 ! D10   D(1,5,6,14)           108.7788         estimate D2E/DX2                !
 ! D11   D(7,5,6,14)           -78.4467         estimate D2E/DX2                !
 ! D12   D(22,5,6,14)            3.3337         estimate D2E/DX2                !
 ! D13   D(1,5,7,8)           -176.4169         estimate D2E/DX2                !
 ! D14   D(1,5,7,21)           -40.8327         estimate D2E/DX2                !
 ! D15   D(6,5,7,8)              9.7827         estimate D2E/DX2                !
 ! D16   D(6,5,7,21)           145.3669         estimate D2E/DX2                !
 ! D17   D(22,5,7,8)           -79.4631         estimate D2E/DX2                !
 ! D18   D(22,5,7,21)           56.1211         estimate D2E/DX2                !
 ! D19   D(1,5,22,23)           57.5986         estimate D2E/DX2                !
 ! D20   D(1,5,22,24)         -126.5489         estimate D2E/DX2                !
 ! D21   D(6,5,22,23)         -173.9833         estimate D2E/DX2                !
 ! D22   D(6,5,22,24)            1.8692         estimate D2E/DX2                !
 ! D23   D(7,5,22,23)          -52.3962         estimate D2E/DX2                !
 ! D24   D(7,5,22,24)          123.4563         estimate D2E/DX2                !
 ! D25   D(5,6,14,12)          170.634          estimate D2E/DX2                !
 ! D26   D(5,7,8,9)           -176.4054         estimate D2E/DX2                !
 ! D27   D(5,7,8,10)           -58.7179         estimate D2E/DX2                !
 ! D28   D(5,7,8,11)            65.766          estimate D2E/DX2                !
 ! D29   D(21,7,8,9)            41.7858         estimate D2E/DX2                !
 ! D30   D(21,7,8,10)          159.4733         estimate D2E/DX2                !
 ! D31   D(21,7,8,11)          -76.0428         estimate D2E/DX2                !
 ! D32   D(5,7,21,20)          -27.1275         estimate D2E/DX2                !
 ! D33   D(8,7,21,20)          114.2417         estimate D2E/DX2                !
 ! D34   D(13,12,14,6)         176.7527         estimate D2E/DX2                !
 ! D35   D(15,12,14,6)         -10.0809         estimate D2E/DX2                !
 ! D36   D(17,16,20,21)       -172.854          estimate D2E/DX2                !
 ! D37   D(17,16,20,23)         83.3166         estimate D2E/DX2                !
 ! D38   D(18,16,20,21)         68.1684         estimate D2E/DX2                !
 ! D39   D(18,16,20,23)        -35.661          estimate D2E/DX2                !
 ! D40   D(19,16,20,21)        -55.1768         estimate D2E/DX2                !
 ! D41   D(19,16,20,23)       -159.0062         estimate D2E/DX2                !
 ! D42   D(16,20,21,7)        -148.5647         estimate D2E/DX2                !
 ! D43   D(23,20,21,7)         -25.3161         estimate D2E/DX2                !
 ! D44   D(16,20,23,22)        129.2772         estimate D2E/DX2                !
 ! D45   D(21,20,23,22)         14.3927         estimate D2E/DX2                !
 ! D46   D(5,22,23,20)          22.3906         estimate D2E/DX2                !
 ! D47   D(24,22,23,20)       -155.5625         estimate D2E/DX2                !
 --------------------------------------------------------------------------------
 Trust Radius=3.00D-01 FncErr=1.00D-07 GrdErr=1.00D-07
 Number of steps in this run= 121 maximum allowed number of steps= 144.
 GradGradGradGradGradGradGradGradGradGradGradGradGradGradGradGradGradGrad

                          Input orientation:                          
 ---------------------------------------------------------------------
 Center     Atomic      Atomic             Coordinates (Angstroms)
 Number     Number       Type             X           Y           Z
 ---------------------------------------------------------------------
      1          6           0        0.120631    2.168296   -0.043558
      2          1           0       -0.974038    2.141445    0.148663
      3          1           0        0.275489    2.907224   -0.853275
      4          1           0        0.595704    2.583268    0.864700
      5          6           0        0.670616    0.843544   -0.391774
      6          8           0        1.844055    0.474386   -0.269812
      7          8           0       -0.257807    0.079241   -1.016738
      8          6           0        0.042294   -1.297406   -1.382362
      9          1           0       -0.868144   -1.606653   -1.917213
     10          1           0        0.907922   -1.328221   -2.048170
     11          1           0        0.180793   -1.877220   -0.463825
     12          8           0        3.580413   -0.771752    0.547130
     13          1           0        3.965610   -1.339259    1.218813
     14          1           0        2.677318   -0.447534    0.577140
     15          1           0        4.065922   -0.583741   -0.247501
     16          6           0       -3.650654   -0.637482    0.277244
     17          1           0       -4.238713   -0.304434    1.144329
     18          1           0       -3.372645   -1.690016    0.374705
     19          1           0       -4.211375   -0.454978   -0.645808
     20          8           0       -2.476726    0.192351    0.313738
     21          1           0       -1.925453    0.056436   -0.490267
     22          8           0       -0.085391   -0.387268    1.430881
     23          1           0       -1.074116   -0.243309    1.373423
     24          1           0        0.062040   -0.970381    2.165406
 ---------------------------------------------------------------------
                    Distance matrix (angstroms):
                    1          2          3          4          5
     1  C    0.000000
     2  H    1.111742   0.000000
     3  H    1.107085   1.775279   0.000000
     4  H    1.105816   1.781013   1.777336   0.000000
     5  C    1.476044   2.163679   2.151252   2.147319   0.000000
     6  O    2.427079   3.300887   2.952885   2.700533   1.236168
     7  O    2.335475   2.474638   2.882466   3.246297   1.355252
     8  C    3.716130   3.899059   4.244199   4.518316   2.441254
     9  H    4.328799   4.281039   4.776499   5.238065   3.270812
    10  H    4.106571   4.517348   4.445980   4.886925   2.741628
    11  H    4.067732   4.225925   4.801202   4.672588   2.765443
    12  O    4.578524   5.421118   5.139895   4.501722   3.457982
    13  H    5.355407   6.136827   5.995261   5.183424   4.267974
    14  H    3.710051   4.496533   4.366838   3.688030   2.575370
    15  H    4.814626   5.743238   5.188563   4.827976   3.685927
    16  C    4.711464   3.860472   5.409031   5.361893   4.616752
    17  H    5.150665   4.199021   5.889243   5.638138   5.270577
    18  H    5.221541   4.525981   5.995951   5.852251   4.832637
    19  H    5.100054   4.225275   5.610650   5.883926   5.058115
    20  O    3.283029   2.466635   4.038210   3.931904   3.290526
    21  H    2.974216   2.379219   3.619795   3.817990   2.714556
    22  O    2.957587   2.971223   4.025081   3.099764   2.325622
    23  H    3.041561   2.682742   4.087233   3.322143   2.709476
    24  H    3.838522   3.850217   4.918721   3.821656   3.193722
                    6          7          8          9         10
     6  O    0.000000
     7  O    2.265361   0.000000
     8  C    2.761043   1.455644   0.000000
     9  H    3.794822   2.006391   1.100271   0.000000
    10  H    2.699684   2.098506   1.092502   1.802522   0.000000
    11  H    2.886890   2.079861   1.095024   1.812681   1.827639
    12  O    2.288054   4.231052   4.064177   5.153611   3.766623
    13  H    3.163275   4.984685   4.707470   5.768131   4.474679
    14  H    1.503859   3.381257   3.391944   4.487277   3.286126
    15  H    2.461061   4.441385   4.241086   5.308417   3.710744
    16  C    5.632703   3.701282   4.102153   3.673867   5.163844
    17  H    6.293363   4.545881   5.069239   4.735984   6.142316
    18  H    5.684540   3.842994   3.860471   3.395933   4.931985
    19  H    6.137860   4.006704   4.398397   3.757661   5.379254
    20  O    4.369122   2.589703   3.382542   3.286502   4.398476
    21  H    3.799009   1.748924   2.549657   2.433093   3.517435
    22  O    2.712483   2.497638   2.959559   3.648196   3.738430
    23  H    3.425059   2.546226   3.154654   3.567831   4.100342
    24  H    3.345626   3.366014   3.562863   4.235311   4.312515
                   11         12         13         14         15
    11  H    0.000000
    12  O    3.715038   0.000000
    13  H    4.176783   0.959999   0.000000
    14  H    3.059452   0.959999   1.693108   0.000000
    15  H    4.100501   0.950003   1.652558   1.620742   0.000000
    16  C    4.094645   7.237347   7.706265   6.337921   7.734584
    17  H    4.959017   7.855811   8.269663   6.940725   8.425091
    18  H    3.655831   7.015551   7.394967   6.179546   7.546076
    19  H    4.620285   7.888942   8.433377   6.996410   8.287875
    20  O    3.456897   6.137825   6.683463   5.200289   6.612379
    21  H    2.859370   5.663625   6.290751   4.751720   6.030368
    22  O    2.425020   3.790378   4.166758   2.892243   4.482072
    23  H    2.760424   4.756748   5.159830   3.840447   5.400304
    24  H    2.783759   3.877785   4.033605   3.104132   4.690702
                   16         17         18         19         20
    16  C    0.000000
    17  H    1.099350   0.000000
    18  H    1.092985   1.806165   0.000000
    19  H    1.095327   1.796664   1.808379   0.000000
    20  O    1.438076   2.010292   2.085592   2.085371   0.000000
    21  H    2.011694   2.855399   2.427475   2.347590   0.984276
    22  O    3.755607   4.164019   3.690352   4.619628   2.702305
    23  H    2.827637   3.173467   2.893723   3.736909   1.811090
    24  H    4.178525   4.470186   3.939739   5.141074   3.350515
                   21         22         23         24
    21  H    0.000000
    22  O    2.696945   0.000000
    23  H    2.070740   1.000801   0.000000
    24  H    3.472331   0.949360   1.564200   0.000000
 Stoichiometry    C4H15O5(1+)
 Framework group  C1[X(C4H15O5)]
 Deg. of freedom    66
 Full point group                 C1      NOp   1
 Largest Abelian subgroup         C1      NOp   1
 Largest concise Abelian subgroup C1      NOp   1
                         Standard orientation:                         
 ---------------------------------------------------------------------
 Center     Atomic      Atomic             Coordinates (Angstroms)
 Number     Number       Type             X           Y           Z
 ---------------------------------------------------------------------
      1          6           0        0.120631    2.168296   -0.043558
      2          1           0       -0.974038    2.141445    0.148663
      3          1           0        0.275489    2.907224   -0.853275
      4          1           0        0.595704    2.583268    0.864700
      5          6           0        0.670616    0.843544   -0.391774
      6          8           0        1.844055    0.474386   -0.269812
      7          8           0       -0.257807    0.079241   -1.016738
      8          6           0        0.042294   -1.297406   -1.382362
      9          1           0       -0.868144   -1.606653   -1.917213
     10          1           0        0.907922   -1.328221   -2.048170
     11          1           0        0.180793   -1.877220   -0.463825
     12          8           0        3.580413   -0.771752    0.547130
     13          1           0        3.965610   -1.339259    1.218813
     14          1           0        2.677318   -0.447534    0.577140
     15          1           0        4.065922   -0.583741   -0.247501
     16          6           0       -3.650654   -0.637482    0.277244
     17          1           0       -4.238713   -0.304434    1.144329
     18          1           0       -3.372645   -1.690016    0.374705
     19          1           0       -4.211375   -0.454978   -0.645808
     20          8           0       -2.476726    0.192351    0.313738
     21          1           0       -1.925453    0.056436   -0.490267
     22          8           0       -0.085391   -0.387268    1.430881
     23          1           0       -1.074116   -0.243309    1.373423
     24          1           0        0.062040   -0.970381    2.165406
 ---------------------------------------------------------------------
 Rotational constants (GHZ):      2.0768364      0.6999920      0.6650999
 Standard basis: VSTO-6G (5D, 7F)
 There are    51 symmetry adapted basis functions of A   symmetry.
 Integral buffers will be    262144 words long.
 Regular integral format.
 Two-electron integral symmetry is turned off.
    51 basis functions,   306 primitive gaussians,    51 cartesian basis functions
    30 alpha electrons       30 beta electrons
       nuclear repulsion energy       369.7767631223 Hartrees.
 Do NDO integrals.
 One-electron integrals computed using PRISM.
 NBasis=    51 RedAO= F  NBF=    51
 NBsUse=    51 1.00D-04 NBFU=    51
 Simple Huckel Guess.
 Initial guess orbital symmetries:
       Occupied  (A) (A) (A) (A) (A) (A) (A) (A) (A) (A) (A) (A)
                 (A) (A) (A) (A) (A) (A) (A) (A) (A) (A) (A) (A)
                 (A) (A) (A) (A) (A) (A)
       Virtual   (A) (A) (A) (A) (A) (A) (A) (A) (A) (A) (A) (A)
                 (A) (A) (A) (A) (A) (A) (A) (A) (A)
 The electronic state of the initial guess is 1-A.
 Requested convergence on RMS density matrix=1.00D-08 within 128 cycles.
 Requested convergence on MAX density matrix=1.00D-06.
 Requested convergence on             energy=1.00D-06.
 No special actions if energy rises.
 Overlap will be assumed to be unity.
 Keep J ints in memory in canonical form, NReq=887204.
 SCF Done:  E(RPM6) = -0.145636660322     A.U. after   13 cycles
             Convg  =    0.6198D-08             -V/T =  0.9989

 **********************************************************************

            Population analysis using the SCF density.

 **********************************************************************

 Orbital symmetries:
       Occupied  (A) (A) (A) (A) (A) (A) (A) (A) (A) (A) (A) (A)
                 (A) (A) (A) (A) (A) (A) (A) (A) (A) (A) (A) (A)
                 (A) (A) (A) (A) (A) (A)
       Virtual   (A) (A) (A) (A) (A) (A) (A) (A) (A) (A) (A) (A)
                 (A) (A) (A) (A) (A) (A) (A) (A) (A)
 The electronic state is 1-A.
 Alpha  occ. eigenvalues --   -1.42246  -1.31120  -1.26653  -1.22147  -1.19119
 Alpha  occ. eigenvalues --   -1.14888  -1.04991  -1.01402  -1.00689  -0.98979
 Alpha  occ. eigenvalues --   -0.90603  -0.82197  -0.79018  -0.78040  -0.76005
 Alpha  occ. eigenvalues --   -0.73935  -0.73649  -0.68896  -0.66988  -0.66790
 Alpha  occ. eigenvalues --   -0.65963  -0.64234  -0.63618  -0.62675  -0.61683
 Alpha  occ. eigenvalues --   -0.57564  -0.56677  -0.56479  -0.55155  -0.50095
 Alpha virt. eigenvalues --   -0.14958  -0.11303  -0.09902  -0.03532  -0.02322
 Alpha virt. eigenvalues --   -0.01615  -0.00248   0.00612   0.03499   0.03871
 Alpha virt. eigenvalues --    0.05826   0.06046   0.06596   0.07096   0.07600
 Alpha virt. eigenvalues --    0.09068   0.09782   0.10341   0.10548   0.11086
 Alpha virt. eigenvalues --    0.12148
          Condensed to atoms (all electrons):
              1          2          3          4          5          6
     1  C    4.598482   0.000000   0.000000   0.000000   0.000000   0.000000
     2  H    0.000000   0.762099   0.000000   0.000000   0.000000   0.000000
     3  H    0.000000   0.000000   0.771368   0.000000   0.000000   0.000000
     4  H    0.000000   0.000000   0.000000   0.774174   0.000000   0.000000
     5  C    0.000000   0.000000   0.000000   0.000000   3.191196   0.000000
     6  O    0.000000   0.000000   0.000000   0.000000   0.000000   6.700254
     7  O    0.000000   0.000000   0.000000   0.000000   0.000000   0.000000
     8  C    0.000000   0.000000   0.000000   0.000000   0.000000   0.000000
     9  H    0.000000   0.000000   0.000000   0.000000   0.000000   0.000000
    10  H    0.000000   0.000000   0.000000   0.000000   0.000000   0.000000
    11  H    0.000000   0.000000   0.000000   0.000000   0.000000   0.000000
    12  O    0.000000   0.000000   0.000000   0.000000   0.000000   0.000000
    13  H    0.000000   0.000000   0.000000   0.000000   0.000000   0.000000
    14  H    0.000000   0.000000   0.000000   0.000000   0.000000   0.000000
    15  H    0.000000   0.000000   0.000000   0.000000   0.000000   0.000000
    16  C    0.000000   0.000000   0.000000   0.000000   0.000000   0.000000
    17  H    0.000000   0.000000   0.000000   0.000000   0.000000   0.000000
    18  H    0.000000   0.000000   0.000000   0.000000   0.000000   0.000000
    19  H    0.000000   0.000000   0.000000   0.000000   0.000000   0.000000
    20  O    0.000000   0.000000   0.000000   0.000000   0.000000   0.000000
    21  H    0.000000   0.000000   0.000000   0.000000   0.000000   0.000000
    22  O    0.000000   0.000000   0.000000   0.000000   0.000000   0.000000
    23  H    0.000000   0.000000   0.000000   0.000000   0.000000   0.000000
    24  H    0.000000   0.000000   0.000000   0.000000   0.000000   0.000000
              7          8          9         10         11         12
     1  C    0.000000   0.000000   0.000000   0.000000   0.000000   0.000000
     2  H    0.000000   0.000000   0.000000   0.000000   0.000000   0.000000
     3  H    0.000000   0.000000   0.000000   0.000000   0.000000   0.000000
     4  H    0.000000   0.000000   0.000000   0.000000   0.000000   0.000000
     5  C    0.000000   0.000000   0.000000   0.000000   0.000000   0.000000
     6  O    0.000000   0.000000   0.000000   0.000000   0.000000   0.000000
     7  O    6.403294   0.000000   0.000000   0.000000   0.000000   0.000000
     8  C    0.000000   4.183885   0.000000   0.000000   0.000000   0.000000
     9  H    0.000000   0.000000   0.822446   0.000000   0.000000   0.000000
    10  H    0.000000   0.000000   0.000000   0.845131   0.000000   0.000000
    11  H    0.000000   0.000000   0.000000   0.000000   0.844005   0.000000
    12  O    0.000000   0.000000   0.000000   0.000000   0.000000   6.347252
    13  H    0.000000   0.000000   0.000000   0.000000   0.000000   0.000000
    14  H    0.000000   0.000000   0.000000   0.000000   0.000000   0.000000
    15  H    0.000000   0.000000   0.000000   0.000000   0.000000   0.000000
    16  C    0.000000   0.000000   0.000000   0.000000   0.000000   0.000000
    17  H    0.000000   0.000000   0.000000   0.000000   0.000000   0.000000
    18  H    0.000000   0.000000   0.000000   0.000000   0.000000   0.000000
    19  H    0.000000   0.000000   0.000000   0.000000   0.000000   0.000000
    20  O    0.000000   0.000000   0.000000   0.000000   0.000000   0.000000
    21  H    0.000000   0.000000   0.000000   0.000000   0.000000   0.000000
    22  O    0.000000   0.000000   0.000000   0.000000   0.000000   0.000000
    23  H    0.000000   0.000000   0.000000   0.000000   0.000000   0.000000
    24  H    0.000000   0.000000   0.000000   0.000000   0.000000   0.000000
             13         14         15         16         17         18
     1  C    0.000000   0.000000   0.000000   0.000000   0.000000   0.000000
     2  H    0.000000   0.000000   0.000000   0.000000   0.000000   0.000000
     3  H    0.000000   0.000000   0.000000   0.000000   0.000000   0.000000
     4  H    0.000000   0.000000   0.000000   0.000000   0.000000   0.000000
     5  C    0.000000   0.000000   0.000000   0.000000   0.000000   0.000000
     6  O    0.000000   0.000000   0.000000   0.000000   0.000000   0.000000
     7  O    0.000000   0.000000   0.000000   0.000000   0.000000   0.000000
     8  C    0.000000   0.000000   0.000000   0.000000   0.000000   0.000000
     9  H    0.000000   0.000000   0.000000   0.000000   0.000000   0.000000
    10  H    0.000000   0.000000   0.000000   0.000000   0.000000   0.000000
    11  H    0.000000   0.000000   0.000000   0.000000   0.000000   0.000000
    12  O    0.000000   0.000000   0.000000   0.000000   0.000000   0.000000
    13  H    0.592427   0.000000   0.000000   0.000000   0.000000   0.000000
    14  H    0.000000   0.570739   0.000000   0.000000   0.000000   0.000000
    15  H    0.000000   0.000000   0.586617   0.000000   0.000000   0.000000
    16  C    0.000000   0.000000   0.000000   4.172022   0.000000   0.000000
    17  H    0.000000   0.000000   0.000000   0.000000   0.832490   0.000000
    18  H    0.000000   0.000000   0.000000   0.000000   0.000000   0.873713
    19  H    0.000000   0.000000   0.000000   0.000000   0.000000   0.000000
    20  O    0.000000   0.000000   0.000000   0.000000   0.000000   0.000000
    21  H    0.000000   0.000000   0.000000   0.000000   0.000000   0.000000
    22  O    0.000000   0.000000   0.000000   0.000000   0.000000   0.000000
    23  H    0.000000   0.000000   0.000000   0.000000   0.000000   0.000000
    24  H    0.000000   0.000000   0.000000   0.000000   0.000000   0.000000
             19         20         21         22         23         24
     1  C    0.000000   0.000000   0.000000   0.000000   0.000000   0.000000
     2  H    0.000000   0.000000   0.000000   0.000000   0.000000   0.000000
     3  H    0.000000   0.000000   0.000000   0.000000   0.000000   0.000000
     4  H    0.000000   0.000000   0.000000   0.000000   0.000000   0.000000
     5  C    0.000000   0.000000   0.000000   0.000000   0.000000   0.000000
     6  O    0.000000   0.000000   0.000000   0.000000   0.000000   0.000000
     7  O    0.000000   0.000000   0.000000   0.000000   0.000000   0.000000
     8  C    0.000000   0.000000   0.000000   0.000000   0.000000   0.000000
     9  H    0.000000   0.000000   0.000000   0.000000   0.000000   0.000000
    10  H    0.000000   0.000000   0.000000   0.000000   0.000000   0.000000
    11  H    0.000000   0.000000   0.000000   0.000000   0.000000   0.000000
    12  O    0.000000   0.000000   0.000000   0.000000   0.000000   0.000000
    13  H    0.000000   0.000000   0.000000   0.000000   0.000000   0.000000
    14  H    0.000000   0.000000   0.000000   0.000000   0.000000   0.000000
    15  H    0.000000   0.000000   0.000000   0.000000   0.000000   0.000000
    16  C    0.000000   0.000000   0.000000   0.000000   0.000000   0.000000
    17  H    0.000000   0.000000   0.000000   0.000000   0.000000   0.000000
    18  H    0.000000   0.000000   0.000000   0.000000   0.000000   0.000000
    19  H    0.857155   0.000000   0.000000   0.000000   0.000000   0.000000
    20  O    0.000000   6.574963   0.000000   0.000000   0.000000   0.000000
    21  H    0.000000   0.000000   0.678413   0.000000   0.000000   0.000000
    22  O    0.000000   0.000000   0.000000   6.708670   0.000000   0.000000
    23  H    0.000000   0.000000   0.000000   0.000000   0.631438   0.000000
    24  H    0.000000   0.000000   0.000000   0.000000   0.000000   0.677764
 Mulliken atomic charges:
              1
     1  C   -0.598482
     2  H    0.237901
     3  H    0.228632
     4  H    0.225826
     5  C    0.808804
     6  O   -0.700254
     7  O   -0.403294
     8  C   -0.183885
     9  H    0.177554
    10  H    0.154869
    11  H    0.155995
    12  O   -0.347252
    13  H    0.407573
    14  H    0.429261
    15  H    0.413383
    16  C   -0.172022
    17  H    0.167510
    18  H    0.126287
    19  H    0.142845
    20  O   -0.574963
    21  H    0.321587
    22  O   -0.708670
    23  H    0.368562
    24  H    0.322236
 Sum of Mulliken atomic charges =   1.00000
 Mulliken charges with hydrogens summed into heavy atoms:
              1
     1  C    0.093877
     5  C    0.808804
     6  O   -0.700254
     7  O   -0.403294
     8  C    0.304532
    12  O    0.902965
    16  C    0.264619
    20  O   -0.253377
    22  O   -0.017872
 Sum of Mulliken charges with hydrogens summed into heavy atoms =   1.00000
 Charge=              1.0000 electrons
 Dipole moment (field-independent basis, Debye):
    X=              9.1731    Y=             -4.6770    Z=              1.2805  Tot=             10.3759
 N-N= 3.697767631223D+02 E-N=-5.523831581052D+02  KE=-1.372116668989D+02
 Calling FoFJK, ICntrl=      2127 FMM=F ISym2X=0 I1Cent= 0 IOpClX= 0 NMat=1 NMatS=1 NMatT=0.
 ***** Axes restored to original set *****
 -------------------------------------------------------------------
 Center     Atomic                   Forces (Hartrees/Bohr)
 Number     Number              X              Y              Z
 -------------------------------------------------------------------
      1        6          -0.000058903   -0.000106314   -0.000302938
      2        1          -0.000155332    0.000128876    0.000089483
      3        1           0.000048129    0.000052218   -0.000041885
      4        1          -0.000009029   -0.000032017    0.000018038
      5        6           0.001509138    0.001755648    0.001839189
      6        8          -0.000862402    0.000644488   -0.004081169
      7        8           0.004335224   -0.000502884   -0.003025176
      8        6           0.001935959   -0.001296233   -0.000703297
      9        1           0.000076804    0.000373032   -0.000354657
     10        1           0.000713824    0.000152913    0.000344993
     11        1           0.000767997   -0.000293010   -0.000311087
     12        8           0.037878172   -0.016943126    0.004076791
     13        1          -0.003214002    0.004282993   -0.004794242
     14        1          -0.036851447    0.010712436    0.004878481
     15        1           0.002044890    0.000975485   -0.001846460
     16        6          -0.000325479    0.000212500    0.000210184
     17        1           0.000075942    0.000065843    0.000128624
     18        1           0.000021602   -0.000216482   -0.000054614
     19        1          -0.000165139    0.000117300   -0.000104055
     20        8           0.002093464    0.000582287    0.007569444
     21        1          -0.006866245   -0.000011293   -0.003849667
     22        8          -0.001542348   -0.003039267   -0.000941730
     23        1          -0.000005815    0.000658202   -0.000155126
     24        1          -0.001445003    0.001726407    0.001410876
 -------------------------------------------------------------------
 Cartesian Forces:  Max     0.037878172 RMS     0.006974255

 GradGradGradGradGradGradGradGradGradGradGradGradGradGradGradGradGradGrad
 Berny optimization.
 Internal  Forces:  Max     0.038559494 RMS     0.003989634
 Search for a local minimum.
 Step number   1 out of a maximum of  121
 All quantities printed in internal units (Hartrees-Bohrs-Radians)
 Mixed Optimization -- RFO/linear search
 Second derivative matrix not updated -- first step.
     Eigenvalues ---    0.00230   0.00274   0.00633   0.00786   0.00956
     Eigenvalues ---    0.01083   0.01188   0.01558   0.01659   0.02007
     Eigenvalues ---    0.03071   0.03859   0.03923   0.03984   0.05278
     Eigenvalues ---    0.05765   0.05843   0.05847   0.06695   0.07632
     Eigenvalues ---    0.07637   0.08362   0.08479   0.08775   0.10046
     Eigenvalues ---    0.11233   0.11725   0.14581   0.15799   0.15977
     Eigenvalues ---    0.16000   0.16000   0.16000   0.16000   0.16000
     Eigenvalues ---    0.16000   0.16000   0.16000   0.16000   0.16000
     Eigenvalues ---    0.16000   0.16000   0.17088   0.18935   0.19779
     Eigenvalues ---    0.25000   0.32416   0.32911   0.33047   0.33652
     Eigenvalues ---    0.33754   0.34204   0.34239   0.34470   0.34525
     Eigenvalues ---    0.35026   0.37515   0.39851   0.44500   0.48486
     Eigenvalues ---    0.51466   0.55474   0.55474   0.57680   0.57826
     Eigenvalues ---    0.885641000.000001000.000001000.000001000.00000
     Eigenvalues --- 1000.000001000.000001000.000001000.000001000.00000
     Eigenvalues --- 1000.000001000.000001000.000001000.000001000.00000
     Eigenvalues --- 1000.000001000.000001000.000001000.000001000.00000
     Eigenvalues --- 1000.000001000.000001000.000001000.000001000.00000
     Eigenvalues --- 1000.000001000.000001000.000001000.000001000.00000
     Eigenvalues --- 1000.000001000.000001000.000001000.000001000.00000
     Eigenvalues --- 1000.000001000.000001000.000001000.000001000.00000
     Eigenvalues --- 1000.000001000.000001000.000001000.000001000.00000
     Eigenvalues --- 1000.00000
 RFO step:  Lambda=-5.42752458D-03 EMin= 2.30000000D-03
 Linear search not attempted -- first point.
 Maximum step size (   0.300) exceeded in Quadratic search.
    -- Step size scaled by   0.878
 Iteration  1 RMS(Cart)=  0.07862430 RMS(Int)=  0.00641843
 Iteration  2 RMS(Cart)=  0.01241605 RMS(Int)=  0.00023249
 Iteration  3 RMS(Cart)=  0.00028894 RMS(Int)=  0.00018025
 Iteration  4 RMS(Cart)=  0.00000016 RMS(Int)=  0.00018025
 Variable       Old X    -DE/DX   Delta X   Delta X   Delta X     New X
                                 (Linear)    (Quad)   (Total)
    R1        2.10089   0.00017   0.00000   0.00044   0.00044   2.10133
    R2        2.09209   0.00007   0.00000   0.00019   0.00019   2.09228
    R3        2.08969   0.00000   0.00000   0.00000   0.00000   2.08969
    R4        2.78932   0.00005   0.00000   0.00012   0.00012   2.78944
    R5        2.33602  -0.00103   0.00000  -0.00102  -0.00102   2.33500
    R6        2.56106   0.00052   0.00000   0.00035   0.00037   2.56143
    R7        4.39479   0.00195   0.00000   0.03275   0.03289   4.42768
    R8        2.84188   0.00182   0.00000   0.01358   0.01358   2.85546
    R9        2.75077   0.00198   0.00000   0.00458   0.00458   2.75535
   R10        3.30499   0.00778   0.00000   0.09582   0.09576   3.40075
   R11        2.07921   0.00000   0.00000   0.00001   0.00001   2.07922
   R12        2.06453   0.00035   0.00000   0.00088   0.00088   2.06541
   R13        2.06929  -0.00001   0.00000  -0.00002  -0.00002   2.06927
   R14        1.81414  -0.00718   0.00000  -0.01125  -0.01125   1.80288
   R15        1.81414   0.03856   0.00000   0.06046   0.06046   1.87460
   R16        1.79525   0.00278   0.00000   0.00420   0.00420   1.79944
   R17        2.07747   0.00008   0.00000   0.00021   0.00021   2.07768
   R18        2.06544   0.00021   0.00000   0.00052   0.00052   2.06597
   R19        2.06987   0.00019   0.00000   0.00048   0.00048   2.07035
   R20        2.71757   0.00021   0.00000   0.00046   0.00046   2.71803
   R21        1.86001   0.00579   0.00000   0.01047   0.01036   1.87037
   R22        3.42246  -0.00241   0.00000  -0.03321  -0.03330   3.38916
   R23        1.89124  -0.00212   0.00000  -0.00415  -0.00416   1.88708
   R24        1.79403  -0.00019   0.00000  -0.00029  -0.00029   1.79374
    A1        1.85491  -0.00005   0.00000   0.00002   0.00002   1.85493
    A2        1.86509  -0.00008   0.00000  -0.00049  -0.00049   1.86461
    A3        1.96709   0.00022   0.00000   0.00133   0.00133   1.96841
    A4        1.86520   0.00002   0.00000  -0.00015  -0.00015   1.86505
    A5        1.95452  -0.00004   0.00000  -0.00017  -0.00017   1.95435
    A6        1.95033  -0.00008   0.00000  -0.00060  -0.00060   1.94973
    A7        2.21236   0.00029   0.00000   0.00125   0.00128   2.21364
    A8        1.93873   0.00062   0.00000  -0.00028  -0.00038   1.93834
    A9        1.74059  -0.00096   0.00000  -0.00187  -0.00197   1.73862
   A10        2.12630  -0.00094   0.00000  -0.00116  -0.00110   2.12520
   A11        1.64407   0.00037   0.00000   0.00210   0.00202   1.64609
   A12        1.41035   0.00074   0.00000   0.00100   0.00128   1.41164
   A13        2.44122  -0.00242   0.00000  -0.01286  -0.01286   2.42836
   A14        2.10359  -0.00306   0.00000  -0.00855  -0.00840   2.09519
   A15        2.11971  -0.00192   0.00000  -0.02635  -0.02630   2.09340
   A16        1.83368   0.00463   0.00000   0.03406   0.03400   1.86768
   A17        1.78986  -0.00025   0.00000  -0.00032  -0.00032   1.78954
   A18        1.92101  -0.00067   0.00000  -0.00461  -0.00461   1.91640
   A19        1.89246   0.00093   0.00000   0.00487   0.00487   1.89733
   A20        1.92992   0.00027   0.00000   0.00125   0.00124   1.93116
   A21        1.94292   0.00036   0.00000   0.00443   0.00442   1.94734
   A22        1.97802  -0.00062   0.00000  -0.00515  -0.00515   1.97287
   A23        2.15945  -0.00073   0.00000  -0.00235  -0.00273   2.15672
   A24        2.09113   0.00000   0.00000   0.00155   0.00117   2.09230
   A25        2.02648   0.00086   0.00000   0.00608   0.00570   2.03218
   A26        2.36125  -0.00200   0.00000  -0.00688  -0.00688   2.35437
   A27        1.93635   0.00005   0.00000   0.00017   0.00017   1.93652
   A28        1.91810   0.00004   0.00000  -0.00004  -0.00004   1.91806
   A29        1.81505  -0.00022   0.00000  -0.00134  -0.00134   1.81371
   A30        1.94530   0.00000   0.00000   0.00028   0.00028   1.94558
   A31        1.92388   0.00010   0.00000   0.00065   0.00065   1.92452
   A32        1.92104   0.00002   0.00000   0.00018   0.00018   1.92122
   A33        1.93563  -0.00068   0.00000   0.00387   0.00388   1.93951
   A34        2.10394  -0.00036   0.00000  -0.00013  -0.00015   2.10379
   A35        1.58177   0.00128   0.00000   0.01139   0.01117   1.59293
   A36        2.46250  -0.00344   0.00000  -0.01696  -0.01712   2.44539
   A37        1.77219   0.00000   0.00000   0.00160   0.00111   1.77329
   A38        2.64868   0.00160   0.00000   0.00921   0.00832   2.65700
   A39        1.86105  -0.00152   0.00000  -0.00741  -0.00829   1.85275
   A40        2.55586   0.00204   0.00000   0.00313   0.00314   2.55900
    D1       -2.73702  -0.00003   0.00000  -0.00128  -0.00125  -2.73827
    D2        0.51935   0.00030   0.00000   0.00071   0.00083   0.52018
    D3       -0.94361  -0.00022   0.00000   0.00037   0.00022  -0.94339
    D4        1.45567  -0.00009   0.00000  -0.00212  -0.00210   1.45357
    D5       -1.57115   0.00024   0.00000  -0.00013  -0.00001  -1.57116
    D6       -3.03411  -0.00028   0.00000  -0.00048  -0.00062  -3.03473
    D7       -0.63635  -0.00004   0.00000  -0.00140  -0.00138  -0.63772
    D8        2.62002   0.00029   0.00000   0.00059   0.00071   2.62073
    D9        1.15706  -0.00023   0.00000   0.00024   0.00010   1.15716
   D10        1.89855  -0.00016   0.00000   0.00137   0.00135   1.89989
   D11       -1.36915  -0.00042   0.00000  -0.00075  -0.00088  -1.37003
   D12        0.05818   0.00070   0.00000   0.00174   0.00189   0.06007
   D13       -3.07906  -0.00126   0.00000  -0.02114  -0.02123  -3.10029
   D14       -0.71267   0.00009   0.00000  -0.00845  -0.00842  -0.72108
   D15        0.17074  -0.00104   0.00000  -0.01944  -0.01945   0.15129
   D16        2.53713   0.00032   0.00000  -0.00675  -0.00663   2.53050
   D17       -1.38689  -0.00210   0.00000  -0.02275  -0.02284  -1.40973
   D18        0.97950  -0.00075   0.00000  -0.01006  -0.01002   0.96948
   D19        1.00529  -0.00140   0.00000  -0.03771  -0.03774   0.96754
   D20       -2.20870   0.00071   0.00000   0.05861   0.05871  -2.14999
   D21       -3.03658  -0.00121   0.00000  -0.03626  -0.03630  -3.07289
   D22        0.03262   0.00090   0.00000   0.06006   0.06015   0.09277
   D23       -0.91449  -0.00222   0.00000  -0.03775  -0.03772  -0.95221
   D24        2.15472  -0.00012   0.00000   0.05857   0.05873   2.21345
   D25        2.97812   0.00193   0.00000   0.21971   0.21971  -3.08535
   D26       -3.07886   0.00001   0.00000   0.00663   0.00666  -3.07219
   D27       -1.02482  -0.00010   0.00000   0.00586   0.00589  -1.01893
   D28        1.14783  -0.00068   0.00000  -0.00033  -0.00030   1.14753
   D29        0.72930   0.00083   0.00000   0.01633   0.01631   0.74561
   D30        2.78333   0.00072   0.00000   0.01556   0.01553   2.79887
   D31       -1.32720   0.00014   0.00000   0.00937   0.00934  -1.31786
   D32       -0.47346   0.00047   0.00000   0.02219   0.02201  -0.45146
   D33        1.99389  -0.00086   0.00000   0.02119   0.02086   2.01476
   D34        3.08492  -0.00007   0.00000  -0.00159  -0.00161   3.08331
   D35       -0.17594   0.00122   0.00000   0.04979   0.04981  -0.12613
   D36       -3.01687   0.00041   0.00000   0.00448   0.00437  -3.01250
   D37        1.45415  -0.00055   0.00000  -0.01274  -0.01263   1.44152
   D38        1.18976   0.00043   0.00000   0.00472   0.00460   1.19436
   D39       -0.62240  -0.00053   0.00000  -0.01251  -0.01239  -0.63479
   D40       -0.96302   0.00035   0.00000   0.00379   0.00368  -0.95934
   D41       -2.77518  -0.00062   0.00000  -0.01343  -0.01331  -2.78849
   D42       -2.59294  -0.00023   0.00000  -0.02759  -0.02774  -2.62068
   D43       -0.44185  -0.00021   0.00000  -0.02142  -0.02158  -0.46343
   D44        2.25631   0.00077   0.00000   0.00725   0.00741   2.26373
   D45        0.25120   0.00085   0.00000  -0.00481  -0.00456   0.24664
   D46        0.39079   0.00067   0.00000   0.02845   0.02839   0.41918
   D47       -2.71508  -0.00049   0.00000  -0.01972  -0.01901  -2.73409
         Item               Value     Threshold  Converged?
 Maximum Force            0.038559     0.000450     NO 
 RMS     Force            0.003990     0.000300     NO 
 Maximum Displacement     0.433740     0.001800     NO 
 RMS     Displacement     0.086928     0.001200     NO 
 Predicted change in Energy=-2.919044D-03
 GradGradGradGradGradGradGradGradGradGradGradGradGradGradGradGradGradGrad

                          Input orientation:                          
 ---------------------------------------------------------------------
 Center     Atomic      Atomic             Coordinates (Angstroms)
 Number     Number       Type             X           Y           Z
 ---------------------------------------------------------------------
      1          6           0        0.121169    2.130041   -0.068611
      2          1           0       -0.974386    2.104708    0.120082
      3          1           0        0.280788    2.876358   -0.870728
      4          1           0        0.594226    2.535148    0.845135
      5          6           0        0.670110    0.807594   -0.427340
      6          8           0        1.841876    0.434487   -0.306758
      7          8           0       -0.257681    0.051375   -1.063404
      8          6           0        0.061603   -1.314704   -1.460698
      9          1           0       -0.844339   -1.623440   -2.003431
     10          1           0        0.928268   -1.313666   -2.126634
     11          1           0        0.215112   -1.916079   -0.558571
     12          8           0        3.622700   -0.733345    0.614172
     13          1           0        3.978557   -1.338634    1.260076
     14          1           0        2.659085   -0.507765    0.546229
     15          1           0        4.194422   -0.354216   -0.046227
     16          6           0       -3.688280   -0.587048    0.346377
     17          1           0       -4.233336   -0.230095    1.231990
     18          1           0       -3.446019   -1.649169    0.438189
     19          1           0       -4.273431   -0.385847   -0.557736
     20          8           0       -2.484349    0.199899    0.340653
     21          1           0       -1.962176    0.047012   -0.486136
     22          8           0       -0.102104   -0.444487    1.396325
     23          1           0       -1.084425   -0.268829    1.359003
     24          1           0        0.036355   -1.012761    2.143911
 ---------------------------------------------------------------------
                    Distance matrix (angstroms):
                    1          2          3          4          5
     1  C    0.000000
     2  H    1.111975   0.000000
     3  H    1.107185   1.775559   0.000000
     4  H    1.105814   1.780878   1.777317   0.000000
     5  C    1.476106   2.164843   2.151267   2.146950   0.000000
     6  O    2.427437   3.301994   2.952591   2.701160   1.235631
     7  O    2.335379   2.475981   2.882292   3.246136   1.355449
     8  C    3.715875   3.906984   4.238055   4.519061   2.437675
     9  H    4.331784   4.292471   4.774632   5.241913   3.269181
    10  H    4.092186   4.511442   4.421859   4.874050   2.730200
    11  H    4.076760   4.247612   4.803042   4.682685   2.764533
    12  O    4.574483   5.425115   5.138411   4.461843   3.489560
    13  H    5.355050   6.139043   5.998332   5.160626   4.289463
    14  H    3.711747   4.495413   4.372226   3.689486   2.575661
    15  H    4.771102   5.726303   5.141298   4.701527   3.730391
    16  C    4.697520   3.829096   5.406480   5.323225   4.641038
    17  H    5.120890   4.160336   5.869308   5.576878   5.279579
    18  H    5.221505   4.505747   6.006892   5.830754   4.871073
    19  H    5.087381   4.188794   5.610780   5.847592   5.087229
    20  O    3.268283   2.440684   4.034459   3.896860   3.302987
    21  H    2.975511   2.361639   3.630977   3.807662   2.740597
    22  O    2.970536   2.981287   4.039078   3.109165   2.343027
    23  H    3.040743   2.679685   4.089952   3.308204   2.725454
    24  H    3.844431   3.851766   4.926768   3.819122   3.213514
                    6          7          8          9         10
     6  O    0.000000
     7  O    2.264382   0.000000
     8  C    2.749657   1.458066   0.000000
     9  H    3.785434   2.008189   1.100277   0.000000
    10  H    2.683778   2.097682   1.092968   1.803684   0.000000
    11  H    2.869657   2.085489   1.095012   1.815405   1.824915
    12  O    2.320189   4.299698   4.162268   5.253432   3.886997
    13  H    3.188156   5.027564   4.769247   5.830259   4.557926
    14  H    1.511045   3.378029   3.380210   4.474313   3.284722
    15  H    2.494875   4.584798   4.472522   5.552539   3.989536
    16  C    5.661514   3.763519   4.225711   3.831932   5.287369
    17  H    6.302190   4.599335   5.183961   4.888216   6.252730
    18  H    5.732225   3.913072   4.002631   3.568040   5.081856
    19  H    6.175185   4.071008   4.524449   3.921778   5.511802
    20  O    4.380684   2.636567   3.467097   3.392481   4.474857
    21  H    3.827939   1.799600   2.626733   2.518363   3.591287
    22  O    2.729862   2.514030   2.991097   3.674124   3.772052
    23  H    3.439861   2.579552   3.218377   3.632984   4.158398
    24  H    3.370491   3.392007   3.617322   4.283574   4.373055
                   11         12         13         14         15
    11  H    0.000000
    12  O    3.792867   0.000000
    13  H    4.219531   0.954045   0.000000
    14  H    3.029346   0.991996   1.714913   0.000000
    15  H    4.305441   0.952224   1.649880   1.652828   0.000000
    16  C    4.221578   7.317345   7.757585   6.351006   7.895906
    17  H    5.083043   7.896344   8.286424   6.932015   8.525042
    18  H    3.803768   7.129971   7.476380   6.211825   7.764528
    19  H    4.742217   7.990182   8.503385   7.020925   8.483346
    20  O    3.545850   6.183996   6.706831   5.195957   6.712876
    21  H    2.932500   5.745474   6.345202   4.767558   6.185321
    22  O    2.467352   3.816984   4.179696   2.889781   4.533127
    23  H    2.842413   4.788274   5.175718   3.838171   5.463349
    24  H    2.855056   3.908970   4.053186   3.112286   4.745514
                   16         17         18         19         20
    16  C    0.000000
    17  H    1.099460   0.000000
    18  H    1.093262   1.806588   0.000000
    19  H    1.095583   1.796937   1.808994   0.000000
    20  O    1.438321   2.009559   2.086474   2.085908   0.000000
    21  H    2.018551   2.861278   2.435816   2.352529   0.989758
    22  O    3.739434   4.140053   3.681175   4.606708   2.684170
    23  H    2.811892   3.151709   2.886237   3.722545   1.793469
    24  H    4.157555   4.435586   3.929559   5.125053   3.328098
                   21         22         23         24
    21  H    0.000000
    22  O    2.691672   0.000000
    23  H    2.067545   0.998600   0.000000
    24  H    3.469063   0.949206   1.557454   0.000000
 Stoichiometry    C4H15O5(1+)
 Framework group  C1[X(C4H15O5)]
 Deg. of freedom    66
 Full point group                 C1      NOp   1
 Largest Abelian subgroup         C1      NOp   1
 Largest concise Abelian subgroup C1      NOp   1
                         Standard orientation:                         
 ---------------------------------------------------------------------
 Center     Atomic      Atomic             Coordinates (Angstroms)
 Number     Number       Type             X           Y           Z
 ---------------------------------------------------------------------
      1          6           0       -0.113825    2.140906    0.010455
      2          1           0        0.982378    2.107421   -0.173136
      3          1           0       -0.274068    2.906699    0.793872
      4          1           0       -0.581856    2.525644   -0.914612
      5          6           0       -0.668719    0.829243    0.398427
      6          8           0       -1.841268    0.457270    0.282039
      7          8           0        0.253940    0.085345    1.056119
      8          6           0       -0.071604   -1.269782    1.484618
      9          1           0        0.831112   -1.568483    2.038234
     10          1           0       -0.940898   -1.249947    2.146820
     11          1           0       -0.223589   -1.892020    0.596490
     12          8           0       -3.622415   -0.726285   -0.617957
     13          1           0       -3.977778   -1.345641   -1.250664
     14          1           0       -2.658310   -0.502360   -0.551515
     15          1           0       -4.195452   -0.329584    0.030879
     16          6           0        3.687902   -0.598005   -0.324101
     17          1           0        4.237692   -0.264129   -1.215768
     18          1           0        3.442367   -1.661204   -0.391511
     19          1           0        4.270143   -0.377216    0.577314
     20          8           0        2.486664    0.192863   -0.342047
     21          1           0        1.960689    0.061512    0.486034
     22          8           0        0.106435   -0.468612   -1.391680
     23          1           0        1.089196   -0.295389   -1.354581
     24          1           0       -0.031001   -1.054117   -2.126042
 ---------------------------------------------------------------------
 Rotational constants (GHZ):      2.0611622      0.6838869      0.6591645
 Standard basis: VSTO-6G (5D, 7F)
 There are    51 symmetry adapted basis functions of A   symmetry.
 Integral buffers will be    262144 words long.
 Regular integral format.
 Two-electron integral symmetry is turned off.
    51 basis functions,   306 primitive gaussians,    51 cartesian basis functions
    30 alpha electrons       30 beta electrons
       nuclear repulsion energy       368.4884888648 Hartrees.
 Do NDO integrals.
 One-electron integrals computed using PRISM.
 NBasis=    51 RedAO= F  NBF=    51
 NBsUse=    51 1.00D-04 NBFU=    51
 Initial guess read from the read-write file.
 B after Tr=     0.000000    0.000000    0.000000
         Rot=    1.000000    0.000000    0.000000    0.000000 Ang=   0.00 deg.
 Initial guess orbital symmetries:
       Occupied  (A) (A) (A) (A) (A) (A) (A) (A) (A) (A) (A) (A)
                 (A) (A) (A) (A) (A) (A) (A) (A) (A) (A) (A) (A)
                 (A) (A) (A) (A) (A) (A)
       Virtual   (A) (A) (A) (A) (A) (A) (A) (A) (A) (A) (A) (A)
                 (A) (A) (A) (A) (A) (A) (A) (A) (A)
 Requested convergence on RMS density matrix=1.00D-08 within 128 cycles.
 Requested convergence on MAX density matrix=1.00D-06.
 Requested convergence on             energy=1.00D-06.
 No special actions if energy rises.
 Overlap will be assumed to be unity.
 Keep J ints in memory in canonical form, NReq=887204.
 SCF Done:  E(RPM6) = -0.149625928839     A.U. after   18 cycles
             Convg  =    0.7691D-08             -V/T =  0.9989
 Calling FoFJK, ICntrl=      2127 FMM=F ISym2X=0 I1Cent= 0 IOpClX= 0 NMat=1 NMatS=1 NMatT=0.
 ***** Axes restored to original set *****
 -------------------------------------------------------------------
 Center     Atomic                   Forces (Hartrees/Bohr)
 Number     Number              X              Y              Z
 -------------------------------------------------------------------
      1        6           0.000355417    0.000080659    0.000206002
      2        1          -0.000044399    0.000039741    0.000035919
      3        1          -0.000026784   -0.000034911   -0.000045528
      4        1          -0.000155105    0.000037731   -0.000054543
      5        6          -0.001629071    0.001081188    0.000639345
      6        8           0.004468828   -0.002083099   -0.000533241
      7        8           0.003600834   -0.001133277   -0.001639666
      8        6           0.001328318   -0.000269893   -0.000545575
      9        1           0.000175606    0.000455340    0.000043593
     10        1           0.000700597   -0.000009801    0.000194960
     11        1           0.000248043    0.000204980   -0.000246674
     12        8           0.028934646   -0.009473371    0.004894329
     13        1          -0.002866574    0.003766790   -0.003737375
     14        1          -0.030144219    0.006527683   -0.001415373
     15        1           0.000127103    0.001076793   -0.000548613
     16        6          -0.000137988    0.000184030   -0.000142040
     17        1           0.000123356    0.000016288    0.000077637
     18        1           0.000066315   -0.000091061   -0.000136056
     19        1          -0.000029691    0.000041677   -0.000015779
     20        8           0.004078878    0.000810768    0.004816301
     21        1          -0.006809941   -0.000560969   -0.001904999
     22        8          -0.000489251   -0.002811222   -0.000573498
     23        1          -0.001156832    0.000906386   -0.000827252
     24        1          -0.000718088    0.001237549    0.001458128
 -------------------------------------------------------------------
 Cartesian Forces:  Max     0.030144219 RMS     0.005397433

 GradGradGradGradGradGradGradGradGradGradGradGradGradGradGradGradGradGrad
 Berny optimization.
 Using GEDIIS/GDIIS optimizer.
 Internal  Forces:  Max     0.026540206 RMS     0.002808066
 Search for a local minimum.
 Step number   2 out of a maximum of  121
 All quantities printed in internal units (Hartrees-Bohrs-Radians)
 Mixed Optimization -- RFO/linear search
 Update second derivatives using D2CorX and points    1    2
 DE= -3.99D-03 DEPred=-2.92D-03 R= 1.37D+00
 SS=  1.41D+00  RLast= 3.00D-01 DXNew= 5.0454D-01 8.9995D-01
 Trust test= 1.37D+00 RLast= 3.00D-01 DXMaxT set to 5.05D-01
 Use linear search instead of GDIIS.
 Linear search step of   0.600 exceeds DXMaxT=   0.505 but not scaled.
 Quartic linear search produced a step of  2.00000.
 Iteration  1 RMS(Cart)=  0.12168327 RMS(Int)=  0.02636552
 Iteration  2 RMS(Cart)=  0.05794483 RMS(Int)=  0.00741677
 Iteration  3 RMS(Cart)=  0.01835636 RMS(Int)=  0.00111455
 Iteration  4 RMS(Cart)=  0.00060998 RMS(Int)=  0.00104427
 Iteration  5 RMS(Cart)=  0.00000059 RMS(Int)=  0.00104427
 Variable       Old X    -DE/DX   Delta X   Delta X   Delta X     New X
                                 (Linear)    (Quad)   (Total)
    R1        2.10133   0.00005   0.00088   0.00000   0.00088   2.10221
    R2        2.09228   0.00001   0.00038   0.00000   0.00038   2.09266
    R3        2.08969  -0.00010  -0.00001   0.00000  -0.00001   2.08968
    R4        2.78944   0.00010   0.00024   0.00000   0.00024   2.78967
    R5        2.33500   0.00042  -0.00203   0.00000  -0.00203   2.33297
    R6        2.56143  -0.00048   0.00074   0.00000   0.00088   2.56230
    R7        4.42768   0.00134   0.06578   0.00000   0.06658   4.49426
    R8        2.85546  -0.00377   0.02716   0.00000   0.02716   2.88262
    R9        2.75535   0.00033   0.00915   0.00000   0.00915   2.76450
   R10        3.40075   0.00530   0.19153   0.00000   0.19118   3.59193
   R11        2.07922  -0.00029   0.00002   0.00000   0.00002   2.07924
   R12        2.06541   0.00044   0.00176   0.00000   0.00176   2.06717
   R13        2.06927  -0.00028  -0.00004   0.00000  -0.00004   2.06923
   R14        1.80288  -0.00599  -0.02250   0.00000  -0.02250   1.78038
   R15        1.87460   0.02654   0.12093   0.00000   0.12093   1.99553
   R16        1.79944   0.00089   0.00840   0.00000   0.00840   1.80784
   R17        2.07768   0.00001   0.00041   0.00000   0.00041   2.07809
   R18        2.06597   0.00009   0.00105   0.00000   0.00105   2.06702
   R19        2.07035   0.00004   0.00097   0.00000   0.00097   2.07132
   R20        2.71803  -0.00010   0.00093   0.00000   0.00093   2.71896
   R21        1.87037   0.00229   0.02072   0.00000   0.02008   1.89045
   R22        3.38916  -0.00242  -0.06660   0.00000  -0.06704   3.32213
   R23        1.88708  -0.00102  -0.00832   0.00000  -0.00831   1.87877
   R24        1.79374   0.00030  -0.00058   0.00000  -0.00058   1.79316
    A1        1.85493  -0.00001   0.00004   0.00000   0.00004   1.85497
    A2        1.86461  -0.00012  -0.00097   0.00000  -0.00097   1.86364
    A3        1.96841   0.00003   0.00265   0.00000   0.00265   1.97107
    A4        1.86505  -0.00001  -0.00030   0.00000  -0.00030   1.86475
    A5        1.95435  -0.00009  -0.00033   0.00000  -0.00033   1.95402
    A6        1.94973   0.00018  -0.00120   0.00000  -0.00120   1.94853
    A7        2.21364   0.00019   0.00256   0.00000   0.00275   2.21639
    A8        1.93834   0.00061  -0.00077   0.00000  -0.00133   1.93701
    A9        1.73862  -0.00046  -0.00394   0.00000  -0.00451   1.73411
   A10        2.12520  -0.00082  -0.00220   0.00000  -0.00190   2.12330
   A11        1.64609  -0.00008   0.00405   0.00000   0.00361   1.64971
   A12        1.41164   0.00063   0.00256   0.00000   0.00420   1.41584
   A13        2.42836  -0.00331  -0.02572   0.00000  -0.02572   2.40265
   A14        2.09519  -0.00226  -0.01681   0.00000  -0.01593   2.07926
   A15        2.09340  -0.00131  -0.05261   0.00000  -0.05224   2.04116
   A16        1.86768   0.00336   0.06801   0.00000   0.06759   1.93527
   A17        1.78954  -0.00041  -0.00065   0.00000  -0.00069   1.78885
   A18        1.91640  -0.00009  -0.00922   0.00000  -0.00922   1.90718
   A19        1.89733   0.00004   0.00974   0.00000   0.00972   1.90705
   A20        1.93116   0.00034   0.00249   0.00000   0.00246   1.93362
   A21        1.94734   0.00035   0.00883   0.00000   0.00877   1.95611
   A22        1.97287  -0.00025  -0.01030   0.00000  -0.01029   1.96257
   A23        2.15672  -0.00046  -0.00545   0.00000  -0.00773   2.14899
   A24        2.09230   0.00081   0.00234   0.00000   0.00007   2.09237
   A25        2.03218  -0.00030   0.01140   0.00000   0.00912   2.04130
   A26        2.35437  -0.00343  -0.01376   0.00000  -0.01376   2.34061
   A27        1.93652   0.00010   0.00033   0.00000   0.00034   1.93685
   A28        1.91806   0.00009  -0.00008   0.00000  -0.00008   1.91797
   A29        1.81371  -0.00016  -0.00267   0.00000  -0.00267   1.81104
   A30        1.94558   0.00000   0.00057   0.00000   0.00056   1.94615
   A31        1.92452  -0.00004   0.00129   0.00000   0.00129   1.92582
   A32        1.92122   0.00001   0.00036   0.00000   0.00036   1.92159
   A33        1.93951  -0.00142   0.00776   0.00000   0.00782   1.94733
   A34        2.10379  -0.00051  -0.00030   0.00000  -0.00040   2.10339
   A35        1.59293   0.00161   0.02233   0.00000   0.02101   1.61395
   A36        2.44539  -0.00304  -0.03423   0.00000  -0.03519   2.41020
   A37        1.77329  -0.00075   0.00221   0.00000  -0.00055   1.77275
   A38        2.65700   0.00122   0.01663   0.00000   0.01109   2.66809
   A39        1.85275  -0.00049  -0.01658   0.00000  -0.02131   1.83145
   A40        2.55900   0.00136   0.00628   0.00000   0.00620   2.56520
    D1       -2.73827   0.00006  -0.00251   0.00000  -0.00236  -2.74063
    D2        0.52018   0.00024   0.00166   0.00000   0.00233   0.52251
    D3       -0.94339  -0.00035   0.00044   0.00000  -0.00037  -0.94376
    D4        1.45357   0.00011  -0.00419   0.00000  -0.00404   1.44953
    D5       -1.57116   0.00029  -0.00003   0.00000   0.00064  -1.57052
    D6       -3.03473  -0.00030  -0.00124   0.00000  -0.00206  -3.03679
    D7       -0.63772   0.00007  -0.00275   0.00000  -0.00260  -0.64032
    D8        2.62073   0.00024   0.00142   0.00000   0.00208   2.62281
    D9        1.15716  -0.00035   0.00020   0.00000  -0.00062   1.15654
   D10        1.89989  -0.00007   0.00269   0.00000   0.00255   1.90245
   D11       -1.37003  -0.00017  -0.00176   0.00000  -0.00250  -1.37253
   D12        0.06007   0.00054   0.00378   0.00000   0.00466   0.06474
   D13       -3.10029  -0.00078  -0.04247   0.00000  -0.04304   3.13985
   D14       -0.72108   0.00028  -0.01683   0.00000  -0.01665  -0.73773
   D15        0.15129  -0.00069  -0.03890   0.00000  -0.03901   0.11228
   D16        2.53050   0.00038  -0.01327   0.00000  -0.01262   2.51788
   D17       -1.40973  -0.00112  -0.04568   0.00000  -0.04621  -1.45594
   D18        0.96948  -0.00005  -0.02004   0.00000  -0.01981   0.94967
   D19        0.96754  -0.00088  -0.07549   0.00000  -0.07553   0.89201
   D20       -2.14999   0.00068   0.11741   0.00000   0.11780  -2.03219
   D21       -3.07289  -0.00081  -0.07261   0.00000  -0.07272   3.13758
   D22        0.09277   0.00075   0.12029   0.00000   0.12061   0.21338
   D23       -0.95221  -0.00163  -0.07545   0.00000  -0.07517  -1.02738
   D24        2.21345  -0.00008   0.11745   0.00000   0.11816   2.33161
   D25       -3.08535   0.00119   0.43941   0.00000   0.43941  -2.64594
   D26       -3.07219  -0.00008   0.01333   0.00000   0.01352  -3.05867
   D27       -1.01893   0.00005   0.01178   0.00000   0.01197  -1.00696
   D28        1.14753  -0.00030  -0.00061   0.00000  -0.00046   1.14707
   D29        0.74561   0.00045   0.03262   0.00000   0.03245   0.77806
   D30        2.79887   0.00058   0.03107   0.00000   0.03090   2.82977
   D31       -1.31786   0.00024   0.01868   0.00000   0.01847  -1.29939
   D32       -0.45146   0.00031   0.04402   0.00000   0.04291  -0.40855
   D33        2.01476  -0.00067   0.04173   0.00000   0.03979   2.05455
   D34        3.08331  -0.00009  -0.00322   0.00000  -0.00316   3.08015
   D35       -0.12613   0.00085   0.09963   0.00000   0.09956  -0.02657
   D36       -3.01250   0.00029   0.00873   0.00000   0.00805  -3.00445
   D37        1.44152  -0.00048  -0.02525   0.00000  -0.02457   1.41695
   D38        1.19436   0.00029   0.00920   0.00000   0.00852   1.20289
   D39       -0.63479  -0.00049  -0.02478   0.00000  -0.02410  -0.65889
   D40       -0.95934   0.00031   0.00736   0.00000   0.00668  -0.95266
   D41       -2.78849  -0.00046  -0.02663   0.00000  -0.02595  -2.81444
   D42       -2.62068  -0.00037  -0.05548   0.00000  -0.05634  -2.67702
   D43       -0.46343  -0.00057  -0.04317   0.00000  -0.04405  -0.50748
   D44        2.26373   0.00019   0.01482   0.00000   0.01578   2.27950
   D45        0.24664   0.00098  -0.00912   0.00000  -0.00768   0.23896
   D46        0.41918   0.00044   0.05677   0.00000   0.05638   0.47556
   D47       -2.73409  -0.00029  -0.03802   0.00000  -0.03392  -2.76800
         Item               Value     Threshold  Converged?
 Maximum Force            0.026540     0.000450     NO 
 RMS     Force            0.002808     0.000300     NO 
 Maximum Displacement     1.003565     0.001800     NO 
 RMS     Displacement     0.178085     0.001200     NO 
 Predicted change in Energy=-3.421106D-03
 GradGradGradGradGradGradGradGradGradGradGradGradGradGradGradGradGradGrad

                          Input orientation:                          
 ---------------------------------------------------------------------
 Center     Atomic      Atomic             Coordinates (Angstroms)
 Number     Number       Type             X           Y           Z
 ---------------------------------------------------------------------
      1          6           0        0.125158    2.057569   -0.131341
      2          1           0       -0.970559    2.030756    0.058951
      3          1           0        0.285081    2.820373   -0.918017
      4          1           0        0.599821    2.443109    0.790001
      5          6           0        0.674277    0.742819   -0.517551
      6          8           0        1.844976    0.366052   -0.409665
      7          8           0       -0.254621    0.001401   -1.170197
      8          6           0        0.102972   -1.338090   -1.637100
      9          1           0       -0.797190   -1.645610   -2.190067
     10          1           0        0.965210   -1.268844   -2.306701
     11          1           0        0.295350   -1.982522   -0.772984
     12          8           0        3.641516   -0.658968    0.776108
     13          1           0        3.964819   -1.329397    1.353707
     14          1           0        2.639290   -0.615400    0.446324
     15          1           0        4.224755    0.041178    0.484837
     16          6           0       -3.727284   -0.494213    0.503640
     17          1           0       -4.175234   -0.097036    1.426073
     18          1           0       -3.553799   -1.571129    0.584833
     19          1           0       -4.365401   -0.253573   -0.354455
     20          8           0       -2.475493    0.207709    0.401166
     21          1           0       -2.022340    0.026091   -0.472008
     22          8           0       -0.110405   -0.556837    1.313103
     23          1           0       -1.076547   -0.322575    1.324362
     24          1           0        0.019396   -1.096325    2.082851
 ---------------------------------------------------------------------
                    Distance matrix (angstroms):
                    1          2          3          4          5
     1  C    0.000000
     2  H    1.112441   0.000000
     3  H    1.107386   1.776117   0.000000
     4  H    1.105811   1.780608   1.777278   0.000000
     5  C    1.476231   2.167169   2.151297   2.146211   0.000000
     6  O    2.428264   3.304251   2.952183   2.702549   1.234556
     7  O    2.334797   2.478236   2.881227   3.245672   1.355912
     8  C    3.714606   3.921502   4.224104   4.520525   2.431041
     9  H    4.336197   4.313212   4.768063   5.248816   3.266055
    10  H    4.062376   4.497873   4.371809   4.847851   2.707856
    11  H    4.094265   4.289644   4.805095   4.703386   2.763389
    12  O    4.535175   5.387037   5.122649   4.344534   3.527473
    13  H    5.331032   6.109417   5.993479   5.086529   4.315478
    14  H    3.714743   4.492573   4.382723   3.692157   2.575866
    15  H    4.610011   5.579524   5.021250   4.359190   3.755392
    16  C    4.664343   3.764671   5.395058   5.237719   4.684743
    17  H    5.055812   4.082458   5.822408   5.445923   5.291577
    18  H    5.216807   4.463547   6.023358   5.780031   4.944313
    19  H    5.055321   4.112665   5.603010   5.765007   5.139820
    20  O    3.235572   2.388606   4.023310   3.821749   3.324370
    21  H    2.975685   2.325262   3.651182   3.782906   2.790613
    22  O    2.996169   3.001400   4.066922   3.126937   2.378261
    23  H    3.037804   2.674073   4.093949   3.277920   2.755557
    24  H    3.854981   3.854195   4.941287   3.812604   3.251678
                    6          7          8          9         10
     6  O    0.000000
     7  O    2.262672   0.000000
     8  C    2.728603   1.462911   0.000000
     9  H    3.767978   2.011756   1.100287   0.000000
    10  H    2.654358   2.095984   1.093898   1.805993   0.000000
    11  H    2.837101   2.096712   1.094989   1.820791   1.819433
    12  O    2.384173   4.405005   4.336597   5.428975   4.127744
    13  H    3.236937   5.093602   4.884554   5.944330   4.732854
    14  H    1.525418   3.371691   3.360929   4.452110   3.287655
    15  H    2.563011   4.775513   4.836744   5.934669   4.487034
    16  C    5.711765   3.886741   4.468305   4.143334   5.524270
    17  H    6.310888   4.703352   5.406135   5.185145   6.459945
    18  H    5.821380   4.054326   4.285238   3.912097   5.373432
    19  H    6.241455   4.198686   4.773647   4.247277   5.766927
    20  O    4.398746   2.728373   3.632148   3.600830   4.620734
    21  H    3.882730   1.900766   2.781255   2.692081   3.737433
    22  O    2.764628   2.549354   3.059344   3.732198   3.842770
    23  H    3.466461   2.646384   3.345563   3.765591   4.271863
    24  H    3.418175   3.444185   3.728736   4.384787   4.493605
                   11         12         13         14         15
    11  H    0.000000
    12  O    3.917691   0.000000
    13  H    4.291199   0.942136   0.000000
    14  H    2.974859   1.055989   1.757886   0.000000
    15  H    4.595400   0.956667   1.643466   1.716472   0.000000
    16  C    4.475088   7.375675   7.783867   6.367985   7.970063
    17  H    5.327009   7.863828   8.233129   6.904082   8.453688
    18  H    4.102298   7.255423   7.561694   6.267930   7.944522
    19  H    4.988690   8.096495   8.571334   7.059593   8.636090
    20  O    3.722003   6.189467   6.689368   5.180786   6.702839
    21  H    3.081688   5.840065   6.404425   4.794334   6.319966
    22  O    2.559096   3.791530   4.148005   2.883671   4.453904
    23  H    3.006058   4.761708   5.141004   3.829379   5.379677
    24  H    3.002879   3.875385   4.018996   3.126236   4.640323
                   16         17         18         19         20
    16  C    0.000000
    17  H    1.099679   0.000000
    18  H    1.093817   1.807434   0.000000
    19  H    1.096096   1.797484   1.810224   0.000000
    20  O    1.438811   2.008090   2.088239   2.086983   0.000000
    21  H    2.032102   2.872773   2.452221   2.362618   1.000382
    22  O    3.706881   4.092312   3.662803   4.580143   2.647603
    23  H    2.780189   3.108548   2.870987   3.693203   1.757994
    24  H    4.110238   4.361749   3.903488   5.086957   3.279183
                   21         22         23         24
    21  H    0.000000
    22  O    2.679911   0.000000
    23  H    2.059864   0.994201   0.000000
    24  H    3.457717   0.948898   1.541131   0.000000
 Stoichiometry    C4H15O5(1+)
 Framework group  C1[X(C4H15O5)]
 Deg. of freedom    66
 Full point group                 C1      NOp   1
 Largest Abelian subgroup         C1      NOp   1
 Largest concise Abelian subgroup C1      NOp   1
                         Standard orientation:                         
 ---------------------------------------------------------------------
 Center     Atomic      Atomic             Coordinates (Angstroms)
 Number     Number       Type             X           Y           Z
 ---------------------------------------------------------------------
      1          6           0       -0.107430    2.072100   -0.258829
[...]
 379,0.00013251,0.00016346,-0.00006902,0.00000604,0.00000199,-0.0000456
 5,-0.00000819,-0.00001486,-0.00002353,0.00003146,-0.00008331,0.0001207
 6,-0.00009830,0.00007866,0.00000083,0.00004249,-0.00006615,-0.00019547
 ,0.00020029,-0.00002721,-0.00002519,0.00000352,-0.00002538,0.40399333,
 -0.00111205,0.00027061,0.00007673,0.00106784,0.00037607,-0.00009811,0.
 00010583,0.00002008,-0.00004710,0.00012091,-0.00001877,-0.00002343,-0.
 00064393,-0.00194157,0.00098869,0.00041627,0.00046332,-0.00000024,0.00
 005812,0.00033821,-0.00027401,0.00009691,-0.00003005,-0.00004160,-0.00
 005267,0.00000775,0.00004091,-0.00004489,0.00001234,0.00002780,-0.0000
 6558,-0.00002665,0.00006067,0.00009601,0.00004411,-0.00002213,-0.00003
 918,-0.00001275,0.00000066,-0.00012198,-0.00004902,0.00000827,-0.00003
 980,-0.00003944,0.00001205,0.00831332,0.40101911,-0.00105093,-0.000939
 14,0.00037606,0.00071749,0.00088554,-0.00012151,0.00011847,0.00026494,
 -0.00019223,0.00013211,0.00029588,0.00006306,0.00264542,0.00095505,-0.
 00132887,-0.00145065,0.00025858,-0.00015710,-0.00052182,0.00034151,0.0
 0076950,0.00018781,-0.00022809,0.00008174,-0.00004056,-0.00002982,-0.0
 0017354,0.00009589,-0.00000457,-0.00005740,-0.00000723,-0.00008817,-0.
 00002142,-0.00050301,0.00024764,0.00003277,0.00007729,-0.00009780,0.00
 005512,0.00077294,-0.00056142,-0.00015215,0.00012832,0.00002370,-0.000
 02800,0.00642358,0.00695632,0.41481430,-0.00000037,0.00007721,-0.00036
 241,0.00003752,-0.00002718,0.00020304,0.00002353,-0.00001509,0.0000564
 0,-0.00004986,-0.00003751,0.00008913,-0.00029495,-0.00015532,0.0007061
 5,0.00012918,-0.00000311,-0.00009119,-0.00000568,-0.00011158,-0.000241
 12,-0.00004265,0.00000460,-0.00005755,0.00001982,0.00000021,0.00002539
 ,-0.00000669,0.00000447,0.00001333,0.00000290,0.00000306,0.00002368,0.
 00006551,-0.00002074,-0.00003002,-0.00001622,0.00000726,0.00000915,-0.
 00009541,0.00005462,0.00003434,-0.00001902,-0.00000574,0.00001323,-0.0
 5288298,-0.02921350,-0.05538964,0.05984456,0.00015864,-0.00028715,-0.0
 0019119,-0.00016436,0.00014596,0.00015905,-0.00002271,0.00003219,0.000
 02418,-0.00008833,0.00005724,0.00009270,0.00047518,0.00069411,-0.00022
 195,-0.00020615,-0.00014621,-0.00007038,-0.00005438,-0.00014461,0.0000
 7985,-0.00005151,-0.00000675,0.00000307,0.00002620,-0.00000193,-0.0000
 2043,0.00002225,-0.00000145,-0.00000933,0.00003241,0.00001757,-0.00002
 140,-0.00004737,-0.00002427,0.00000691,0.00001885,0.00000893,0.0000006
 0,0.00005056,0.00001736,-0.00000473,0.00002063,0.00002114,-0.00000382,
 -0.02599556,-0.07336743,-0.07130790,0.03013990,0.07831813,-0.00031315,
 -0.00012092,-0.00015967,0.00027402,0.00012278,0.00004591,0.00005326,0.
 00003684,0.00000380,0.00001776,0.00005517,0.00010983,0.00042330,0.0001
 1503,0.00014319,-0.00026165,0.00004908,-0.00013923,-0.00008782,-0.0000
 2617,-0.00001729,-0.00001743,-0.00003508,-0.00002474,0.00001724,0.0000
 0248,-0.00000689,0.00001986,0.00000022,0.00000122,0.00001734,-0.000000
 54,0.00000944,-0.00005693,0.00002540,-0.00003194,0.00000398,-0.0000096
 7,0.00002968,0.00009032,-0.00007300,0.00000800,0.00001313,0.00000635,0
 .00001134,-0.04481817,-0.06737863,-0.15813069,0.04736078,0.08480323,0.
 20494385,-0.00015952,0.00002335,-0.00016245,0.00016276,0.00011794,0.00
 008032,0.00001308,0.00000792,0.00002312,-0.00001343,-0.00000549,0.0000
 3775,-0.00030247,-0.00045163,0.00061679,0.00018117,0.00007634,-0.00004
 358,0.00001448,-0.00001828,-0.00021017,-0.00001250,0.00000374,-0.00004
 849,0.00000550,0.00000559,0.00003033,-0.00001347,0.00000604,0.00001451
 ,-0.00001337,-0.00000302,0.00003153,0.00006736,-0.00001260,-0.00002377
 ,-0.00001929,0.00000561,0.00000524,-0.00009365,0.00003469,0.00002362,-
 0.00002097,-0.00000874,0.00001103,-0.03508373,-0.01654029,0.00097453,0
 .00240450,-0.00916524,-0.00207401,0.04607897,0.00032670,0.00008000,-0.
 00009770,-0.00018887,-0.00007858,0.00004916,-0.00004484,-0.00003689,0.
 00003357,-0.00005258,-0.00004126,0.00000399,-0.00040665,0.00010188,0.0
 0019632,0.00026453,-0.00013760,0.00002015,0.00010756,-0.00017553,-0.00
 014481,-0.00008619,0.00005983,0.00001345,0.00002244,0.00001268,0.00001
 751,-0.00000638,-0.00000042,0.00000408,0.00003266,0.00004830,-0.000019
 83,0.00008733,-0.00008751,0.00000523,-0.00000227,0.00003600,-0.0000177
 7,-0.00016204,0.00015931,0.00003006,-0.00001405,0.00001180,0.00000015,
 -0.02303855,-0.21148903,0.02217233,-0.00357466,-0.01545997,-0.00502190
 ,0.03220992,0.24991668,0.00013182,0.00011597,-0.00005559,-0.00009840,-
 0.00015398,0.00000960,0.00000271,-0.00002731,0.00002885,0.00000532,-0.
 00002928,-0.00000427,-0.00018084,0.00002220,0.00018882,0.00003249,-0.0
 0001827,-0.00002856,0.00001256,-0.00006527,-0.00009401,-0.00003359,0.0
 0001007,-0.00003169,0.00002193,0.00000451,0.00002121,0.00000080,-0.000
 00180,0.00000720,0.00001065,0.00000255,0.00001518,0.00002436,-0.000001
 66,-0.00002130,-0.00000830,-0.00000161,0.00001081,-0.00002799,0.000015
 02,0.00002285,-0.00000864,-0.00000384,0.00000843,0.00041569,0.01605489
 ,-0.03695165,-0.00308962,-0.01829971,0.00169015,-0.01136157,-0.0307277
 3,0.04439060,0.00025100,0.00011300,-0.00016880,-0.00019165,-0.00007923
 ,0.00009930,-0.00002754,-0.00005106,0.00005439,-0.00005141,-0.00005306
 ,0.00002046,-0.00043452,-0.00012067,0.00032374,0.00024876,-0.00004945,
 0.00001408,0.00008233,-0.00005846,-0.00015415,-0.00001208,0.00004173,-
 0.00002959,-0.00000291,-0.00000097,0.00003617,-0.00002207,0.00000182,0
 .00001338,-0.00001500,-0.00000194,0.00001245,0.00010318,-0.00003265,-0
 .00001910,-0.00002124,0.00001170,-0.00000207,-0.00014199,0.00009116,0.
 00003111,-0.00003022,-0.00001041,0.00001109,-0.15106584,0.06377331,-0.
 05211153,-0.00818343,0.00262669,-0.01117657,0.00181115,0.00515142,-0.0
 0227438,0.19623247,0.00006912,-0.00025102,0.00001496,-0.00012544,0.000
 13799,0.00001400,-0.00003107,0.00004544,-0.00001498,-0.00003254,0.0000
 5424,0.00001803,0.00038635,0.00045302,-0.00021304,-0.00018626,-0.00007
 434,-0.00003389,-0.00005833,-0.00008371,0.00008150,-0.00003162,-0.0000
 1260,0.00000742,0.00002091,0.00000275,-0.00001922,0.00002029,-0.000001
 50,-0.00000938,0.00002408,0.00000957,-0.00001075,-0.00005462,-0.000004
 60,0.00000735,0.00001494,0.00000140,0.00000252,0.00006991,-0.00001732,
 -0.00001057,0.00001949,0.00001544,-0.00000521,0.06732128,-0.07093561,0
 .02909226,-0.00544552,0.00656829,-0.00340961,0.01772006,-0.01563624,0.
 01059795,-0.07917094,0.07598547,0.00014354,0.00017481,-0.00015681,-0.0
 0002892,-0.00009489,0.00007685,0.00000451,-0.00004162,0.00005965,-0.00
 002375,-0.00004173,0.00001019,-0.00043514,-0.00017722,0.00040485,0.000
 22866,-0.00002965,-0.00002422,0.00007432,-0.00009234,-0.00019344,-0.00
 005519,0.00003124,-0.00004191,0.00002321,0.00000544,0.00003930,-0.0000
 1115,0.00000123,0.00001433,0.00000948,0.00001778,0.00001319,0.00008176
 ,-0.00004081,-0.00001621,-0.00001277,0.00001514,-0.00000292,-0.0001287
 9,0.00009392,0.00003553,-0.00002024,-0.00000312,0.00000892,-0.06253852
 ,0.03145915,-0.06077515,-0.01776033,0.00518192,-0.01015420,-0.00330637
 ,0.00415902,0.00210323,0.05792500,-0.03501893,0.06783841,-0.00294689,-
 0.00349957,0.00136272,-0.00019453,0.00002258,-0.00002803,0.00007233,0.
 00061344,-0.00054143,0.00005842,0.00078537,0.00024029,0.00744583,0.006
 74530,-0.00768261,-0.00509648,-0.00050340,-0.00011885,-0.00191554,0.00
 063542,0.00364891,0.00051554,-0.00043105,0.00047978,-0.00012000,-0.000
 11399,-0.00056088,0.00032079,-0.00006178,-0.00023510,0.00003924,-0.000
 25170,-0.00025294,-0.00154773,0.00063371,0.00013070,0.00027257,-0.0002
 6352,0.00016320,0.00245183,-0.00146761,-0.00046111,0.00040762,0.000124
 66,-0.00009545,-0.16227664,-0.03571087,0.06497906,0.00388920,0.0030164
 8,0.00546802,-0.01427754,-0.00979423,0.01463977,-0.03801686,-0.0013032
 5,0.02405128,0.29117958,-0.00395465,0.00064909,0.00005038,0.00191134,-
 0.00201257,0.00011591,0.00042820,0.00003691,-0.00002933,0.00039473,-0.
 00000299,0.00003465,-0.00193485,-0.00444295,0.00217195,0.00092296,0.00
 095389,0.00004785,0.00021845,0.00101099,-0.00062749,0.00027675,-0.0000
 8173,-0.00012529,-0.00014469,0.00000778,0.00014756,-0.00012176,0.00004
 322,0.00007387,-0.00022063,-0.00008231,0.00014059,0.00023881,0.0000849
 1,-0.00005610,-0.00009233,-0.00001842,0.00000167,-0.00029844,-0.000096
 07,0.00001694,-0.00009416,-0.00008605,0.00003441,-0.02984472,-0.044812
 42,0.01159423,0.00959572,0.00357067,-0.00908920,-0.02213864,-0.0090857
 4,0.01993686,0.00749550,0.00351110,-0.00612491,0.04723175,0.09730341,0
 .00206593,0.00060574,0.00241453,-0.00124828,-0.00065883,-0.00174424,-0
 .00047764,-0.00032234,-0.00027862,0.00005976,-0.00015890,-0.00054443,-
 0.00038249,0.00185914,-0.00609576,0.00025687,-0.00082365,0.00112563,0.
 00121738,0.00052077,0.00151683,0.00031903,0.00036061,0.00055888,-0.000
 24084,-0.00000557,-0.00005824,-0.00008644,-0.00005133,-0.00007647,-0.0
 0008531,0.00001176,-0.00027013,0.00009992,-0.00011855,0.00019698,0.000
 02613,0.00005400,-0.00012567,-0.00010067,0.00023901,-0.00011678,-0.000
 01971,0.00000933,-0.00006703,0.09593295,0.02642667,-0.12071953,0.02486
 600,-0.00060998,-0.03560291,0.01575033,0.00812308,-0.01184745,0.006050
 90,-0.00052809,0.00004926,-0.08092242,0.02765622,0.34388899,0.00016391
 ,0.00049675,0.00042744,-0.00003639,-0.00049616,-0.00041232,-0.00009262
 ,-0.00017427,0.00000609,0.00002562,-0.00009801,-0.00007873,-0.00117702
 ,-0.00061175,-0.00130014,0.00062974,-0.00014514,0.00044366,0.00063366,
 0.00034014,0.00012705,0.00011053,0.00019937,0.00011971,-0.00008560,0.0
 0001288,0.00010651,-0.00006968,-0.00001338,0.00001417,-0.00007453,0.00
 000326,-0.00005003,0.00019423,-0.00007105,0.00001259,-0.00003048,0.000
 03155,-0.00003093,-0.00026586,0.00017782,0.00001561,-0.00005635,-0.000
 01990,0.00000663,0.00500585,0.01087277,0.02962609,-0.00471594,-0.00135
 924,0.00391417,0.00007701,-0.00000460,0.00121516,-0.00048663,0.0003786
 3,0.00229766,-0.05342108,-0.02717875,-0.05457607,0.05265335,0.00054536
 ,-0.00021075,0.00034808,-0.00064865,-0.00009614,-0.00062311,-0.0002426
 7,-0.00004246,-0.00006266,-0.00006573,-0.00003750,-0.00005706,-0.00015
 856,0.00069312,0.00058625,0.00024329,-0.00022735,-0.00012873,0.0000008
 8,-0.00075460,-0.00034615,-0.00032833,0.00010503,-0.00001424,0.0001764
 0,0.00004938,0.00000034,0.00004963,-0.00003018,-0.00000637,0.00018146,
 0.00009704,0.00000930,0.00006562,-0.00012408,-0.00001295,0.00000859,0.
 00004283,-0.00000686,-0.00016184,0.00022406,0.00007027,-0.00000009,0.0
 0003181,0.00000039,0.00377538,-0.00202783,0.00448524,-0.00158732,0.000
 12163,0.00050952,-0.00177194,0.00104446,0.00262989,0.00072982,0.000666
 07,-0.00075460,-0.01906897,-0.03417396,-0.06800966,0.02105559,0.031691
 03,0.00034717,0.00015164,-0.00117089,-0.00069020,-0.00049292,0.0006619
 6,0.00006784,-0.00000443,0.00029926,-0.00013124,-0.00007455,0.00015509
 ,-0.00135451,-0.00061204,0.00317778,0.00045925,0.00004740,-0.00041960,
 -0.00011658,-0.00053962,-0.00122701,-0.00030263,-0.00004385,-0.0004035
 9,0.00021506,-0.00000490,0.00016748,0.00001732,0.00002034,0.00006472,0
 .00003439,0.00001005,0.00016231,0.00014045,-0.00004494,-0.00011236,-0.
 00003560,0.00000738,0.00004069,-0.00023631,0.00014221,0.00013820,-0.00
 003516,-0.00000892,0.00004488,0.00425853,-0.01047085,-0.04142618,0.003
 12194,0.00021230,-0.00316761,-0.00028858,0.00146896,0.00020718,0.00085
 535,-0.00109269,0.00172620,-0.02332302,-0.04928702,-0.16496588,0.02106
 297,0.05999524,0.20912777,0.00675836,-0.00367539,0.00364240,-0.0036277
 6,-0.00118345,0.00059773,-0.00027496,-0.00048301,-0.00082375,-0.001071
 94,0.00020314,0.00068003,0.00569504,0.00665427,-0.03640336,-0.05577877
 ,-0.02125150,0.00263479,0.00086519,0.00506106,0.02703099,0.00149067,0.
 00112666,0.00161353,-0.00061734,-0.00059076,-0.00063627,0.00025173,-0.
 00029117,-0.00047703,-0.00128248,-0.00067249,0.00006762,-0.00319908,0.
 00190144,0.00029233,0.00049626,-0.00077059,0.00040995,0.00485063,-0.00
 496603,-0.00055539,0.00087855,0.00003845,-0.00018750,-0.00043243,0.004
 33329,-0.00435056,0.00014854,-0.00084982,-0.00080049,0.00089845,0.0005
 8346,-0.00026946,0.00015896,-0.00075013,0.00105850,-0.03586451,0.00982
 228,-0.00996702,-0.00139073,0.00275360,0.00298732,0.24681301,-0.003837
 89,-0.02117650,0.01461488,-0.00153352,0.00033021,-0.00045316,0.0007783
 9,-0.00107940,-0.00132811,0.00015539,0.00105129,0.00042165,0.01276413,
 -0.03354020,-0.01178500,-0.02750240,0.00017667,-0.00284692,0.00067820,
 0.01073412,0.00984407,0.00250396,0.00001371,-0.00166323,-0.00041559,-0
 .00006023,0.00001758,-0.00009737,-0.00014539,0.00006500,-0.00104137,-0
 .00054534,0.00133502,-0.00104706,0.00166505,-0.00031452,-0.00021554,-0
 .00054058,0.00037896,0.00228677,-0.00427469,-0.00025451,0.00020163,-0.
 00030835,0.00008373,-0.00005984,0.00133353,-0.00026393,0.00000588,-0.0
 0050060,-0.00014520,0.00040866,-0.00022023,-0.00001518,0.00012613,-0.0
 0024372,0.00003663,-0.00507960,0.00422764,-0.00185333,0.00030467,-0.00
 034660,0.00094972,0.02438852,0.09551995,0.00277509,0.01225924,-0.00036
 732,0.00104009,-0.00016580,-0.00148395,-0.00043321,0.00056124,0.000563
 94,0.00022484,0.00036750,-0.00201878,-0.03464466,-0.00081194,-0.008509
 14,0.01761505,-0.00171867,0.01481708,0.01463223,0.00021338,-0.04860971
 ,0.00060509,0.00067636,-0.00105244,0.00014072,0.00028647,0.00053029,-0
 .00052243,0.00020572,-0.00018958,0.00020923,0.00064229,-0.00101700,0.0
 0054155,-0.00124493,0.00122239,0.00032934,0.00044356,-0.00077234,-0.00
 117014,0.00262253,-0.00140528,-0.00020436,0.00028004,-0.00034831,0.001
 05987,0.00115225,-0.00113823,-0.00074898,0.00001817,-0.00056059,-0.000
 29691,0.00019614,-0.00034463,-0.00040265,-0.00011980,0.00035179,-0.009
 85770,0.00187910,0.00217320,0.00030273,0.00066265,-0.00083781,0.036778
 02,0.03233445,0.27166792,-0.00376534,0.00303807,-0.00298640,0.00435299
 ,0.00017825,0.00036710,0.00047133,-0.00012151,0.00077103,0.00041859,-0
 .00075977,-0.00009170,-0.02296897,-0.01901132,0.02420521,0.00709983,0.
 00163971,-0.00073167,0.00028705,-0.00144636,-0.00659962,-0.00121778,-0
 .00001585,-0.00120736,0.00043185,0.00028308,0.00092048,-0.00047037,0.0
 0018453,0.00049152,0.00015260,0.00052607,0.00066406,0.00253526,-0.0009
 2545,-0.00039653,-0.00050657,0.00040732,-0.00017163,-0.00417689,0.0019
 5539,0.00086048,-0.00066255,-0.00024150,0.00021067,-0.00721784,-0.0061
 2764,0.00864434,0.00011928,0.00132938,0.00204884,-0.00156638,-0.001361
 98,0.00098051,0.00004017,0.00114910,-0.00169844,0.01164104,0.00708526,
 0.00084826,0.00250538,-0.00586788,-0.00673726,-0.12687201,0.00377817,-
 0.04054838,0.14100093,0.00212781,-0.00033163,-0.00014453,-0.00094508,-
 0.00183381,0.00092138,-0.00021810,-0.00042082,0.00010573,-0.00053298,-
 0.00045920,0.00015750,-0.00554881,0.00772005,-0.00805401,-0.00589037,-
 0.00289973,0.00031030,0.00011313,-0.00104444,0.00288303,-0.00027734,0.
 00022094,0.00008650,0.00014236,-0.00009582,-0.00018234,0.00011764,-0.0
 0011749,-0.00007821,0.00037847,0.00012368,-0.00027675,-0.00022958,0.00
 002584,0.00001207,0.00008039,-0.00001185,0.00002608,0.00012283,-0.0005
 2597,0.00029481,0.00012757,0.00003597,-0.00002607,-0.00033561,0.001344
 14,-0.00390543,0.00013666,0.00011456,-0.00051643,-0.00042730,0.0008276
 0,-0.00001676,-0.00058259,-0.00024942,0.00121534,0.01689213,-0.0156150
 5,0.00742111,-0.00363048,0.00327408,-0.00045755,-0.00440441,-0.0172030
 3,0.00471277,0.01414114,0.02725455,-0.00179394,0.00039825,-0.00189843,
 0.00110720,0.00085244,0.00067057,0.00031717,0.00015387,0.00024397,0.00
 013186,-0.00012133,0.00026416,0.00242135,-0.00779754,0.01690699,0.0041
 4271,0.00239740,-0.00131481,-0.00167767,-0.00198390,-0.00454438,-0.000
 65100,-0.00028578,-0.00065756,0.00029775,0.00011653,0.00010167,0.00000
 446,0.00007324,0.00016984,0.00029996,0.00014840,0.00041463,0.00069365,
 -0.00026921,-0.00025338,-0.00016611,0.00010374,0.00002404,-0.00121901,
 0.00071787,0.00028346,-0.00018989,-0.00005016,0.00009920,0.00050315,-0
 .00445051,0.00444713,0.00097256,0.00003403,0.00051647,0.00015935,-0.00
 036004,0.00057945,0.00082657,0.00053830,-0.00122210,0.00496566,0.00251
 921,-0.00897760,-0.00311692,0.00078608,-0.00218105,-0.00672312,0.00576
 860,-0.04173723,0.03050866,0.00285835,0.05548432,-0.00085740,-0.000241
 57,-0.00039757,0.00035007,0.00036221,-0.00029460,0.00002609,0.00008848
 ,0.00005649,0.00028761,-0.00009255,0.00015405,0.00758490,0.00654808,0.
 00882747,-0.00268280,0.00088121,-0.00413993,-0.00131927,-0.00105530,0.
 00241267,-0.00005543,-0.00038181,-0.00015843,0.00005317,-0.00001234,-0
 .00002202,0.00008640,-0.00000881,0.00008299,0.00021683,-0.00007319,-0.
 00006173,0.00056626,-0.00008996,-0.00044702,-0.00019937,0.00007355,0.0
 0015622,-0.00115345,-0.00004471,0.00087997,-0.00012054,-0.00009727,0.0
 0014286,0.00029211,0.00045748,-0.00009740,-0.00037140,0.00008755,-0.00
 011576,-0.00013812,-0.00004819,-0.00014095,-0.00022461,-0.00000423,0.0
 0012157,-0.00261624,0.00040217,0.00061343,-0.00009633,0.00031627,-0.00
 031641,-0.03889296,-0.00755117,0.01257463,-0.00163177,-0.01135741,-0.0
 3181405,0.04089605,0.00010948,-0.00100661,-0.00195487,-0.00002550,-0.0
 0043368,0.00113425,0.00003333,-0.00036613,0.00015199,-0.00035300,-0.00
 079294,0.00100752,0.00904533,0.01168907,0.00552330,-0.00293395,-0.0018
 1025,-0.00266324,-0.00182452,-0.00049387,0.00647460,-0.00005491,-0.000
 55614,-0.00006594,0.00001100,-0.00008105,-0.00006280,0.00003203,0.0000
 4551,-0.00000762,0.00002778,-0.00003799,-0.00014805,0.00006789,-0.0002
 3648,0.00001397,0.00011633,0.00006235,-0.00004361,-0.00036874,0.000614
 06,0.00004992,0.00008464,0.00005068,0.00000584,0.00006713,-0.00047847,
 -0.00014701,0.00016766,0.00025264,0.00010032,-0.00007664,0.00015060,-0
 .00002733,0.00004913,0.00005932,0.00002830,0.00084889,-0.00088977,-0.0
 0014767,-0.00007083,0.00003082,0.00012927,-0.01697763,-0.03486719,-0.0
 5545274,0.00018378,-0.00013296,-0.00214801,0.01184167,0.02922844,-0.00
 106680,-0.00177647,0.00024611,-0.00033569,0.00077986,-0.00004808,0.000
 20573,0.00013260,-0.00024343,0.00015407,0.00056475,0.00065069,0.013483
 64,0.00413894,-0.01786796,-0.00291242,0.00119372,-0.00238243,0.0005991
 1,0.00127270,-0.00120555,0.00012528,0.00015580,-0.00002951,-0.00000957
 ,-0.00002752,-0.00021670,0.00020350,-0.00006041,-0.00006398,-0.0000418
 1,-0.00006047,0.00013776,-0.00075394,0.00043858,-0.00036460,-0.0000184
 9,-0.00013268,0.00036376,0.00163876,-0.00119098,0.00015778,0.00012280,
 0.00004433,0.00011356,-0.00064082,-0.00045821,0.00073400,0.00027585,0.
 00014483,0.00048301,0.00005754,-0.00010350,0.00009540,0.00006475,0.000
 11189,-0.00014473,0.00395013,-0.00108260,-0.00043378,-0.00013299,-0.00
 006059,-0.00006129,-0.01659925,-0.04492712,-0.18093376,-0.01035232,-0.
 00734693,-0.01741955,0.01198354,0.04824956,0.21843308||0.00000077,-0.0
 0000653,-0.00000417,0.00000045,-0.00000016,0.00000038,0.00000178,0.000
 00189,0.00000100,-0.00000109,0.00000166,0.00000092,-0.00001872,0.00000
 146,-0.00000663,0.00002339,0.00000215,0.00001033,0.00001291,0.00000177
 ,-0.00000241,-0.00001128,0.00000518,0.00000297,-0.00000115,-0.00000112
 ,-0.00000056,0.00000039,0.00000002,-0.00000068,0.00000217,-0.00000143,
 0.00000054,0.00000543,0.00001302,0.00000108,-0.00000667,0.00000389,-0.
 00000049,-0.00000733,-0.00001520,-0.00000111,-0.00000250,-0.00000443,-
 0.00000138,0.00000384,-0.00000665,0.00000560,-0.00000045,0.00000015,0.
 00000170,-0.00000125,0.00000032,0.00000013,-0.00000037,0.00000154,0.00
 000068,0.00000080,0.00000727,-0.00001142,0.00000273,-0.00000186,0.0000
 0033,-0.00000042,0.00000506,0.00002466,-0.00000909,-0.00000667,-0.0000
 0392,0.00000567,-0.00000133,-0.00001755|||@


 BLESSED ARE THOSE WHO NOUGHT EXPECT,
 FOR THEY SHALL NOT BE DISAPPOINTED..  WALCOT - ODE TO PITT
 Job cpu time:  0 days  0 hours  0 minutes  2.0 seconds.
 File lengths (MBytes):  RWF=     26 Int=      0 D2E=      0 Chk=      3 Scr=      1
 Normal termination of Gaussian 09 at Thu Oct 01 18:26:46 2015.
