 Entering Link 1 = C:\G09W\l1.exe PID=      5664.
  
 Copyright (c) 1988,1990,1992,1993,1995,1998,2003,2009, Gaussian, Inc.
                  All Rights Reserved.
  
 This is part of the Gaussian(R) 09 program.  It is based on
 the Gaussian(R) 03 system (copyright 2003, Gaussian, Inc.),
 the Gaussian(R) 98 system (copyright 1998, Gaussian, Inc.),
 the Gaussian(R) 94 system (copyright 1995, Gaussian, Inc.),
 the Gaussian 92(TM) system (copyright 1992, Gaussian, Inc.),
 the Gaussian 90(TM) system (copyright 1990, Gaussian, Inc.),
 the Gaussian 88(TM) system (copyright 1988, Gaussian, Inc.),
 the Gaussian 86(TM) system (copyright 1986, Carnegie Mellon
 University), and the Gaussian 82(TM) system (copyright 1983,
 Carnegie Mellon University). Gaussian is a federally registered
 trademark of Gaussian, Inc.
  
 This software contains proprietary and confidential information,
 including trade secrets, belonging to Gaussian, Inc.
  
 This software is provided under written license and may be
 used, copied, transmitted, or stored only in accord with that
 written license.
  
 The following legend is applicable only to US Government
 contracts under FAR:
  
                    RESTRICTED RIGHTS LEGEND
  
 Use, reproduction and disclosure by the US Government is
 subject to restrictions as set forth in subparagraphs (a)
 and (c) of the Commercial Computer Software - Restricted
 Rights clause in FAR 52.227-19.
  
 Gaussian, Inc.
 340 Quinnipiac St., Bldg. 40, Wallingford CT 06492
  
  
 ---------------------------------------------------------------
 Warning -- This program may not be used in any manner that
 competes with the business of Gaussian, Inc. or will provide
 assistance to any competitor of Gaussian, Inc.  The licensee
 of this program is prohibited from giving any competitor of
 Gaussian, Inc. access to this program.  By using this program,
 the user acknowledges that Gaussian, Inc. is engaged in the
 business of creating and licensing software in the field of
 computational chemistry and represents and warrants to the
 licensee that it is not a competitor of Gaussian, Inc. and that
 it will not use this program in any manner prohibited above.
 ---------------------------------------------------------------
  

 Cite this work as:
 Gaussian 09, Revision A.02,
 M. J. Frisch, G. W. Trucks, H. B. Schlegel, G. E. Scuseria, 
 M. A. Robb, J. R. Cheeseman, G. Scalmani, V. Barone, B. Mennucci, 
 G. A. Petersson, H. Nakatsuji, M. Caricato, X. Li, H. P. Hratchian, 
 A. F. Izmaylov, J. Bloino, G. Zheng, J. L. Sonnenberg, M. Hada, 
 M. Ehara, K. Toyota, R. Fukuda, J. Hasegawa, M. Ishida, T. Nakajima, 
 Y. Honda, O. Kitao, H. Nakai, T. Vreven, J. A. Montgomery, Jr., 
 J. E. Peralta, F. Ogliaro, M. Bearpark, J. J. Heyd, E. Brothers, 
 K. N. Kudin, V. N. Staroverov, R. Kobayashi, J. Normand, 
 K. Raghavachari, A. Rendell, J. C. Burant, S. S. Iyengar, J. Tomasi, 
 M. Cossi, N. Rega, J. M. Millam, M. Klene, J. E. Knox, J. B. Cross, 
 V. Bakken, C. Adamo, J. Jaramillo, R. Gomperts, R. E. Stratmann, 
 O. Yazyev, A. J. Austin, R. Cammi, C. Pomelli, J. W. Ochterski, 
 R. L. Martin, K. Morokuma, V. G. Zakrzewski, G. A. Voth, 
 P. Salvador, J. J. Dannenberg, S. Dapprich, A. D. Daniels, 
 O. Farkas, J. B. Foresman, J. V. Ortiz, J. Cioslowski, 
 and D. J. Fox, Gaussian, Inc., Wallingford CT, 2009.
 
 ******************************************
 Gaussian 09:  IA32W-G09RevA.02 11-Jun-2009
                01-Oct-2015 
 ******************************************
 %chk=C:\Users\214584429\Google Drive\214584429 MONSURAT\Silva-2014remix\meohac-h
 30f.chk
 ------------------------------------------------
 # freq=noraman x3lyp/6-31+g(d) geom=connectivity
 ------------------------------------------------
 1/10=4,30=1,38=1,57=2/1,3;
 2/12=2,17=6,18=5,40=1/2;
 3/5=1,6=6,7=11,11=2,16=1,25=1,30=1,71=2,74=-33/1,2,3;
 4//1;
 5/5=2,38=5,98=1/2;
 8/6=4,10=90,11=11/1;
 11/6=1,8=1,9=11,15=111,16=1/1,2,10;
 10/6=1/2;
 6/7=2,8=2,9=2,10=2,18=1,28=1/1;
 7/8=1,10=1,25=1/1,2,3,16;
 1/10=4,30=1/3;
 99//99;
 -------------------
 Title Card Required
 -------------------
 Symbolic Z-matrix:
 Charge =  1 Multiplicity = 1
 C                    -0.0714    1.84626   0.01492 
 H                     0.69902   2.54122  -0.39326 
 H                    -0.24433   2.20881   1.05409 
 H                    -1.00248   2.04771  -0.54602 
 C                     0.3536    0.43983  -0.013 
 O                    -0.41035  -0.59277  -0.02499 
 O                     1.65336   0.24669  -0.01016 
 C                     2.18626  -1.12977   0.00852 
 H                     3.20299  -0.972    -0.38881 
 H                     2.20562  -1.46244   1.05352 
 H                     1.59499  -1.7957   -0.62845 
 O                    -2.90852  -0.52373   0.05322 
 H                    -3.06394  -1.35008   0.59166 
 H                    -3.28867  -0.74285  -0.83859 
 H                    -1.58982  -0.45408  -0.11136 
 

 GradGradGradGradGradGradGradGradGradGradGradGradGradGradGradGradGradGrad
 Berny optimization.
 Initialization pass.
 Trust Radius=3.00D-01 FncErr=1.00D-07 GrdErr=1.00D-07
 Number of steps in this run=   2 maximum allowed number of steps=   2.
 GradGradGradGradGradGradGradGradGradGradGradGradGradGradGradGradGradGrad

                          Input orientation:                          
 ---------------------------------------------------------------------
 Center     Atomic      Atomic             Coordinates (Angstroms)
 Number     Number       Type             X           Y           Z
 ---------------------------------------------------------------------
      1          6           0       -0.071399    1.846257    0.014920
      2          1           0        0.699021    2.541219   -0.393258
      3          1           0       -0.244326    2.208812    1.054092
      4          1           0       -1.002481    2.047705   -0.546024
      5          6           0        0.353595    0.439832   -0.012998
      6          8           0       -0.410352   -0.592769   -0.024991
      7          8           0        1.653359    0.246691   -0.010158
      8          6           0        2.186260   -1.129770    0.008517
      9          1           0        3.202992   -0.971995   -0.388814
     10          1           0        2.205623   -1.462442    1.053524
     11          1           0        1.594986   -1.795704   -0.628450
     12          8           0       -2.908522   -0.523734    0.053223
     13          1           0       -3.063938   -1.350082    0.591657
     14          1           0       -3.288668   -0.742854   -0.838591
     15          1           0       -1.589824   -0.454081   -0.111364
 ---------------------------------------------------------------------
                    Distance matrix (angstroms):
                    1          2          3          4          5
     1  C    0.000000
     2  H    1.114957   0.000000
     3  H    1.114104   1.759324   0.000000
     4  H    1.105510   1.778202   1.777955   0.000000
     5  C    1.469500   2.163272   2.150693   2.169865   0.000000
     6  O    2.462789   3.344878   3.006799   2.755757   1.284532
     7  O    2.352452   2.514435   2.929805   3.253351   1.314039
     8  C    3.735479   3.981138   4.259942   4.535629   2.413043
     9  H    4.339030   4.314228   4.907496   5.179701   3.202117
    10  H    4.148616   4.515787   4.413656   5.017132   2.861140
    11  H    4.056432   4.434746   4.717008   4.639550   2.630105
    12  O    3.696971   4.754750   3.945439   3.256438   3.402095
    13  H    4.416390   5.502012   4.563966   4.133870   3.904988
    14  H    4.216965   5.185086   4.643555   3.619318   3.917452
    15  H    2.759188   3.780225   3.203069   2.606307   2.141409
                    6          7          8          9         10
     6  O    0.000000
     7  O    2.227962   0.000000
     8  C    2.651770   1.476136   0.000000
     9  H    3.651361   2.007471   1.102955   0.000000
    10  H    2.960211   2.087475   1.096852   1.820885   0.000000
    11  H    2.415077   2.134729   1.094897   1.822527   1.820159
    12  O    2.500347   4.626914   5.130895   6.143854   5.294927
    13  H    2.827596   5.016449   5.287076   6.354422   5.290956
    14  H    2.994858   5.107752   5.553569   6.511256   5.855351
    15  H    1.190735   3.319572   3.837934   4.828695   4.096239
                   11         12         13         14         15
    11  H    0.000000
    12  O    4.729077   0.000000
    13  H    4.836612   0.998457   0.000000
    14  H    5.000273   0.993910   1.569980   0.000000
    15  H    3.494330   1.330753   1.862812   1.870380   0.000000
 Stoichiometry    C3H9O3(1+)
 Framework group  C1[X(C3H9O3)]
 Deg. of freedom    39
 Full point group                 C1      NOp   1
 Largest Abelian subgroup         C1      NOp   1
 Largest concise Abelian subgroup C1      NOp   1
                         Standard orientation:                         
 ---------------------------------------------------------------------
 Center     Atomic      Atomic             Coordinates (Angstroms)
 Number     Number       Type             X           Y           Z
 ---------------------------------------------------------------------
      1          6           0       -0.071399    1.846257    0.014920
      2          1           0        0.699021    2.541219   -0.393258
      3          1           0       -0.244326    2.208812    1.054092
      4          1           0       -1.002481    2.047705   -0.546024
      5          6           0        0.353595    0.439832   -0.012998
      6          8           0       -0.410352   -0.592769   -0.024991
      7          8           0        1.653359    0.246691   -0.010158
      8          6           0        2.186260   -1.129770    0.008517
      9          1           0        3.202992   -0.971995   -0.388814
     10          1           0        2.205623   -1.462442    1.053524
     11          1           0        1.594986   -1.795704   -0.628450
     12          8           0       -2.908522   -0.523734    0.053223
     13          1           0       -3.063938   -1.350082    0.591657
     14          1           0       -3.288668   -0.742854   -0.838591
     15          1           0       -1.589824   -0.454081   -0.111364
 ---------------------------------------------------------------------
 Rotational constants (GHZ):      5.1322951      1.7589404      1.3403909
 Standard basis: 6-31+G(d) (6D, 7F)
 There are   132 symmetry adapted basis functions of A   symmetry.
 Integral buffers will be    262144 words long.
 Raffenetti 2 integral format.
 Two-electron integral symmetry is turned on.
   132 basis functions,   228 primitive gaussians,   132 cartesian basis functions
    25 alpha electrons       25 beta electrons
       nuclear repulsion energy       257.2299386589 Hartrees.
 NAtoms=   15 NActive=   15 NUniq=   15 SFac= 7.50D-01 NAtFMM=   80 NAOKFM=F Big=F
 One-electron integrals computed using PRISM.
 NBasis=   132 RedAO= T  NBF=   132
 NBsUse=   132 1.00D-06 NBFU=   132
 Harris functional with IExCor= 3102 diagonalized for initial guess.
 ExpMin= 4.38D-02 ExpMax= 5.48D+03 ExpMxC= 8.25D+02 IAcc=2 IRadAn=         0 AccDes= 0.00D+00
 HarFok:  IExCor= 3102 AccDes= 0.00D+00 IRadAn=         0 IDoV= 1
 ScaDFX=  1.000000  1.000000  1.000000  1.000000
 FoFCou: FMM=F IPFlag=           0 FMFlag=      100000 FMFlg1=           0
         NFxFlg=           0 DoJE=T BraDBF=F KetDBF=T FulRan=T
         Omega=  0.000000  0.000000  1.000000  0.000000  0.000000 ICntrl=     500 IOpCl=  0
         NMat0=    1 NMatS0=    1 NMatT0=    0 NMatD0=    1 NMtDS0=    0 NMtDT0=    0
         I1Cent=           4 NGrid=           0.
 Petite list used in FoFCou.
 Initial guess orbital symmetries:
       Occupied  (A) (A) (A) (A) (A) (A) (A) (A) (A) (A) (A) (A)
                 (A) (A) (A) (A) (A) (A) (A) (A) (A) (A) (A) (A)
                 (A)
       Virtual   (A) (A) (A) (A) (A) (A) (A) (A) (A) (A) (A) (A)
                 (A) (A) (A) (A) (A) (A) (A) (A) (A) (A) (A) (A)
                 (A) (A) (A) (A) (A) (A) (A) (A) (A) (A) (A) (A)
                 (A) (A) (A) (A) (A) (A) (A) (A) (A) (A) (A) (A)
                 (A) (A) (A) (A) (A) (A) (A) (A) (A) (A) (A) (A)
                 (A) (A) (A) (A) (A) (A) (A) (A) (A) (A) (A) (A)
                 (A) (A) (A) (A) (A) (A) (A) (A) (A) (A) (A) (A)
                 (A) (A) (A) (A) (A) (A) (A) (A) (A) (A) (A) (A)
                 (A) (A) (A) (A) (A) (A) (A) (A) (A) (A) (A)
 The electronic state of the initial guess is 1-A.
 Requested convergence on RMS density matrix=1.00D-08 within 128 cycles.
 Requested convergence on MAX density matrix=1.00D-06.
 Requested convergence on             energy=1.00D-06.
 No special actions if energy rises.
 SCF Done:  E(RX3LYP) =  -345.022205269     A.U. after   12 cycles
             Convg  =    0.7702D-08             -V/T =  2.0098
 Range of M.O.s used for correlation:     1   132
 NBasis=   132 NAE=    25 NBE=    25 NFC=     0 NFV=     0
 NROrb=    132 NOA=    25 NOB=    25 NVA=   107 NVB=   107

 **** Warning!!: The largest alpha MO coefficient is  0.36604492D+02

 Symmetrizing basis deriv contribution to polar:
 IMax=3 JMax=2 DiffMx= 0.00D+00
 G2DrvN: will do    16 centers at a time, making    1 passes doing MaxLOS=2.
 Calling FoFCou, ICntrl=  3107 FMM=F I1Cent=   0 AccDes= 0.00D+00.
 FoFDir/FoFCou used for L=0 through L=2.
 End of G2Drv Frequency-dependent properties file   721 does not exist.
 End of G2Drv Frequency-dependent properties file   722 does not exist.
          IDoAtm=111111111111111
          Differentiating once with respect to electric field.
                with respect to dipole field.
          Differentiating once with respect to nuclear coordinates.
          There are    48 degrees of freedom in the 1st order CPHF.  IDoFFX=5.
     45 vectors produced by pass  0 Test12= 5.57D-15 2.08D-09 XBig12= 3.92D+01 3.63D+00.
 AX will form    45 AO Fock derivatives at one time.
     45 vectors produced by pass  1 Test12= 5.57D-15 2.08D-09 XBig12= 8.10D+00 1.03D+00.
     45 vectors produced by pass  2 Test12= 5.57D-15 2.08D-09 XBig12= 5.84D-02 4.15D-02.
     45 vectors produced by pass  3 Test12= 5.57D-15 2.08D-09 XBig12= 1.41D-04 1.25D-03.
     45 vectors produced by pass  4 Test12= 5.57D-15 2.08D-09 XBig12= 1.96D-07 4.79D-05.
     25 vectors produced by pass  5 Test12= 5.57D-15 2.08D-09 XBig12= 1.30D-10 1.46D-06.
      3 vectors produced by pass  6 Test12= 5.57D-15 2.08D-09 XBig12= 8.54D-14 3.29D-08.
 Inverted reduced A of dimension   253 with in-core refinement.
 Isotropic polarizability for W=    0.000000       50.94 Bohr**3.
 End of Minotr Frequency-dependent properties file   721 does not exist.
 End of Minotr Frequency-dependent properties file   722 does not exist.

 **********************************************************************

            Population analysis using the SCF density.

 **********************************************************************

 Orbital symmetries:
       Occupied  (A) (A) (A) (A) (A) (A) (A) (A) (A) (A) (A) (A)
                 (A) (A) (A) (A) (A) (A) (A) (A) (A) (A) (A) (A)
                 (A)
       Virtual   (A) (A) (A) (A) (A) (A) (A) (A) (A) (A) (A) (A)
                 (A) (A) (A) (A) (A) (A) (A) (A) (A) (A) (A) (A)
                 (A) (A) (A) (A) (A) (A) (A) (A) (A) (A) (A) (A)
                 (A) (A) (A) (A) (A) (A) (A) (A) (A) (A) (A) (A)
                 (A) (A) (A) (A) (A) (A) (A) (A) (A) (A) (A) (A)
                 (A) (A) (A) (A) (A) (A) (A) (A) (A) (A) (A) (A)
                 (A) (A) (A) (A) (A) (A) (A) (A) (A) (A) (A) (A)
                 (A) (A) (A) (A) (A) (A) (A) (A) (A) (A) (A) (A)
                 (A) (A) (A) (A) (A) (A) (A) (A) (A) (A) (A)
 The electronic state is 1-A.
 Alpha  occ. eigenvalues --  -19.45163 -19.43382 -19.42175 -10.56956 -10.42793
 Alpha  occ. eigenvalues --  -10.39997  -1.32577  -1.27383  -1.23727  -0.96648
 Alpha  occ. eigenvalues --   -0.88710  -0.81339  -0.76967  -0.73017  -0.70286
 Alpha  occ. eigenvalues --   -0.68181  -0.66961  -0.61250  -0.60635  -0.58608
 Alpha  occ. eigenvalues --   -0.57528  -0.56428  -0.54248  -0.53238  -0.51177
 Alpha virt. eigenvalues --   -0.21476  -0.17569  -0.12411  -0.10729  -0.09306
 Alpha virt. eigenvalues --   -0.08570  -0.07060  -0.06797  -0.06153  -0.05455
 Alpha virt. eigenvalues --   -0.04920  -0.02849  -0.02342  -0.01711  -0.00599
 Alpha virt. eigenvalues --    0.01368   0.01740   0.02386   0.03013   0.03667
 Alpha virt. eigenvalues --    0.04645   0.05208   0.06794   0.07871   0.09245
 Alpha virt. eigenvalues --    0.10606   0.11122   0.13090   0.13931   0.14513
 Alpha virt. eigenvalues --    0.16017   0.17964   0.19211   0.20935   0.23105
 Alpha virt. eigenvalues --    0.23819   0.25553   0.27104   0.49300   0.50283
 Alpha virt. eigenvalues --    0.50553   0.51827   0.55778   0.56373   0.58341
 Alpha virt. eigenvalues --    0.63390   0.67078   0.73315   0.77532   0.77638
 Alpha virt. eigenvalues --    0.80126   0.82917   0.84224   0.87069   0.90438
 Alpha virt. eigenvalues --    0.93052   0.94119   0.95969   0.97572   0.98294
 Alpha virt. eigenvalues --    0.99604   1.03261   1.06302   1.09329   1.12035
 Alpha virt. eigenvalues --    1.18629   1.19987   1.21310   1.29869   1.34180
 Alpha virt. eigenvalues --    1.37007   1.39544   1.42293   1.47700   1.51362
 Alpha virt. eigenvalues --    1.51542   1.55568   1.56639   1.58439   1.67429
 Alpha virt. eigenvalues --    1.73994   1.77069   1.79787   1.82529   1.96137
 Alpha virt. eigenvalues --    1.97285   1.99731   2.02378   2.05716   2.11490
 Alpha virt. eigenvalues --    2.13086   2.21097   2.30093   2.35324   2.40465
 Alpha virt. eigenvalues --    2.42709   2.44855   2.67085   2.76543   2.84845
 Alpha virt. eigenvalues --    2.92370   3.68065   4.02871   4.06070   4.16770
 Alpha virt. eigenvalues --    4.21529   4.36803
          Condensed to atoms (all electrons):
              1          2          3          4          5          6
     1  C    6.131973   0.432001   0.344824   0.393987  -0.274238  -0.013541
     2  H    0.432001   0.408415  -0.018288  -0.022997  -0.093524   0.006162
     3  H    0.344824  -0.018288   0.411479  -0.020135  -0.006103  -0.001569
     4  H    0.393987  -0.022997  -0.020135   0.448429  -0.064364  -0.002233
     5  C   -0.274238  -0.093524  -0.006103  -0.064364   5.255195   0.258496
     6  O   -0.013541   0.006162  -0.001569  -0.002233   0.258496   8.387638
     7  O   -0.144587  -0.001722  -0.004430   0.007044   0.345695  -0.091482
     8  C   -0.016250  -0.001460  -0.001486   0.001412  -0.130996  -0.032312
     9  H   -0.003953  -0.000014  -0.000002   0.000004   0.008296   0.000072
    10  H    0.002618  -0.000010   0.000045  -0.000005  -0.010970   0.000851
    11  H    0.001592   0.000006  -0.000012   0.000012  -0.017024   0.007950
    12  O   -0.015313  -0.000039   0.000060   0.000954   0.020329  -0.039208
    13  H    0.004193   0.000000  -0.000006   0.000021  -0.004944   0.000480
    14  H   -0.001440   0.000001  -0.000001  -0.000051   0.001255  -0.003799
    15  H   -0.033152   0.000021   0.000104   0.000931   0.028642   0.113754
              7          8          9         10         11         12
     1  C   -0.144587  -0.016250  -0.003953   0.002618   0.001592  -0.015313
     2  H   -0.001722  -0.001460  -0.000014  -0.000010   0.000006  -0.000039
     3  H   -0.004430  -0.001486  -0.000002   0.000045  -0.000012   0.000060
     4  H    0.007044   0.001412   0.000004  -0.000005   0.000012   0.000954
     5  C    0.345695  -0.130996   0.008296  -0.010970  -0.017024   0.020329
     6  O   -0.091482  -0.032312   0.000072   0.000851   0.007950  -0.039208
     7  O    8.139564   0.093054  -0.048257  -0.027929  -0.026630  -0.001361
     8  C    0.093054   5.292766   0.390265   0.383625   0.380080  -0.004067
     9  H   -0.048257   0.390265   0.441208  -0.021269  -0.023018   0.000003
    10  H   -0.027929   0.383625  -0.021269   0.445567  -0.026058  -0.000004
    11  H   -0.026630   0.380080  -0.023018  -0.026058   0.454212  -0.000041
    12  O   -0.001361  -0.004067   0.000003  -0.000004  -0.000041   8.501731
    13  H    0.000026  -0.000180   0.000000   0.000000   0.000001   0.228356
    14  H   -0.000038   0.000338   0.000000   0.000000  -0.000001   0.226880
    15  H    0.007116   0.006201  -0.000001  -0.000053  -0.000014   0.053844
             13         14         15
     1  C    0.004193  -0.001440  -0.033152
     2  H    0.000000   0.000001   0.000021
     3  H   -0.000006  -0.000001   0.000104
     4  H    0.000021  -0.000051   0.000931
     5  C   -0.004944   0.001255   0.028642
     6  O    0.000480  -0.003799   0.113754
     7  O    0.000026  -0.000038   0.007116
     8  C   -0.000180   0.000338   0.006201
     9  H    0.000000   0.000000  -0.000001
    10  H    0.000000   0.000000  -0.000053
    11  H    0.000001  -0.000001  -0.000014
    12  O    0.228356   0.226880   0.053844
    13  H    0.242486  -0.021311  -0.005339
    14  H   -0.021311   0.245151  -0.003309
    15  H   -0.005339  -0.003309   0.252071
 Mulliken atomic charges:
              1
     1  C   -0.808714
     2  H    0.291448
     3  H    0.295521
     4  H    0.256990
     5  C    0.684255
     6  O   -0.591258
     7  O   -0.246061
     8  C   -0.360989
     9  H    0.256667
    10  H    0.253591
    11  H    0.248945
    12  O   -0.972125
    13  H    0.556218
    14  H    0.556327
    15  H    0.579185
 Sum of Mulliken atomic charges =   1.00000
 Mulliken charges with hydrogens summed into heavy atoms:
              1
     1  C    0.035245
     5  C    0.684255
     6  O   -0.012073
     7  O   -0.246061
     8  C    0.398214
    12  O    0.140421
 Sum of Mulliken charges with hydrogens summed into heavy atoms =   1.00000
 APT atomic charges:
              1
     1  C   -0.177280
     2  H    0.089683
     3  H    0.099852
     4  H    0.061152
     5  C    1.280501
     6  O   -0.988025
     7  O   -0.823760
     8  C    0.451863
     9  H    0.055347
    10  H    0.031430
    11  H    0.030013
    12  O   -0.736256
    13  H    0.363474
    14  H    0.358842
    15  H    0.903164
 Sum of APT charges=   1.00000
 APT Atomic charges with hydrogens summed into heavy atoms:
              1
     1  C    0.073407
     2  H    0.000000
     3  H    0.000000
     4  H    0.000000
     5  C    1.280501
     6  O   -0.084861
     7  O   -0.823760
     8  C    0.568652
     9  H    0.000000
    10  H    0.000000
    11  H    0.000000
    12  O   -0.013939
    13  H    0.000000
    14  H    0.000000
    15  H    0.000000
 Sum of APT charges=   1.00000
 Electronic spatial extent (au):  <R**2>=            854.8305
 Charge=              1.0000 electrons
 Dipole moment (field-independent basis, Debye):
    X=             -3.8067    Y=             -1.5642    Z=             -0.6475  Tot=              4.1662
 Quadrupole moment (field-independent basis, Debye-Ang):
   XX=             -8.5883   YY=            -24.2082   ZZ=            -32.4090
   XY=              4.6844   XZ=              2.8683   YZ=             -0.2801
 Traceless Quadrupole moment (field-independent basis, Debye-Ang):
   XX=             13.1468   YY=             -2.4730   ZZ=            -10.6738
   XY=              4.6844   XZ=              2.8683   YZ=             -0.2801
 Octapole moment (field-independent basis, Debye-Ang**2):
  XXX=            -54.4140  YYY=              1.7444  ZZZ=              0.7307  XYY=            -10.6252
  XXY=            -45.2913  XXZ=            -11.5952  XZZ=             -9.7199  YZZ=             -3.1945
  YYZ=              1.9380  XYZ=              0.6874
 Hexadecapole moment (field-independent basis, Debye-Ang**3):
 XXXX=           -416.5922 YYYY=           -249.9274 ZZZZ=            -43.7032 XXXY=             86.9877
 XXXZ=             32.9287 YYYX=             23.8560 YYYZ=             -1.8766 ZZZX=              6.0063
 ZZZY=              1.1833 XXYY=           -108.5735 XXZZ=            -94.4105 YYZZ=            -49.0432
 XXYZ=             -5.3664 YYXZ=             -4.9540 ZZXY=              8.0664
 N-N= 2.572299386589D+02 E-N=-1.312148933405D+03  KE= 3.416596273589D+02
  Exact polarizability:  63.453  -1.794  51.853   0.451   0.077  37.500
 Approx polarizability:  78.000   1.938  65.357   0.633   0.162  51.051
 Calling FoFJK, ICntrl=    100127 FMM=F ISym2X=0 I1Cent= 0 IOpClX= 0 NMat=1 NMatS=1 NMatT=0.
 Full mass-weighted force constant matrix:
 Low frequencies --- -465.5049   -0.0010   -0.0008    0.0004   60.4848   67.8852
 Low frequencies ---   77.2600  137.6969  170.1525
 ******    1 imaginary frequencies (negative Signs) ****** 
 Diagonal vibrational polarizability:
      624.3467694      32.9225998      20.9661073
 Harmonic frequencies (cm**-1), IR intensities (KM/Mole), Raman scattering
 activities (A**4/AMU), depolarization ratios for plane and unpolarized
 incident light, reduced masses (AMU), force constants (mDyne/A),
 and normal coordinates:
                     1                      2                      3
                     A                      A                      A
 Frequencies --  -464.9104               137.0444               167.4768
 Red. masses --     1.3164                 4.3021                 6.1039
 Frc consts  --     0.1676                 0.0476                 0.1009
 IR Inten    --  3692.1619                28.9529                45.0774
  Atom  AN      X      Y      Z        X      Y      Z        X      Y      Z
     1   6     0.02   0.00   0.00     0.20   0.18  -0.01     0.01   0.02  -0.06
     2   1     0.02  -0.01  -0.01     0.27   0.10  -0.01     0.03  -0.02  -0.08
     3   1     0.03   0.02   0.00     0.24   0.19   0.00    -0.08   0.13  -0.11
     4   1     0.03   0.02  -0.01     0.22   0.27   0.00     0.04  -0.06  -0.13
     5   6    -0.04  -0.05   0.01     0.05   0.13  -0.01     0.03   0.02   0.14
     6   8    -0.06   0.04   0.03    -0.03   0.18  -0.03     0.03   0.00   0.48
     7   8     0.02   0.00  -0.01     0.02  -0.02   0.01     0.01   0.00  -0.08
     8   6    -0.01   0.02  -0.01    -0.16  -0.10   0.01     0.00  -0.01  -0.21
     9   1     0.00  -0.01   0.00    -0.13  -0.22   0.05    -0.04   0.00  -0.30
    10   1    -0.01  -0.01  -0.01    -0.25  -0.12   0.01     0.08  -0.09  -0.24
    11   1    -0.01   0.01   0.00    -0.22  -0.01  -0.03    -0.08   0.05  -0.20
    12   8     0.10  -0.01  -0.02    -0.07  -0.29   0.02    -0.07  -0.02  -0.21
    13   1     0.13  -0.02   0.02     0.09  -0.33   0.00    -0.24  -0.02  -0.26
    14   1     0.09   0.00  -0.04    -0.04  -0.35   0.02     0.18  -0.03  -0.32
    15   1    -0.97   0.00   0.10     0.08   0.07  -0.02     0.22  -0.01   0.23
                     4                      5                      6
                     A                      A                      A
 Frequencies --   229.8323               253.2227               293.6463
 Red. masses --     3.2894                 2.2012                 1.0507
 Frc consts  --     0.1024                 0.0832                 0.0534
 IR Inten    --     8.7417                 0.9116                 1.2274
  Atom  AN      X      Y      Z        X      Y      Z        X      Y      Z
     1   6     0.00   0.00   0.17     0.11   0.01   0.03    -0.01   0.00  -0.01
     2   1    -0.08   0.05   0.12     0.13  -0.07  -0.05    -0.21  -0.06  -0.50
     3   1     0.19  -0.15   0.25     0.25   0.02   0.05     0.58   0.16   0.03
     4   1    -0.10   0.07   0.36     0.07   0.10   0.12    -0.31  -0.08   0.47
     5   6     0.01   0.01  -0.07    -0.02  -0.04  -0.01     0.00   0.00   0.01
     6   8     0.02  -0.01   0.06    -0.09   0.02  -0.01     0.01  -0.01   0.00
     7   8     0.01   0.01  -0.31    -0.01  -0.04  -0.01     0.00   0.01   0.04
     8   6    -0.03   0.00   0.17     0.20   0.06   0.02    -0.02   0.00  -0.01
     9   1     0.09  -0.11   0.43     0.05   0.14  -0.32    -0.02   0.00  -0.01
    10   1    -0.33   0.25   0.26     0.61   0.26   0.08    -0.02  -0.04  -0.02
    11   1     0.15  -0.14   0.16     0.09  -0.15   0.35    -0.03   0.03  -0.04
    12   8    -0.01   0.00  -0.04    -0.16  -0.02  -0.02     0.02   0.00  -0.02
    13   1    -0.06   0.00  -0.06    -0.15  -0.03  -0.02     0.01   0.01  -0.01
    14   1     0.06   0.00  -0.07    -0.15  -0.03  -0.02     0.02   0.00  -0.02
    15   1     0.06  -0.01   0.06    -0.14   0.03  -0.01     0.02  -0.01  -0.01
                     7                      8                      9
                     A                      A                      A
 Frequencies --   311.1920               443.6999               498.7876
 Red. masses --     1.2397                 3.2482                 1.0884
 Frc consts  --     0.0707                 0.3768                 0.1595
 IR Inten    --     5.0307                51.4877               118.0624
  Atom  AN      X      Y      Z        X      Y      Z        X      Y      Z
     1   6     0.05   0.00  -0.03    -0.20  -0.05   0.00     0.00  -0.01  -0.03
     2   1     0.08  -0.05  -0.04    -0.48   0.24  -0.06    -0.01  -0.01  -0.04
     3   1     0.07   0.03  -0.03    -0.26  -0.10   0.01     0.00   0.00  -0.03
     4   1     0.06   0.03  -0.03    -0.30  -0.41   0.05     0.00  -0.03  -0.02
     5   6    -0.01  -0.02   0.00     0.14   0.05  -0.01     0.01  -0.01   0.00
     6   8    -0.03  -0.01   0.01    -0.01   0.19  -0.01     0.01   0.00   0.00
     7   8     0.00   0.00   0.01     0.17  -0.04   0.00     0.02   0.02   0.00
     8   6     0.08   0.04  -0.02     0.10  -0.14   0.01    -0.02   0.01   0.02
     9   1     0.24   0.19   0.47     0.12  -0.18   0.04    -0.02  -0.04   0.00
    10   1    -0.39  -0.23  -0.09     0.04  -0.15   0.00    -0.01   0.02   0.02
    11   1     0.42   0.15  -0.46     0.08  -0.08  -0.03    -0.05   0.02   0.04
    12   8    -0.07   0.00   0.02    -0.12  -0.01   0.00    -0.02  -0.02   0.05
    13   1    -0.08  -0.01   0.02    -0.01   0.00   0.04    -0.04  -0.41  -0.54
    14   1    -0.08   0.01   0.02    -0.08  -0.10   0.00    -0.16   0.70  -0.06
    15   1    -0.09  -0.01   0.02    -0.24   0.19   0.03    -0.07  -0.02   0.02
                    10                     11                     12
                     A                      A                      A
 Frequencies --   507.4083               661.3381               687.5540
 Red. masses --     3.3380                 2.8321                 1.7604
 Frc consts  --     0.5063                 0.7298                 0.4903
 IR Inten    --   400.0113                74.4756               285.0525
  Atom  AN      X      Y      Z        X      Y      Z        X      Y      Z
     1   6     0.07  -0.11   0.01    -0.03   0.09   0.02    -0.05   0.15   0.00
     2   1     0.08  -0.10   0.03     0.03  -0.15  -0.27    -0.04   0.19   0.07
     3   1     0.07  -0.12   0.01    -0.14   0.69  -0.21     0.00   0.00   0.06
     4   1     0.08  -0.09   0.00     0.05  -0.17  -0.22    -0.06   0.28   0.05
     5   6     0.08  -0.07  -0.01    -0.02   0.01   0.33    -0.04   0.03  -0.12
     6   8     0.12  -0.09  -0.03     0.06  -0.04  -0.12     0.09  -0.06   0.00
     7   8     0.15   0.16   0.02     0.00  -0.01  -0.11    -0.01  -0.02   0.04
     8   6    -0.15   0.11   0.00     0.02  -0.04   0.00     0.04  -0.08   0.00
     9   1    -0.14  -0.20  -0.09     0.03  -0.05   0.04     0.03  -0.01  -0.02
    10   1    -0.16   0.09  -0.01    -0.02   0.07   0.04     0.07  -0.10  -0.01
    11   1    -0.37   0.24   0.07     0.06  -0.11   0.04     0.05  -0.08  -0.01
    12   8    -0.19   0.01  -0.01    -0.02   0.00   0.00    -0.02  -0.01   0.03
    13   1    -0.34   0.19   0.24    -0.23   0.04   0.02    -0.61   0.09   0.01
    14   1    -0.12  -0.21   0.00     0.09   0.03  -0.06     0.40   0.08  -0.18
    15   1    -0.43  -0.14   0.07    -0.15  -0.11   0.09    -0.24  -0.24   0.30
                    13                     14                     15
                     A                      A                      A
 Frequencies --   725.7382               846.5467               894.5292
 Red. masses --     1.4006                 1.3122                 4.6646
 Frc consts  --     0.4346                 0.5541                 2.1992
 IR Inten    --   294.4068               204.2839               142.9307
  Atom  AN      X      Y      Z        X      Y      Z        X      Y      Z
     1   6    -0.03   0.11   0.01     0.02  -0.05   0.00    -0.03  -0.05  -0.01
     2   1    -0.02   0.10   0.02    -0.03   0.01   0.00     0.24  -0.32   0.04
     3   1    -0.01   0.09   0.02    -0.02  -0.07   0.00     0.14   0.03   0.00
     4   1    -0.03   0.18   0.02     0.00  -0.14   0.01     0.05   0.31  -0.02
     5   6    -0.02   0.01  -0.02     0.01   0.01   0.01    -0.09  -0.02   0.02
     6   8     0.06  -0.07   0.04    -0.01   0.07   0.00    -0.22  -0.03   0.00
     7   8     0.01   0.01   0.00    -0.01  -0.04   0.00     0.10   0.33  -0.01
     8   6     0.03  -0.06   0.00    -0.02   0.04   0.00     0.13  -0.26   0.01
     9   1     0.02  -0.04   0.00    -0.01   0.06   0.01     0.13  -0.38  -0.03
    10   1     0.03  -0.05   0.00     0.00   0.03  -0.01    -0.06  -0.16   0.03
    11   1     0.02  -0.05   0.00     0.02   0.01   0.00    -0.14   0.03  -0.03
    12   8    -0.01   0.00  -0.04     0.08  -0.05  -0.03     0.08  -0.03  -0.01
    13   1     0.31   0.05   0.13    -0.68   0.29   0.24    -0.31   0.12   0.08
    14   1    -0.75   0.05   0.26    -0.43   0.27   0.13    -0.05   0.10   0.03
    15   1    -0.19  -0.12  -0.34     0.06  -0.24  -0.06     0.32  -0.03  -0.04
                    16                     17                     18
                     A                      A                      A
 Frequencies --  1004.2914              1074.0860              1093.9321
 Red. masses --     3.8660                 1.6172                 1.6996
 Frc consts  --     2.2974                 1.0992                 1.1983
 IR Inten    --   179.9157                14.1431                19.8976
  Atom  AN      X      Y      Z        X      Y      Z        X      Y      Z
     1   6     0.01  -0.21  -0.02     0.16   0.04  -0.02     0.02  -0.01   0.17
     2   1     0.25  -0.45   0.05    -0.32   0.56  -0.04    -0.03  -0.25  -0.34
     3   1     0.21  -0.24   0.02    -0.25  -0.23   0.01    -0.19   0.65  -0.12
     4   1     0.08   0.05  -0.03    -0.06  -0.61   0.13     0.20  -0.41  -0.29
     5   6    -0.06   0.11   0.02     0.02   0.01   0.02     0.01   0.00  -0.17
     6   8     0.23   0.14   0.00    -0.02  -0.05  -0.01     0.00   0.00   0.03
     7   8    -0.20   0.11   0.00    -0.08   0.09   0.00    -0.02   0.02   0.03
     8   6     0.02  -0.17   0.00     0.01  -0.07  -0.01     0.00  -0.02  -0.01
     9   1    -0.05   0.30   0.01    -0.01   0.07   0.02     0.01   0.00   0.01
    10   1     0.15  -0.05   0.03    -0.01   0.05   0.03    -0.03   0.06   0.01
    11   1     0.25  -0.35  -0.03     0.04  -0.11   0.00     0.01  -0.05   0.01
    12   8    -0.04   0.01   0.00     0.00   0.01   0.00     0.00   0.00   0.00
    13   1     0.10  -0.03   0.00     0.02  -0.01  -0.01     0.01   0.00   0.00
    14   1    -0.06  -0.02   0.00     0.02   0.00  -0.01    -0.02   0.01   0.00
    15   1    -0.29  -0.03   0.05    -0.08  -0.04   0.00     0.00   0.01   0.02
                    19                     20                     21
                     A                      A                      A
 Frequencies --  1187.8230              1237.4586              1370.0536
 Red. masses --     1.2581                 1.3937                 2.1239
 Frc consts  --     1.0458                 1.2574                 2.3489
 IR Inten    --     3.3558                10.3260               137.4119
  Atom  AN      X      Y      Z        X      Y      Z        X      Y      Z
     1   6    -0.02   0.00  -0.01    -0.01   0.01   0.00    -0.05   0.01   0.00
     2   1     0.02  -0.01   0.03    -0.01   0.01   0.00    -0.12   0.18   0.11
     3   1     0.04  -0.02   0.01     0.01   0.06  -0.01     0.20   0.18  -0.02
     4   1    -0.01   0.11   0.01     0.01   0.06  -0.02     0.08   0.31  -0.13
     5   6     0.02  -0.01   0.01     0.04  -0.02  -0.01     0.23  -0.13   0.01
     6   8    -0.02  -0.01   0.00    -0.04  -0.02   0.00     0.00  -0.01  -0.01
     7   8     0.02   0.00   0.06     0.08   0.03  -0.01    -0.13   0.04   0.00
     8   6    -0.03  -0.01  -0.12    -0.13  -0.03   0.04     0.03  -0.05   0.01
     9   1     0.12  -0.06   0.25    -0.24   0.62   0.00    -0.05   0.26  -0.06
    10   1    -0.25   0.68   0.09     0.43  -0.13  -0.01    -0.16   0.15   0.07
    11   1     0.20  -0.53   0.19     0.42  -0.32  -0.19    -0.21   0.22  -0.03
    12   8     0.00   0.00   0.00     0.01   0.00   0.00     0.01  -0.03  -0.02
    13   1    -0.01   0.00   0.00    -0.02   0.01   0.01    -0.06   0.08   0.10
    14   1     0.00   0.01   0.00    -0.01   0.01   0.00    -0.16   0.11   0.03
    15   1     0.00   0.02   0.00     0.04   0.05   0.01    -0.05   0.51   0.34
                    22                     23                     24
                     A                      A                      A
 Frequencies --  1460.4890              1462.1230              1490.0822
 Red. masses --     1.1655                 1.1521                 1.0833
 Frc consts  --     1.4647                 1.4512                 1.4171
 IR Inten    --    85.0339                27.2639                12.4471
  Atom  AN      X      Y      Z        X      Y      Z        X      Y      Z
     1   6    -0.04   0.02   0.01     0.04  -0.07  -0.02    -0.02  -0.05  -0.01
     2   1     0.02  -0.01   0.05    -0.06   0.15   0.17    -0.14   0.37   0.40
     3   1     0.36  -0.10   0.11    -0.34   0.43  -0.24     0.44   0.32  -0.05
     4   1     0.12  -0.15  -0.30    -0.15   0.33   0.41     0.11  -0.07  -0.20
     5   6     0.07   0.04   0.01     0.02  -0.05  -0.01    -0.01   0.00   0.00
     6   8    -0.03  -0.01   0.01     0.01   0.04   0.01     0.00   0.00   0.00
     7   8    -0.01  -0.01  -0.01    -0.01   0.01   0.00    -0.02   0.02   0.00
     8   6     0.02  -0.04   0.00     0.01  -0.02   0.00    -0.01   0.05  -0.01
     9   1    -0.04   0.32   0.00    -0.02   0.09  -0.02     0.05  -0.27   0.03
    10   1    -0.10   0.18   0.07    -0.04   0.06   0.02     0.04  -0.32  -0.12
    11   1    -0.19   0.18  -0.03    -0.05   0.06  -0.02     0.14  -0.26   0.17
    12   8     0.00   0.02   0.03    -0.01   0.01   0.02     0.00   0.00   0.00
    13   1    -0.04  -0.06  -0.08    -0.05  -0.04  -0.06     0.00  -0.01  -0.01
    14   1     0.18  -0.08  -0.04     0.14  -0.06  -0.03     0.01  -0.01   0.00
    15   1    -0.10  -0.42  -0.50    -0.01  -0.24  -0.40     0.02  -0.05  -0.04
                    25                     26                     27
                     A                      A                      A
 Frequencies --  1499.7345              1506.3091              1520.4024
 Red. masses --     1.3271                 1.0536                 1.0541
 Frc consts  --     1.7586                 1.4085                 1.4357
 IR Inten    --   139.1421                13.6166                17.0852
  Atom  AN      X      Y      Z        X      Y      Z        X      Y      Z
     1   6     0.00  -0.04  -0.04     0.00   0.01   0.00     0.00  -0.01   0.00
     2   1     0.26  -0.02   0.49     0.08  -0.11  -0.05    -0.03   0.01  -0.03
     3   1     0.10   0.30  -0.12    -0.12  -0.04   0.00    -0.02   0.00  -0.01
     4   1    -0.20  -0.30   0.23    -0.06   0.00   0.09     0.01   0.05   0.00
     5   6    -0.02   0.13  -0.02     0.02   0.02   0.00     0.00   0.00   0.00
     6   8    -0.02  -0.05  -0.01    -0.01  -0.01   0.00     0.00   0.00   0.00
     7   8     0.03  -0.03   0.00     0.01   0.00  -0.01    -0.01   0.00  -0.01
     8   6     0.01  -0.04   0.00     0.04   0.02  -0.03    -0.03  -0.01  -0.05
     9   1    -0.02   0.24   0.01    -0.01   0.42   0.04     0.26   0.04   0.70
    10   1    -0.04   0.23   0.08    -0.36  -0.43  -0.15     0.53  -0.05  -0.06
    11   1    -0.14   0.20  -0.08    -0.25  -0.28   0.54    -0.35   0.13   0.13
    12   8     0.00   0.00  -0.02     0.00   0.00   0.00     0.00   0.00   0.00
    13   1     0.10   0.02   0.03     0.00   0.01   0.01     0.00   0.00   0.00
    14   1    -0.12   0.03   0.03    -0.01   0.01   0.00     0.00   0.00   0.00
    15   1    -0.04   0.02   0.39    -0.01   0.03   0.02     0.00   0.02   0.00
                    28                     29                     30
                     A                      A                      A
 Frequencies --  1541.9982              1590.8927              1628.1624
 Red. masses --     1.4018                 3.2168                 1.1496
 Frc consts  --     1.9638                 4.7969                 1.7956
 IR Inten    --    74.4961                81.8293               203.5913
  Atom  AN      X      Y      Z        X      Y      Z        X      Y      Z
     1   6    -0.04   0.10  -0.03     0.01  -0.09   0.01    -0.01   0.02   0.00
     2   1     0.50  -0.35   0.26    -0.06  -0.19  -0.27     0.01  -0.03  -0.04
     3   1    -0.03  -0.01   0.02    -0.27  -0.06  -0.05    -0.03  -0.03   0.01
     4   1    -0.29  -0.42   0.23     0.04   0.41   0.13    -0.01   0.06   0.01
     5   6     0.10  -0.07  -0.01     0.23   0.30   0.01     0.06  -0.05   0.00
     6   8     0.00   0.01   0.01    -0.10  -0.14   0.00    -0.03   0.04  -0.02
     7   8    -0.06   0.03   0.00    -0.07  -0.01   0.00    -0.02   0.01   0.00
     8   6    -0.02   0.03   0.00    -0.01   0.05   0.01    -0.01   0.01   0.00
     9   1     0.04  -0.27   0.04     0.04  -0.45  -0.05     0.00  -0.04   0.01
    10   1     0.13  -0.13  -0.05     0.14  -0.16  -0.06     0.02  -0.04  -0.02
    11   1     0.13  -0.11   0.00     0.26  -0.12  -0.06     0.02  -0.03   0.02
    12   8     0.00   0.00   0.01     0.01   0.00   0.00     0.00   0.04  -0.02
    13   1    -0.07   0.00  -0.01     0.01   0.02   0.03     0.19  -0.10  -0.13
    14   1     0.07   0.00  -0.02     0.03   0.05  -0.02    -0.16  -0.17   0.09
    15   1    -0.05   0.03  -0.24    -0.29  -0.07  -0.04     0.10  -0.75   0.53
                    31                     32                     33
                     A                      A                      A
 Frequencies --  1759.9644              2931.9002              2960.6608
 Red. masses --     1.0739                 1.0495                 1.0978
 Frc consts  --     1.9599                 5.3152                 5.6694
 IR Inten    --   165.3211                11.7907                 3.9235
  Atom  AN      X      Y      Z        X      Y      Z        X      Y      Z
     1   6     0.00   0.00   0.00    -0.01  -0.06  -0.02     0.05   0.02  -0.07
     2   1     0.00   0.00   0.00     0.46   0.39  -0.25    -0.52  -0.45   0.26
     3   1     0.00   0.00   0.00    -0.12   0.22   0.67    -0.09   0.22   0.63
     4   1     0.00   0.00   0.01    -0.21   0.04  -0.13     0.03   0.00   0.00
     5   6     0.00   0.01   0.00     0.00   0.00   0.00     0.00   0.00   0.00
     6   8     0.01  -0.01   0.00     0.00   0.00   0.00     0.00   0.00   0.00
     7   8     0.00   0.00   0.00     0.00   0.00   0.00     0.00   0.00   0.00
     8   6     0.00   0.00   0.00     0.00   0.00   0.00     0.00   0.00   0.00
     9   1     0.00   0.00   0.00     0.00   0.00   0.00     0.00   0.00   0.00
    10   1     0.00   0.00   0.00     0.00   0.00   0.00     0.00   0.00   0.00
    11   1     0.00   0.00   0.00     0.00   0.00   0.00     0.00   0.00   0.00
    12   8     0.04   0.05   0.02     0.00   0.00   0.00     0.00   0.00   0.00
    13   1    -0.40  -0.26  -0.51     0.00   0.00   0.00     0.00   0.00   0.00
    14   1    -0.24  -0.58   0.25     0.00   0.00   0.00     0.00   0.00   0.00
    15   1    -0.06   0.22   0.00     0.00   0.00   0.00     0.00   0.00   0.00
                    34                     35                     36
                     A                      A                      A
 Frequencies --  3025.2117              3035.2603              3122.0581
 Red. masses --     1.0316                 1.0936                 1.1041
 Frc consts  --     5.5626                 5.9360                 6.3408
 IR Inten    --     4.5240                 0.2878                 0.1039
  Atom  AN      X      Y      Z        X      Y      Z        X      Y      Z
     1   6     0.00   0.00   0.00    -0.08   0.00  -0.05     0.00   0.00   0.00
     2   1     0.00   0.00   0.00     0.12   0.11  -0.08     0.00   0.00   0.00
     3   1     0.00   0.00   0.00    -0.05   0.05   0.14     0.00   0.00   0.00
     4   1     0.01   0.00   0.01     0.82  -0.16   0.49     0.00   0.00   0.00
     5   6     0.00   0.00   0.00     0.00   0.00   0.00     0.00   0.00   0.00
     6   8     0.00   0.00   0.00     0.00   0.00   0.00     0.00   0.00   0.00
     7   8     0.00   0.00   0.00     0.00   0.00   0.00     0.00   0.00   0.00
     8   6    -0.04   0.02   0.01     0.00   0.00   0.00     0.06   0.04  -0.05
     9   1     0.71   0.11  -0.28    -0.01   0.00   0.00    -0.56  -0.09   0.22
    10   1     0.00  -0.14   0.46     0.00   0.00   0.00     0.02  -0.20   0.66
    11   1    -0.23  -0.25  -0.24     0.00   0.00   0.00    -0.20  -0.22  -0.23
    12   8     0.00   0.00   0.00     0.00   0.00   0.00     0.00   0.00   0.00
    13   1     0.00   0.00   0.00     0.00   0.00   0.00     0.00   0.00   0.00
    14   1     0.00   0.00   0.00     0.00   0.00   0.00     0.00   0.00   0.00
    15   1     0.00   0.00   0.00     0.00   0.00   0.00     0.00   0.00   0.00
                    37                     38                     39
                     A                      A                      A
 Frequencies --  3163.6991              3430.5608              3522.2210
 Red. masses --     1.1118                 1.0484                 1.0779
 Frc consts  --     6.5565                 7.2696                 7.8785
 IR Inten    --     1.3154                92.4512               162.0138
  Atom  AN      X      Y      Z        X      Y      Z        X      Y      Z
     1   6     0.00   0.00   0.00     0.00   0.00   0.00     0.00   0.00   0.00
     2   1     0.00   0.00   0.00     0.00   0.00   0.00     0.00   0.00   0.00
     3   1     0.00   0.00   0.00     0.00   0.00   0.00     0.00   0.00   0.00
     4   1     0.00   0.00   0.00     0.00   0.00   0.00     0.00   0.00   0.00
     5   6     0.00   0.00   0.00     0.00   0.00   0.00     0.00   0.00   0.00
     6   8     0.00   0.00   0.00     0.00   0.00   0.00     0.00   0.00   0.00
     7   8     0.00   0.00   0.00     0.00   0.00   0.00     0.00   0.00   0.00
     8   6     0.05   0.03   0.08     0.00   0.00   0.00     0.00   0.00   0.00
     9   1    -0.09  -0.01   0.05     0.00   0.00   0.00     0.00   0.00   0.00
    10   1     0.00   0.16  -0.52     0.00   0.00   0.00     0.00   0.00   0.00
    11   1    -0.46  -0.49  -0.48     0.00   0.00   0.00     0.00   0.00   0.00
    12   8     0.00   0.00   0.00    -0.02  -0.05   0.01     0.02  -0.01   0.07
    13   1     0.00   0.00   0.00     0.13   0.71  -0.51     0.08   0.37  -0.23
    14   1     0.00   0.00   0.00     0.17   0.06   0.42    -0.35  -0.18  -0.80
    15   1     0.00   0.00   0.00    -0.03  -0.01   0.00     0.01   0.00   0.00

 -------------------
 - Thermochemistry -
 -------------------
 Temperature   298.150 Kelvin.  Pressure   1.00000 Atm.
 Atom     1 has atomic number  6 and mass  12.00000
 Atom     2 has atomic number  1 and mass   1.00783
 Atom     3 has atomic number  1 and mass   1.00783
 Atom     4 has atomic number  1 and mass   1.00783
 Atom     5 has atomic number  6 and mass  12.00000
 Atom     6 has atomic number  8 and mass  15.99491
 Atom     7 has atomic number  8 and mass  15.99491
 Atom     8 has atomic number  6 and mass  12.00000
 Atom     9 has atomic number  1 and mass   1.00783
 Atom    10 has atomic number  1 and mass   1.00783
 Atom    11 has atomic number  1 and mass   1.00783
 Atom    12 has atomic number  8 and mass  15.99491
 Atom    13 has atomic number  1 and mass   1.00783
 Atom    14 has atomic number  1 and mass   1.00783
 Atom    15 has atomic number  1 and mass   1.00783
 Molecular mass:    93.05517 amu.
 Principal axes and moments of inertia in atomic units:
                           1         2         3
     Eigenvalues --   351.644081026.038891346.42902
           X            0.99989  -0.01422   0.00433
           Y            0.01422   0.99990   0.00044
           Z           -0.00433  -0.00037   0.99999
 This molecule is an asymmetric top.
 Rotational symmetry number  1.
 Rotational temperatures (Kelvin)      0.24631     0.08442     0.06433
 Rotational constants (GHZ):           5.13230     1.75894     1.34039
    1 imaginary frequencies ignored.
 Zero-point vibrational energy     324650.9 (Joules/Mol)
                                   77.59343 (Kcal/Mol)
 Warning -- explicit consideration of   9 degrees of freedom as
           vibrations may cause significant error
 Vibrational temperatures:    197.18   240.96   330.68   364.33   422.49
          (Kelvin)            447.74   638.38   717.64   730.05   951.52
                              989.24  1044.17  1217.99  1287.03  1444.95
                             1545.37  1573.92  1709.01  1780.42  1971.20
                             2101.32  2103.67  2143.89  2157.78  2167.24
                             2187.52  2218.59  2288.94  2342.56  2532.19
                             4218.35  4259.73  4352.60  4367.06  4491.94
                             4551.85  4935.81  5067.68
 
 Zero-point correction=                           0.123653 (Hartree/Particle)
 Thermal correction to Energy=                    0.130954
 Thermal correction to Enthalpy=                  0.131898
 Thermal correction to Gibbs Free Energy=         0.092606
 Sum of electronic and zero-point Energies=           -344.898552
 Sum of electronic and thermal Energies=              -344.891252
 Sum of electronic and thermal Enthalpies=            -344.890308
 Sum of electronic and thermal Free Energies=         -344.929600
 
                     E (Thermal)             CV                S
                      KCal/Mol        Cal/Mol-Kelvin    Cal/Mol-Kelvin
 Total                   82.175             26.272             82.697
 Electronic               0.000              0.000              0.000
 Translational            0.889              2.981             39.504
 Rotational               0.889              2.981             27.676
 Vibrational             80.397             20.311             15.517
 Vibration     1          0.614              1.916              2.845
 Vibration     2          0.624              1.882              2.464
 Vibration     3          0.652              1.795              1.880
 Vibration     4          0.664              1.757              1.708
 Vibration     5          0.688              1.686              1.453
 Vibration     6          0.700              1.652              1.356
 Vibration     7          0.803              1.375              0.815
 Vibration     8          0.854              1.253              0.661
 Vibration     9          0.863              1.234              0.640
                       Q            Log10(Q)             Ln(Q)
 Total Bot       0.253792D-42        -42.595522        -98.079814
 Total V=0       0.190891D+15         14.280786         32.882726
 Vib (Bot)       0.288297D-55        -55.540160       -127.885943
 Vib (Bot)    1  0.148489D+01          0.171695          0.395342
 Vib (Bot)    2  0.120429D+01          0.080731          0.185891
 Vib (Bot)    3  0.857029D+00         -0.067005         -0.154284
 Vib (Bot)    4  0.769568D+00         -0.113753         -0.261926
 Vib (Bot)    5  0.649936D+00         -0.187129         -0.430881
 Vib (Bot)    6  0.607220D+00         -0.216654         -0.498864
 Vib (Bot)    7  0.388463D+00         -0.410650         -0.945557
 Vib (Bot)    8  0.329860D+00         -0.481671         -1.109088
 Vib (Bot)    9  0.321771D+00         -0.492453         -1.133914
 Vib (V=0)       0.216845D+02          1.336149          3.076596
 Vib (V=0)    1  0.206681D+01          0.315301          0.726008
 Vib (V=0)    2  0.180396D+01          0.256227          0.589985
 Vib (V=0)    3  0.149222D+01          0.173832          0.400264
 Vib (V=0)    4  0.141773D+01          0.151595          0.349060
 Vib (V=0)    5  0.132001D+01          0.120577          0.277639
 Vib (V=0)    6  0.128659D+01          0.109438          0.251991
 Vib (V=0)    7  0.113317D+01          0.054295          0.125018
 Vib (V=0)    8  0.109901D+01          0.041000          0.094406
 Vib (V=0)    9  0.109459D+01          0.039251          0.090379
 Electronic      0.100000D+01          0.000000          0.000000
 Translational   0.352830D+08          7.547566         17.378913
 Rotational      0.249501D+06          5.397072         12.427217
 ***** Axes restored to original set *****
 -------------------------------------------------------------------
 Center     Atomic                   Forces (Hartrees/Bohr)
 Number     Number              X              Y              Z
 -------------------------------------------------------------------
      1        6          -0.006085952    0.035309066   -0.002056128
      2        1          -0.004915526   -0.014302716    0.003706236
      3        1           0.000892553   -0.009422122   -0.006470270
      4        1           0.004475955   -0.007397547    0.004384689
      5        6           0.019207914   -0.026656795   -0.001035893
      6        8          -0.017498733    0.022434357   -0.005841518
      7        8          -0.026960002   -0.001727805    0.000808094
      8        6           0.011893811    0.007343247   -0.002842930
      9        1          -0.007749529   -0.006582031    0.004833820
     10        1          -0.000126912    0.000036470   -0.004606900
     11        1           0.001325563    0.004031947    0.002592532
     12        8           0.001359859   -0.025116224   -0.013681234
     13        1           0.000687289    0.017032206   -0.005979930
     14        1           0.000742945    0.006541470    0.013418399
     15        1           0.022750763   -0.001523522    0.012771032
 -------------------------------------------------------------------
 Cartesian Forces:  Max     0.035309066 RMS     0.012328265

 GradGradGradGradGradGradGradGradGradGradGradGradGradGradGradGradGradGrad
 Berny optimization.
 Search for a local minimum.
 Step number   1 out of a maximum of    2
 All quantities printed in internal units (Hartrees-Bohrs-Radians)
 Second derivative matrix not updated -- analytic derivatives used.
     Eigenvalues ---   -0.01297   0.00285   0.00314   0.00345   0.00618
     Eigenvalues ---    0.00931   0.01073   0.01097   0.02646   0.03036
     Eigenvalues ---    0.03484   0.04427   0.04993   0.06890   0.09266
     Eigenvalues ---    0.09522   0.10534   0.10780   0.11310   0.12088
     Eigenvalues ---    0.12670   0.13634   0.15405   0.19124   0.19654
     Eigenvalues ---    0.24470   0.30773   0.33206   0.47214   0.54235
     Eigenvalues ---    0.67498   0.69911   0.71319   0.78365   0.81043
     Eigenvalues ---    0.85211   0.87707   1.02833   1.17927
 Eigenvalue     1 is  -1.30D-02 should be greater than     0.000000 Eigenvector:
                          X15       X12       X13       X14       Z6
   1                   -0.91461   0.20948   0.18498   0.15283   0.11903
                          Z15       Z14       Z12       Y6        X6
   1                    0.10919  -0.07678  -0.07307   0.05907  -0.04830
 Quadratic step=1.544D+00 exceeds max=3.000D-01 adjusted using Lamda=-6.593D-02.
 Angle between NR and scaled steps=  33.85 degrees.
 Angle between quadratic step and forces=  49.28 degrees.
 Linear search not attempted -- first point.
 TrRot= -0.010650  0.002739 -0.004737 -2.566380  0.001151  2.567210
 Variable       Old X    -DE/DX   Delta X   Delta X   Delta X     New X
                                 (Linear)    (Quad)   (Total)
    X1       -0.13492  -0.00609   0.00000   0.00320  -0.01041  -0.14533
    Y1        3.48892   0.03531   0.00000   0.04319   0.04580   3.53472
    Z1        0.02819  -0.00206   0.00000  -0.00428  -0.00694   0.02126
    X2        1.32096  -0.00492   0.00000   0.02052   0.00664   1.32760
    Y2        4.80221  -0.01430   0.00000  -0.04492  -0.04060   4.76160
    Z2       -0.74315   0.00371   0.00000  -0.00175  -0.00222  -0.74537
    X3       -0.46171   0.00089   0.00000   0.00971  -0.00629  -0.46800
    Y3        4.17405  -0.00942   0.00000  -0.04190  -0.04079   4.13326
    Z3        1.99195  -0.00647   0.00000  -0.00354  -0.00613   1.98582
    X4       -1.89441   0.00448   0.00000   0.00616  -0.00669  -1.90110
    Y4        3.86960  -0.00740   0.00000  -0.03142  -0.02961   3.83999
    Z4       -1.03184   0.00438   0.00000   0.01143   0.00727  -1.02457
    X5        0.66820   0.01921   0.00000   0.00634  -0.00497   0.66323
    Y5        0.83116  -0.02666   0.00000   0.00190   0.00521   0.83637
    Z5       -0.02456  -0.00104   0.00000  -0.00572  -0.00929  -0.03385
    X6       -0.77545  -0.01750   0.00000  -0.05742  -0.06713  -0.84258
    Y6       -1.12017   0.02243   0.00000   0.05473   0.05682  -1.06335
    Z6       -0.04723  -0.00584   0.00000  -0.01640  -0.02261  -0.06983
    X7        3.12440  -0.02696   0.00000  -0.05701  -0.06801   3.05638
    Y7        0.46618  -0.00173   0.00000  -0.02595  -0.02066   0.44552
    Z7       -0.01920   0.00081   0.00000   0.00530   0.00380  -0.01540
    X8        4.13143   0.01189   0.00000   0.01352   0.00462   4.13605
    Y8       -2.13496   0.00734   0.00000   0.00729   0.01346  -2.12149
    Z8        0.01609  -0.00284   0.00000  -0.00234  -0.00441   0.01169
    X9        6.05278  -0.00775   0.00000  -0.00593  -0.01435   6.03843
    Y9       -1.83680  -0.00658   0.00000  -0.02435  -0.01614  -1.85295
    Z9       -0.73475   0.00483   0.00000   0.01296   0.01290  -0.72186
   X10        4.16802  -0.00013   0.00000   0.00631  -0.00395   4.16407
   Y10       -2.76361   0.00004   0.00000  -0.00366   0.00131  -2.76231
   Z10        1.99087  -0.00461   0.00000  -0.01565  -0.01808   1.97279
   X11        3.01409   0.00133   0.00000   0.00959   0.00288   3.01697
   Y11       -3.39339   0.00403   0.00000   0.01327   0.01925  -3.37413
   Z11       -1.18760   0.00259   0.00000   0.00947   0.00555  -1.18205
   X12       -5.49631   0.00136   0.00000   0.00867  -0.00119  -5.49750
   Y12       -0.98971  -0.02512   0.00000  -0.04826  -0.05012  -1.03983
   Z12        0.10058  -0.01368   0.00000  -0.01839  -0.02908   0.07150
   X13       -5.79000   0.00069   0.00000  -0.02786  -0.03750  -5.82750
   Y13       -2.55129   0.01703   0.00000   0.03079   0.02800  -2.52328
   Z13        1.11807  -0.00598   0.00000   0.00414  -0.00779   1.11028
   X14       -6.21468   0.00074   0.00000  -0.01924  -0.02722  -6.24190
   Y14       -1.40379   0.00654   0.00000   0.00934   0.00788  -1.39591
   Z14       -1.58471   0.01342   0.00000   0.02408   0.01245  -1.57226
   X15       -3.00433   0.02275   0.00000   0.24337   0.23355  -2.77078
   Y15       -0.85809  -0.00152   0.00000   0.01964   0.02018  -0.83791
   Z15       -0.21045   0.01277   0.00000   0.07250   0.06457  -0.14588
         Item               Value     Threshold  Converged?
 Maximum Force            0.035309     0.000450     NO 
 RMS     Force            0.012328     0.000300     NO 
 Maximum Displacement     0.233554     0.001800     NO 
 RMS     Displacement     0.044075     0.001200     NO 
 Predicted change in Energy=-1.167866D-02
 GradGradGradGradGradGradGradGradGradGradGradGradGradGradGradGradGradGrad

 1|1|UNPC-WST-PGHS-011|Freq|RX3LYP|6-31+G(d)|C3H9O3(1+)|214584429|01-Oc
 t-2015|0||# freq=noraman x3lyp/6-31+g(d) geom=connectivity||Title Card
  Required||1,1|C,-0.071399,1.846257,0.01492|H,0.699021,2.541219,-0.393
 258|H,-0.244326,2.208812,1.054092|H,-1.002481,2.047705,-0.546024|C,0.3
 53595,0.439832,-0.012998|O,-0.410352,-0.592769,-0.024991|O,1.653359,0.
 246691,-0.010158|C,2.18626,-1.12977,0.008517|H,3.202992,-0.971995,-0.3
 88814|H,2.205623,-1.462442,1.053524|H,1.594986,-1.795704,-0.62845|O,-2
 .908522,-0.523734,0.053223|H,-3.063938,-1.350082,0.591657|H,-3.288668,
 -0.742854,-0.838591|H,-1.589824,-0.454081,-0.111364||Version=IA32W-G09
 RevA.02|State=1-A|HF=-345.0222053|RMSD=7.702e-009|RMSF=1.233e-002|Zero
 Point=0.123653|Thermal=0.1309535|Dipole=-1.4976845,-0.615409,-0.254735
 4|DipoleDeriv=-0.0990978,0.1201734,0.0267379,0.063319,-0.3960095,-0.04
 05668,0.0666813,-0.1402354,-0.036734,0.0457009,-0.0076076,0.035309,-0.
 0063096,0.1001992,0.00485,0.0206594,0.0434428,0.123148,0.1350175,0.021
 369,0.0061244,0.0162137,0.1150785,0.0270113,-0.0018489,0.0501293,0.049
 4608,0.0225364,-0.0195541,-0.0585847,-0.0141178,0.0670878,-0.0293363,-
 0.0718642,0.0134669,0.0938332,2.0440505,-0.1791003,0.0040133,0.5165434
 ,1.4298449,0.0601718,-0.0255081,0.0564817,0.3676088,-1.8249421,-0.3852
 692,-0.0168201,-0.717613,-0.82904,-0.02333,-0.0609089,-0.0357642,-0.31
 00934,-1.4421247,0.4229283,-0.0136141,0.3814327,-0.772443,-0.0017938,0
 .0242743,-0.0133918,-0.2567121,0.46611,-0.2479492,0.0193706,-0.4080552
 ,0.6297257,-0.0047437,-0.0392158,0.0167575,0.259752,0.0185677,0.028460
 4,0.0215172,-0.018239,0.0521219,0.029648,0.0446861,-0.0000278,0.095351
 ,0.0774814,0.0188095,0.0364468,0.0794174,0.02844,-0.0235529,0.0178636,
 0.0224117,-0.0116327,0.0172509,-0.0224005,-0.0692381,0.0583991,0.02081
 45,-0.0035715,-0.0382205,-0.0294004,0.0519738,-1.3562192,-0.1601686,0.
 0277651,-0.0813715,-0.4159587,0.0164945,0.1334591,0.0396031,-0.4365886
 ,0.3754867,0.0205109,-0.0387088,0.0270297,0.3306752,-0.0049861,-0.0762
 383,-0.0182451,0.3842605,0.4012918,-0.0146209,0.0223357,-0.0387959,0.3
 36419,-0.0179904,0.050451,-0.012897,0.3388154,2.11889,0.404419,-0.0026
 542,0.1421469,0.3030446,0.0116959,-0.0442701,0.0076688,0.2875573|Polar
 =63.453032,-1.7943223,51.8528177,0.4510927,0.077057,37.4995268|PG=C01 
 [X(C3H9O3)]|NImag=1||0.55765721,-0.01179079,0.54625717,0.01795505,-0.0
 1251945,0.49320954,-0.16890322,-0.09859035,0.06062804,0.18108572,-0.09
 372137,-0.13841641,0.05364323,0.10664243,0.14979577,0.05954912,0.05713
 970,-0.07944432,-0.06786484,-0.05740498,0.08550111,-0.04609588,0.01446
 419,0.03487548,-0.00387704,0.00632584,0.02229988,0.05096609,0.01417096
 ,-0.07096481,-0.07027035,-0.00285262,0.00621657,0.01791138,-0.01488733
 ,0.07660400,0.03349315,-0.06726885,-0.25199601,0.00191055,-0.00290665,
 -0.01211671,-0.03837637,0.07541268,0.27674908,-0.22633210,0.03436335,-
 0.10937286,-0.01779519,0.00343275,-0.01184786,0.00482869,-0.00159470,0
 .00280735,0.24611612,0.03207688,-0.06164052,0.02164458,-0.01516757,0.0
 0399469,-0.01134857,-0.00863744,0.00162270,-0.00391350,-0.03807430,0.0
 6295772,-0.11050720,0.02464975,-0.10929259,0.01074513,-0.00325419,0.00
 682355,-0.02637232,0.00435167,-0.01492435,0.11983082,-0.02194492,0.117
 20781,-0.10051051,0.04652174,-0.00340010,0.00999614,-0.02538467,-0.001
 97016,-0.00428390,0.00470941,0.00105188,-0.00852252,0.02817061,0.00448
 204,0.71226450,0.04294583,-0.23548327,0.00746284,0.00418424,-0.0184945
 8,-0.00471450,0.00245818,-0.01086940,-0.00339839,0.00085936,-0.0016634
 7,-0.00332997,0.02430654,0.77071407,-0.00018119,0.00010330,-0.08886393
 ,-0.00762984,0.01208340,-0.00228988,0.00932768,-0.03434584,0.00337801,
 -0.00098691,0.01884687,-0.00079694,0.00801039,0.00575811,0.24192972,0.
 01053968,-0.00489767,-0.00444880,0.00101537,0.00213076,0.00079683,-0.0
 0066147,0.00005265,0.00163486,0.00022918,-0.00160100,0.00145819,-0.218
 72503,-0.14482187,-0.00429509,0.40898658,-0.02759911,-0.03209780,-0.00
 137370,0.00408701,-0.00557875,-0.00161447,-0.00162766,-0.00116743,0.00
 171680,-0.00126227,0.00191977,0.00096972,-0.13427386,-0.35400173,-0.00
 190879,0.18106396,0.42386833,-0.00498989,-0.00264064,0.02039025,0.0021
 5072,-0.00080871,0.00158286,0.00067869,0.00491411,-0.00049133,0.001030
 85,-0.00218636,0.00003709,-0.00514379,-0.00161140,-0.07292599,0.006112
 30,0.00258142,0.06157922,-0.02604624,0.01938421,0.00307647,-0.00118562
 ,-0.00073834,-0.00087273,-0.00120637,-0.00026994,-0.00229950,0.0006776
 3,0.00239315,0.00076975,-0.33376853,0.04632758,-0.00464589,-0.10306576
 ,-0.04520987,-0.00112047,0.54029121,0.04550163,-0.01043340,0.00148862,
 0.00153070,0.00237040,-0.00015040,0.00176831,-0.00091099,0.00067548,0.
 00241395,-0.00620761,-0.00154636,0.05982239,-0.14380915,0.00103372,-0.
 05005837,0.01241192,-0.00163477,-0.09035984,0.35982735,0.00194169,-0.0
 0102205,0.00984895,0.00059710,-0.00116818,0.00018728,-0.00093240,0.001
 43159,-0.00017101,-0.00110284,-0.00050639,0.00044254,-0.00531622,0.000
 78669,-0.07659958,0.00068823,-0.00036857,0.02194661,0.00692518,-0.0024
 5122,0.09140850,-0.00162092,-0.00245934,-0.00104329,0.00033956,0.00031
 234,-0.00007977,-0.00008919,0.00019271,0.00032375,0.00016902,0.0007546
 3,0.00030593,-0.03665199,0.03753393,0.00106084,0.00717312,0.00812290,-
 0.00021960,-0.07619730,-0.00236461,-0.00164175,0.57125521,-0.00409615,
 0.00308004,0.00089339,-0.00023538,-0.00037154,-0.00004670,0.00002333,-
 0.00021886,-0.00049711,-0.00030307,0.00080056,-0.00028467,0.03640920,0
 .00109900,0.00043382,-0.01642251,-0.00923335,-0.00186905,0.02053648,-0
 .14277983,0.00179742,0.09768649,0.41287093,0.00174017,0.00112915,0.009
 00225,-0.00048898,-0.00040860,-0.00020888,-0.00132228,0.00147009,-0.00
 029753,0.00002671,-0.00092467,0.00002151,0.00633292,0.00263614,-0.0015
 4129,0.00110811,-0.00366781,-0.00559652,-0.00578882,-0.00157091,-0.065
 26949,0.00705258,0.00877113,0.61113408,-0.00052223,0.00001103,-0.00019
 457,0.00002144,-0.00000140,0.00002269,0.00000810,0.00000651,-0.0000138
 0,-0.00001078,0.00011360,0.00005500,0.00074463,0.00152598,0.00088621,-
 0.00019507,0.00047165,0.00013598,-0.01561832,0.00618365,0.00304218,-0.
 26940218,-0.03812318,0.08343167,0.29138011,0.00149048,0.00023933,0.000
 96959,0.00000444,0.00000094,-0.00000185,-0.00002481,0.00007811,0.00000
 529,0.00007231,-0.00050164,-0.00002019,0.00004511,-0.00773899,-0.00153
 121,-0.00053294,0.00203708,-0.00018254,0.04356962,-0.01152591,-0.01205
 045,-0.05318455,-0.05498412,0.01807667,0.03279449,0.07075417,-0.000061
 03,-0.00004195,0.00003018,0.00004230,0.00000889,0.00004056,0.00002198,
 0.00002227,-0.00001342,-0.00001780,-0.00000866,0.00002131,-0.00199323,
 0.00003682,0.00024267,-0.00060444,0.00078930,0.00021754,-0.00131578,0.
 00021074,0.00183539,0.08655253,0.01179304,-0.09214001,-0.09240507,-0.0
 1512510,0.08796487,-0.00023166,0.00010880,0.00117512,-0.00002713,-0.00
 012739,-0.00000932,-0.00018726,0.00028170,-0.00006701,-0.00004252,-0.0
 0004921,0.00000525,0.00305975,0.00294161,-0.00215003,0.00023432,-0.001
 50586,0.00026783,-0.00486070,0.01070502,-0.01479361,-0.05325510,-0.003
 63987,0.00211570,0.00449293,-0.00871611,0.02781505,0.04979208,0.000337
 36,-0.00057073,-0.00191426,0.00012848,0.00021128,0.00005749,0.00036209
 ,-0.00032866,0.00014003,0.00004369,0.00004785,-0.00002508,-0.00708050,
 -0.00228359,0.00197047,0.00223509,0.00186826,0.00115895,0.01216523,-0.
 02510273,0.02906278,-0.00172215,-0.06732592,0.06505304,-0.00096009,0.0
 0070231,0.00330237,-0.00544434,0.08308209,-0.00015115,0.00004141,-0.00
 068755,0.00002955,-0.00002747,0.00000418,0.00008345,-0.00018327,-0.000
 03603,-0.00003156,0.00003183,0.00001352,0.00081226,-0.00058385,0.00082
 616,-0.00000226,0.00014297,0.00043080,-0.00092967,0.00063745,0.0074948
 3,-0.00284740,0.07404268,-0.30486808,-0.00114353,0.00133620,-0.0074484
 8,0.00241344,-0.08070993,0.31751909,-0.00030377,-0.00016195,-0.0008752
 3,0.00004813,-0.00004295,-0.00000876,0.00003464,-0.00012220,-0.0000166
 0,-0.00009074,0.00014058,-0.00004270,0.00413156,0.00241776,0.00101964,
 -0.00364753,-0.00000519,0.00121380,0.00599866,0.01414283,0.01149231,-0
 .13950251,-0.09495552,-0.09420446,-0.01107305,-0.01551843,-0.01811044,
 0.00115017,0.00037270,0.00195172,0.14334838,0.00068128,-0.00001587,0.0
 0075741,-0.00004170,0.00014658,-0.00008575,-0.00012206,0.00013327,0.00
 002188,0.00011672,-0.00014383,-0.00000282,-0.00782046,-0.00120633,-0.0
 0110739,0.00175141,0.00257470,0.00023188,-0.00622164,-0.03049124,-0.01
 561981,-0.08522988,-0.14282201,-0.09033965,-0.00210406,0.00077944,-0.0
 0102091,0.00547454,0.00967489,0.00532842,0.09354431,0.16116085,0.00012
 081,0.00010841,-0.00018730,0.00001932,0.00004194,0.00001112,0.00002126
 ,-0.00002539,-0.00001990,-0.00001734,-0.00000537,0.00002433,-0.0022484
 1,-0.00191690,0.00120594,-0.00027245,0.00168628,-0.00019107,0.00451951
 ,0.00328115,0.00279209,-0.08956202,-0.09564066,-0.15029923,0.00611488,
 0.00843665,0.00918376,-0.01681794,-0.01799160,-0.01310230,0.09784604,0
 .10181711,0.15051076,-0.00081974,-0.00230265,-0.00106180,0.00046723,-0
 .00053785,0.00014214,-0.00027440,-0.00022847,0.00046813,-0.00044316,-0
 .00026570,0.00031366,0.00925026,0.02865832,0.00008670,-0.07714192,-0.0
 2152457,-0.00148253,-0.01366059,-0.00370297,0.00007551,0.00249057,-0.0
 0356991,0.00013988,-0.00017246,-0.00000211,-0.00009145,0.00007701,0.00
 036326,0.00012601,0.00015338,-0.00002363,-0.00032626,0.20437133,0.0001
 6570,-0.00021029,0.00026595,-0.00018363,0.00014621,-0.00009419,0.00015
 240,0.00003189,0.00007353,0.00003039,0.00020248,-0.00033660,0.00351297
 ,0.00113993,0.00023313,-0.00862708,0.00920508,-0.00202557,-0.00121055,
 0.00047283,0.00019333,0.00023946,-0.00054462,0.00001382,-0.00002905,0.
 00000913,-0.00000116,-0.00001861,0.00003973,0.00000926,-0.00006214,-0.
 00005279,-0.00002186,0.10184940,0.39031630,-0.00014235,0.00027269,0.00
 009512,0.00003188,0.00001356,0.00009355,0.00019871,0.00021023,-0.00002
 422,-0.00000621,-0.00030003,-0.00011337,-0.00106779,-0.00232884,0.0010
 6744,0.00334441,0.00126835,0.01132377,0.00103655,0.00024965,-0.0010900
 9,-0.00033443,0.00026310,-0.00013694,0.00000175,-0.00002830,0.00001258
 ,0.00002601,-0.00001034,0.00002487,0.00004389,0.00000045,-0.00000725,0
 .11469238,-0.09469568,0.53332974,0.00016482,0.00023707,0.00013644,-0.0
 0005847,0.00005853,-0.00003367,0.00002979,-0.00004295,-0.00004378,0.00
 000447,0.00003042,-0.00006066,-0.00103512,-0.00120398,-0.00014530,-0.0
 0326424,0.00353505,-0.00227777,0.00070600,0.00004060,0.00022730,-0.000
 12993,0.00011014,0.00002896,0.00001253,0.00002590,-0.00001150,-0.00006
 801,-0.00003755,-0.00003928,-0.00006960,-0.00003230,0.00006436,-0.0543
 5366,-0.06023781,0.02068749,0.04930999,0.00007828,0.00004001,0.0000799
 9,0.00000429,0.00000189,-0.00002027,-0.00007004,-0.00006142,-0.0000262
 5,-0.00002828,-0.00005601,0.00002156,-0.00136450,-0.00120910,0.0000303
 2,0.00379896,0.00083356,0.00063694,0.00111797,-0.00011860,-0.00007056,
 -0.00022352,0.00043447,0.00002988,0.00001424,-0.00002737,-0.00000260,0
 .00002222,-0.00001819,0.00000499,0.00002466,0.00002051,-0.00002846,-0.
 05594611,-0.29993372,0.18648090,0.05875468,0.29300037,-0.00003872,-0.0
 0024891,0.00010409,-0.00002449,-0.00001862,-0.00004188,-0.00002875,-0.
 00005250,0.00007220,0.,0.00013233,-0.00005656,0.00123292,0.00142437,0.
 00020040,-0.00418258,-0.00111802,-0.00080245,-0.00110303,-0.00010413,-
 0.00001111,0.00023995,-0.00024979,0.00013479,-0.00001732,0.00000924,-0
 .00002221,-0.00003764,0.00002281,0.00000314,0.00002769,0.00000854,-0.0
 0000899,0.00719051,0.13562472,-0.15087758,-0.01960342,-0.17576476,0.17
 352333,-0.00000073,0.00024128,0.00007126,0.00001506,-0.00000139,0.0000
 1676,0.00004982,-0.00001148,-0.00001992,0.00006980,-0.00023775,-0.0000
 5223,-0.00160774,-0.00088335,0.00012527,-0.00267401,0.00141719,0.00268
 029,0.00061795,-0.00008625,-0.00030660,-0.00019499,0.00013525,-0.00003
 104,0.00000620,-0.00000100,0.00000052,-0.00000913,-0.00002065,-0.00000
 239,-0.00002913,-0.00000342,0.00000468,-0.09287876,-0.04092904,-0.1311
 2391,0.00506336,0.00050091,0.00771340,0.09509505,-0.00015200,-0.000155
 00,-0.00012661,0.00007274,-0.00004652,0.00006508,0.00003080,0.00001122
 ,0.00004811,-0.00015334,-0.00017754,-0.00004170,0.00013041,0.00118100,
 -0.00023242,-0.00074791,-0.00040422,0.00020420,0.00000883,-0.00036094,
 -0.00000556,-0.00001729,0.00016299,0.00002206,0.00000304,-0.00002544,-
 0.00001236,0.00001441,-0.00000761,0.00000447,0.00004497,0.00000486,-0.
 00002188,-0.06130709,-0.07155043,-0.09530000,0.01639988,0.00795445,0.0
 3812702,0.04456635,0.06316574,0.00017259,0.00022297,0.00001788,0.00000
 690,0.00003512,0.00000807,-0.00008078,-0.00003140,-0.00007234,-0.00002
 608,0.00001086,0.00016039,-0.00136603,-0.00201004,0.00017749,0.0064249
 0,0.00126757,-0.00055811,0.00129262,0.00020867,-0.00001911,-0.00017727
 ,0.00031729,0.00006441,0.00002155,0.00000529,0.00000887,-0.00002853,-0
 .00005314,-0.00002962,-0.00002156,-0.00001735,0.00006487,-0.12516684,-
 0.04718945,-0.35177007,-0.01120480,-0.01066861,-0.02231994,0.14008629,
 0.05895911,0.36915152,0.00302530,0.00487108,0.00247882,-0.00114199,0.0
 0165272,-0.00014032,0.00075836,0.00059574,-0.00085269,0.00114210,0.000
 35310,-0.00093065,-0.03434151,-0.04725012,-0.00048249,-0.01880322,0.03
 431064,0.00096356,0.02731798,0.00446296,-0.00089607,-0.00438337,0.0064
 4470,-0.00014111,0.00032814,-0.00002242,0.00017836,-0.00012476,-0.0007
 4264,-0.00026918,-0.00014860,0.00003089,0.00053358,0.02293491,0.005347
 61,-0.00738839,0.00368807,-0.00668376,0.00863149,-0.00352274,0.0011062
 1,-0.00993296,0.00327133,-0.00008898,0.00037155,-0.00100123,0.00041693
 ,0.00002348,0.00030802,-0.00021581,-0.00017619,-0.00008305,0.00008344,
 -0.00115516,0.00079379,-0.02770442,0.00262562,-0.00136749,0.03667653,-
 0.05223541,0.00323154,-0.00149288,-0.00334208,-0.00000903,0.00035888,-
 0.00016774,-0.00029033,0.00009359,0.00020296,0.00004931,-0.00004691,0.
 00001101,-0.00007517,0.00018058,0.00023696,0.00028056,0.01854008,-0.02
 927173,0.00390426,-0.01763767,-0.00086084,0.00220770,-0.00468665,0.000
 24744,-0.00105692,-0.00447670,0.08349013,0.00109896,0.00007446,-0.0022
 2658,-0.00015334,0.00017127,-0.00015059,-0.00039422,-0.00081529,-0.000
 03642,-0.00028627,0.00047201,0.00043176,0.00058331,0.00178891,-0.00601
 022,-0.00776222,-0.00037104,-0.03694267,0.00045582,-0.00032771,0.00720
 419,0.00036995,0.00027611,0.00000094,0.00006239,0.00010070,0.00006640,
 0.00008569,-0.00006358,-0.00014452,-0.00031534,0.00002798,0.00002317,0
 .00489395,0.00795076,-0.04192755,0.01227562,-0.00070306,0.00010278,-0.
 01916237,-0.00168952,0.00511569,0.00824806,-0.00689197,0.07449362||0.0
 0608595,-0.03530907,0.00205613,0.00491553,0.01430272,-0.00370624,-0.00
 089255,0.00942212,0.00647027,-0.00447596,0.00739755,-0.00438469,-0.019
 20791,0.02665680,0.00103589,0.01749873,-0.02243436,0.00584152,0.026960
 00,0.00172781,-0.00080809,-0.01189381,-0.00734325,0.00284293,0.0077495
 3,0.00658203,-0.00483382,0.00012691,-0.00003647,0.00460690,-0.00132556
 ,-0.00403195,-0.00259253,-0.00135986,0.02511622,0.01368123,-0.00068729
 ,-0.01703221,0.00597993,-0.00074295,-0.00654147,-0.01341840,-0.0227507
 6,0.00152352,-0.01277103|||@


 MY DESCRIPTION OF EXPERIENCE IS NOT WHAT HAPPENS
 TO A MAN.  EXPERIENCE IS WHAT A MAN DOES WITH WHAT
 HAPPENS TO HIM.
                         - CHUCK KNOX, SEATTLE SEAHAWKS, 1985
 Job cpu time:  0 days  0 hours  7 minutes 20.0 seconds.
 File lengths (MBytes):  RWF=     35 Int=      0 D2E=      0 Chk=      2 Scr=      1
 Normal termination of Gaussian 09 at Thu Oct 01 10:01:12 2015.
