 Entering Link 1 = C:\G09W\l1.exe PID=      2100.
  
 Copyright (c) 1988,1990,1992,1993,1995,1998,2003,2009, Gaussian, Inc.
                  All Rights Reserved.
  
 This is part of the Gaussian(R) 09 program.  It is based on
 the Gaussian(R) 03 system (copyright 2003, Gaussian, Inc.),
 the Gaussian(R) 98 system (copyright 1998, Gaussian, Inc.),
 the Gaussian(R) 94 system (copyright 1995, Gaussian, Inc.),
 the Gaussian 92(TM) system (copyright 1992, Gaussian, Inc.),
 the Gaussian 90(TM) system (copyright 1990, Gaussian, Inc.),
 the Gaussian 88(TM) system (copyright 1988, Gaussian, Inc.),
 the Gaussian 86(TM) system (copyright 1986, Carnegie Mellon
 University), and the Gaussian 82(TM) system (copyright 1983,
 Carnegie Mellon University). Gaussian is a federally registered
 trademark of Gaussian, Inc.
  
 This software contains proprietary and confidential information,
 including trade secrets, belonging to Gaussian, Inc.
  
 This software is provided under written license and may be
 used, copied, transmitted, or stored only in accord with that
 written license.
  
 The following legend is applicable only to US Government
 contracts under FAR:
  
                    RESTRICTED RIGHTS LEGEND
  
 Use, reproduction and disclosure by the US Government is
 subject to restrictions as set forth in subparagraphs (a)
 and (c) of the Commercial Computer Software - Restricted
 Rights clause in FAR 52.227-19.
  
 Gaussian, Inc.
 340 Quinnipiac St., Bldg. 40, Wallingford CT 06492
  
  
 ---------------------------------------------------------------
 Warning -- This program may not be used in any manner that
 competes with the business of Gaussian, Inc. or will provide
 assistance to any competitor of Gaussian, Inc.  The licensee
 of this program is prohibited from giving any competitor of
 Gaussian, Inc. access to this program.  By using this program,
 the user acknowledges that Gaussian, Inc. is engaged in the
 business of creating and licensing software in the field of
 computational chemistry and represents and warrants to the
 licensee that it is not a competitor of Gaussian, Inc. and that
 it will not use this program in any manner prohibited above.
 ---------------------------------------------------------------
  

 Cite this work as:
 Gaussian 09, Revision A.02,
 M. J. Frisch, G. W. Trucks, H. B. Schlegel, G. E. Scuseria, 
 M. A. Robb, J. R. Cheeseman, G. Scalmani, V. Barone, B. Mennucci, 
 G. A. Petersson, H. Nakatsuji, M. Caricato, X. Li, H. P. Hratchian, 
 A. F. Izmaylov, J. Bloino, G. Zheng, J. L. Sonnenberg, M. Hada, 
 M. Ehara, K. Toyota, R. Fukuda, J. Hasegawa, M. Ishida, T. Nakajima, 
 Y. Honda, O. Kitao, H. Nakai, T. Vreven, J. A. Montgomery, Jr., 
 J. E. Peralta, F. Ogliaro, M. Bearpark, J. J. Heyd, E. Brothers, 
 K. N. Kudin, V. N. Staroverov, R. Kobayashi, J. Normand, 
 K. Raghavachari, A. Rendell, J. C. Burant, S. S. Iyengar, J. Tomasi, 
 M. Cossi, N. Rega, J. M. Millam, M. Klene, J. E. Knox, J. B. Cross, 
 V. Bakken, C. Adamo, J. Jaramillo, R. Gomperts, R. E. Stratmann, 
 O. Yazyev, A. J. Austin, R. Cammi, C. Pomelli, J. W. Ochterski, 
 R. L. Martin, K. Morokuma, V. G. Zakrzewski, G. A. Voth, 
 P. Salvador, J. J. Dannenberg, S. Dapprich, A. D. Daniels, 
 O. Farkas, J. B. Foresman, J. V. Ortiz, J. Cioslowski, 
 and D. J. Fox, Gaussian, Inc., Wallingford CT, 2009.
 
 ******************************************
 Gaussian 09:  IA32W-G09RevA.02 11-Jun-2009
                01-Oct-2015 
 ******************************************
 %chk=C:\Users\214584429\Google Drive\214584429 MONSURAT\Silva-2014remix\meohac-h
 30allf.chk
 ------------------------------------------------
 # freq=noraman x3lyp/6-31+g(d) geom=connectivity
 ------------------------------------------------
 1/10=4,30=1,38=1,57=2/1,3;
 2/12=2,17=6,18=5,40=1/2;
 3/5=1,6=6,7=11,11=2,16=1,25=1,30=1,71=2,74=-33/1,2,3;
 4//1;
 5/5=2,38=5,98=1/2;
 8/6=4,10=90,11=11/1;
 11/6=1,8=1,9=11,15=111,16=1/1,2,10;
 10/6=1/2;
 6/7=2,8=2,9=2,10=2,18=1,28=1/1;
 7/8=1,10=1,25=1/1,2,3,16;
 1/10=4,30=1/3;
 99//99;
 -------------------
 Title Card Required
 -------------------
 Symbolic Z-matrix:
 Charge =  1 Multiplicity = 1
 C                    -0.5774   -1.92391  -1.49254 
 H                     0.4851   -1.80404  -1.77512 
 H                    -1.18047  -1.74636  -2.40195 
 H                    -0.70375  -2.99347  -1.22948 
 C                    -0.96644  -1.01888  -0.39118 
 O                    -1.53106   0.06947  -0.46751 
 O                    -0.54058  -1.50269   0.80955 
 C                    -0.93479  -0.7917    2.01943 
 H                    -0.33215  -1.29094   2.79135 
 H                    -0.70258   0.2739    1.93277 
 H                    -2.00436  -0.95984   2.19456 
 O                    -1.5609    2.34907  -0.7661 
 H                    -2.29957   2.0242   -0.16208 
 H                    -1.64621   1.6929   -1.53774 
 H                    -0.55055   1.88779  -0.15462 
 C                     3.33344   0.06547  -0.23955 
 H                     3.53659   0.73988  -1.08266 
 H                     3.76105  -0.92624  -0.43907 
 H                     3.70259   0.47244   0.70718 
 O                     1.88308  -0.0479   -0.21154 
 H                     1.61105  -0.70454   0.48949 
 O                     0.40797   1.80316   0.67509 
 H                     1.20375   1.25497   0.19614 
 H                     0.72255   2.72471   0.77842 
 

 GradGradGradGradGradGradGradGradGradGradGradGradGradGradGradGradGradGrad
 Berny optimization.
 Initialization pass.
 Trust Radius=3.00D-01 FncErr=1.00D-07 GrdErr=1.00D-07
 Number of steps in this run=   2 maximum allowed number of steps=   2.
 GradGradGradGradGradGradGradGradGradGradGradGradGradGradGradGradGradGrad

                          Input orientation:                          
 ---------------------------------------------------------------------
 Center     Atomic      Atomic             Coordinates (Angstroms)
 Number     Number       Type             X           Y           Z
 ---------------------------------------------------------------------
      1          6           0       -0.577398   -1.923910   -1.492540
      2          1           0        0.485102   -1.804038   -1.775120
      3          1           0       -1.180471   -1.746360   -2.401945
      4          1           0       -0.703748   -2.993466   -1.229480
      5          6           0       -0.966436   -1.018883   -0.391176
      6          8           0       -1.531062    0.069466   -0.467510
      7          8           0       -0.540578   -1.502693    0.809548
      8          6           0       -0.934790   -0.791698    2.019425
      9          1           0       -0.332152   -1.290944    2.791352
     10          1           0       -0.702581    0.273896    1.932769
     11          1           0       -2.004364   -0.959843    2.194560
     12          8           0       -1.560898    2.349065   -0.766104
     13          1           0       -2.299565    2.024196   -0.162084
     14          1           0       -1.646207    1.692903   -1.537742
     15          1           0       -0.550546    1.887786   -0.154618
     16          6           0        3.333436    0.065467   -0.239554
     17          1           0        3.536589    0.739878   -1.082663
     18          1           0        3.761049   -0.926240   -0.439067
     19          1           0        3.702594    0.472442    0.707178
     20          8           0        1.883083   -0.047898   -0.211540
     21          1           0        1.611053   -0.704539    0.489487
     22          8           0        0.407965    1.803160    0.675091
     23          1           0        1.203746    1.254965    0.196138
     24          1           0        0.722552    2.724710    0.778421
 ---------------------------------------------------------------------
                    Distance matrix (angstroms):
                    1          2          3          4          5
     1  C    0.000000
     2  H    1.105951   0.000000
     3  H    1.105549   1.780553   0.000000
     4  H    1.108655   1.768001   1.776855   0.000000
     5  C    1.477642   2.153772   2.149006   2.161189   0.000000
     6  O    2.435921   3.047093   2.676224   3.262913   1.228468
     7  O    2.340596   2.797023   3.283675   2.531139   1.362779
     8  C    3.707227   4.176062   4.529928   3.931481   2.421490
     9  H    4.337340   4.667316   5.281797   4.382209   3.256504
    10  H    4.071703   4.413257   4.806200   4.547029   2.672380
    11  H    4.069443   4.761141   4.735532   4.189424   2.786900
    12  O    4.444468   4.738406   4.426421   5.430659   3.440498
    13  H    4.508161   5.001163   4.526195   5.372420   3.330172
    14  H    3.771701   4.102124   3.576631   4.790126   3.021669
    15  H    4.039775   4.162710   4.319063   5.000542   2.945785
    16  C    4.563137   3.737114   5.322970   5.160996   4.437083
    17  H    4.918196   4.032689   5.492954   5.651537   4.883506
    18  H    4.574634   3.645188   5.379973   4.983231   4.728635
    19  H    5.375834   4.657942   6.199520   5.931190   5.022975
    20  O    3.348783   2.735537   4.131345   4.050218   3.015765
    21  H    3.194466   2.757736   4.151912   3.681350   2.741866
    22  O    4.422738   4.361349   4.958868   5.279291   3.315091
    23  H    4.016137   3.709421   4.630602   4.870327   3.197657
    24  H    5.334492   5.204470   5.807469   6.226037   4.270261
                    6          7          8          9         10
     6  O    0.000000
     7  O    2.254688   0.000000
     8  C    2.698516   1.457642   0.000000
     9  H    3.729381   2.003953   1.099223   0.000000
    10  H    2.547452   2.108113   1.094039   1.822939   0.000000
    11  H    2.893114   2.087011   1.096783   1.806123   1.812536
    12  O    2.299265   4.284830   4.244476   5.235931   3.510976
    13  H    2.122463   4.059193   3.814558   4.856300   3.162644
    14  H    1.947871   4.116311   4.396907   5.419515   3.866324
    15  H    2.089402   3.524920   3.471850   4.339442   2.642904
    16  C    4.869838   4.309028   4.904638   4.945986   4.588231
    17  H    5.148685   5.023234   5.653486   5.839468   5.223077
    18  H    5.385042   4.516119   5.302187   5.227132   5.195183
    19  H    5.378981   4.681468   4.982507   4.871600   4.576796
    20  O    3.425738   3.005525   3.670266   3.933165   3.374503
    21  H    3.374583   2.317111   2.971468   3.068957   2.897119
    22  O    2.840961   3.441871   3.216133   3.820970   2.270179
    23  H    3.053688   3.320183   3.476570   3.946615   2.759070
    24  H    3.698843   4.412188   4.080686   4.614084   3.061048
                   11         12         13         14         15
    11  H    0.000000
    12  O    4.462182   0.000000
    13  H    3.813844   1.007973   0.000000
    14  H    4.592975   1.016490   1.558546   0.000000
    15  H    3.967520   1.267874   1.754346   1.775242   0.000000
    16  C    5.955525   5.426470   5.964337   5.397285   4.291081
    17  H    6.658183   5.354817   6.046291   5.289303   4.345530
    18  H    6.338541   6.257611   6.746320   6.107816   5.156501
    19  H    6.069029   5.778981   6.260149   5.927804   4.564547
    20  O    4.661889   4.232491   4.668036   4.152721   3.110090
    21  H    4.005458   4.578458   4.812845   4.524061   3.436209
    22  O    3.970177   2.500295   2.842611   3.021326   1.270560
    23  H    4.380757   3.125095   3.604612   3.364575   1.897639
    24  H    4.797651   2.782231   3.241676   3.469907   1.786556
                   16         17         18         19         20
    16  C    0.000000
    17  H    1.098606   0.000000
    18  H    1.098245   1.800152   0.000000
    19  H    1.094627   1.817309   1.809311   0.000000
    20  O    1.455046   2.028184   2.085668   2.103667   0.000000
    21  H    2.022625   2.875010   2.352413   2.409817   0.998307
    22  O    3.523426   3.742801   4.464767   3.553367   2.527549
    23  H    2.477965   2.709761   3.420664   2.667910   1.524845
    24  H    3.863232   3.914332   4.903486   3.736099   3.164524
                   21         22         23         24
    21  H    0.000000
    22  O    2.787548   0.000000
    23  H    2.022772   1.078509   0.000000
    24  H    3.554246   0.979233   1.652499   0.000000
 Stoichiometry    C4H15O5(1+)
 Framework group  C1[X(C4H15O5)]
 Deg. of freedom    66
 Full point group                 C1      NOp   1
 Largest Abelian subgroup         C1      NOp   1
 Largest concise Abelian subgroup C1      NOp   1
                         Standard orientation:                         
 ---------------------------------------------------------------------
 Center     Atomic      Atomic             Coordinates (Angstroms)
 Number     Number       Type             X           Y           Z
 ---------------------------------------------------------------------
      1          6           0       -0.577398   -1.923910   -1.492540
      2          1           0        0.485102   -1.804038   -1.775120
      3          1           0       -1.180471   -1.746360   -2.401945
      4          1           0       -0.703747   -2.993466   -1.229480
      5          6           0       -0.966436   -1.018883   -0.391176
      6          8           0       -1.531062    0.069466   -0.467510
      7          8           0       -0.540578   -1.502693    0.809548
      8          6           0       -0.934790   -0.791698    2.019425
      9          1           0       -0.332152   -1.290944    2.791352
     10          1           0       -0.702581    0.273896    1.932769
     11          1           0       -2.004364   -0.959844    2.194560
     12          8           0       -1.560899    2.349065   -0.766104
     13          1           0       -2.299566    2.024195   -0.162084
     14          1           0       -1.646207    1.692903   -1.537742
     15          1           0       -0.550546    1.887786   -0.154618
     16          6           0        3.333436    0.065468   -0.239554
     17          1           0        3.536589    0.739879   -1.082663
     18          1           0        3.761049   -0.926239   -0.439067
     19          1           0        3.702594    0.472443    0.707178
     20          8           0        1.883083   -0.047898   -0.211540
     21          1           0        1.611053   -0.704539    0.489487
     22          8           0        0.407965    1.803160    0.675091
     23          1           0        1.203746    1.254965    0.196138
     24          1           0        0.722551    2.724710    0.778421
 ---------------------------------------------------------------------
 Rotational constants (GHZ):      1.1959787      1.0079606      0.7886840
 Standard basis: 6-31+G(d) (6D, 7F)
 There are   201 symmetry adapted basis functions of A   symmetry.
 Integral buffers will be    262144 words long.
 Raffenetti 2 integral format.
 Two-electron integral symmetry is turned on.
   201 basis functions,   348 primitive gaussians,   201 cartesian basis functions
    39 alpha electrons       39 beta electrons
       nuclear repulsion energy       545.5891684389 Hartrees.
 NAtoms=   24 NActive=   24 NUniq=   24 SFac= 7.50D-01 NAtFMM=   80 NAOKFM=F Big=F
 One-electron integrals computed using PRISM.
 NBasis=   201 RedAO= T  NBF=   201
 NBsUse=   201 1.00D-06 NBFU=   201
 Harris functional with IExCor= 3102 diagonalized for initial guess.
 ExpMin= 4.38D-02 ExpMax= 5.48D+03 ExpMxC= 8.25D+02 IAcc=2 IRadAn=         0 AccDes= 0.00D+00
 HarFok:  IExCor= 3102 AccDes= 0.00D+00 IRadAn=         0 IDoV= 1
 ScaDFX=  1.000000  1.000000  1.000000  1.000000
 FoFCou: FMM=F IPFlag=           0 FMFlag=      100000 FMFlg1=           0
         NFxFlg=           0 DoJE=T BraDBF=F KetDBF=T FulRan=T
         Omega=  0.000000  0.000000  1.000000  0.000000  0.000000 ICntrl=     500 IOpCl=  0
         NMat0=    1 NMatS0=    1 NMatT0=    0 NMatD0=    1 NMtDS0=    0 NMtDT0=    0
         I1Cent=           4 NGrid=           0.
 Petite list used in FoFCou.
 Initial guess orbital symmetries:
       Occupied  (A) (A) (A) (A) (A) (A) (A) (A) (A) (A) (A) (A)
                 (A) (A) (A) (A) (A) (A) (A) (A) (A) (A) (A) (A)
                 (A) (A) (A) (A) (A) (A) (A) (A) (A) (A) (A) (A)
                 (A) (A) (A)
       Virtual   (A) (A) (A) (A) (A) (A) (A) (A) (A) (A) (A) (A)
                 (A) (A) (A) (A) (A) (A) (A) (A) (A) (A) (A) (A)
                 (A) (A) (A) (A) (A) (A) (A) (A) (A) (A) (A) (A)
                 (A) (A) (A) (A) (A) (A) (A) (A) (A) (A) (A) (A)
                 (A) (A) (A) (A) (A) (A) (A) (A) (A) (A) (A) (A)
                 (A) (A) (A) (A) (A) (A) (A) (A) (A) (A) (A) (A)
                 (A) (A) (A) (A) (A) (A) (A) (A) (A) (A) (A) (A)
                 (A) (A) (A) (A) (A) (A) (A) (A) (A) (A) (A) (A)
                 (A) (A) (A) (A) (A) (A) (A) (A) (A) (A) (A) (A)
                 (A) (A) (A) (A) (A) (A) (A) (A) (A) (A) (A) (A)
                 (A) (A) (A) (A) (A) (A) (A) (A) (A) (A) (A) (A)
                 (A) (A) (A) (A) (A) (A) (A) (A) (A) (A) (A) (A)
                 (A) (A) (A) (A) (A) (A) (A) (A) (A) (A) (A) (A)
                 (A) (A) (A) (A) (A) (A)
 The electronic state of the initial guess is 1-A.
 Requested convergence on RMS density matrix=1.00D-08 within 128 cycles.
 Requested convergence on MAX density matrix=1.00D-06.
 Requested convergence on             energy=1.00D-06.
 No special actions if energy rises.
 SCF Done:  E(RX3LYP) =  -537.107423828     A.U. after   13 cycles
             Convg  =    0.3579D-08             -V/T =  2.0093
 Range of M.O.s used for correlation:     1   201
 NBasis=   201 NAE=    39 NBE=    39 NFC=     0 NFV=     0
 NROrb=    201 NOA=    39 NOB=    39 NVA=   162 NVB=   162

 **** Warning!!: The largest alpha MO coefficient is  0.50228436D+02

 Symmetrizing basis deriv contribution to polar:
 IMax=3 JMax=2 DiffMx= 0.00D+00
 G2DrvN: will do    25 centers at a time, making    1 passes doing MaxLOS=2.
 Calling FoFCou, ICntrl=  3107 FMM=F I1Cent=   0 AccDes= 0.00D+00.
 FoFDir/FoFCou used for L=0 through L=2.
 End of G2Drv Frequency-dependent properties file   721 does not exist.
 End of G2Drv Frequency-dependent properties file   722 does not exist.
          IDoAtm=111111111111111111111111
          Differentiating once with respect to electric field.
                with respect to dipole field.
          Differentiating once with respect to nuclear coordinates.
          There are    75 degrees of freedom in the 1st order CPHF.  IDoFFX=5.
     72 vectors produced by pass  0 Test12= 8.42D-15 1.33D-09 XBig12= 4.65D+01 1.72D+00.
 AX will form    72 AO Fock derivatives at one time.
     72 vectors produced by pass  1 Test12= 8.42D-15 1.33D-09 XBig12= 8.64D+00 7.03D-01.
     72 vectors produced by pass  2 Test12= 8.42D-15 1.33D-09 XBig12= 3.50D-02 2.02D-02.
     72 vectors produced by pass  3 Test12= 8.42D-15 1.33D-09 XBig12= 7.52D-05 9.24D-04.
     72 vectors produced by pass  4 Test12= 8.42D-15 1.33D-09 XBig12= 8.86D-08 3.09D-05.
     40 vectors produced by pass  5 Test12= 8.42D-15 1.33D-09 XBig12= 6.45D-11 8.07D-07.
      3 vectors produced by pass  6 Test12= 8.42D-15 1.33D-09 XBig12= 5.56D-14 3.58D-08.
      3 vectors produced by pass  7 Test12= 8.42D-15 1.33D-09 XBig12= 1.34D-16 2.20D-09.
      1 vectors produced by pass  8 Test12= 8.42D-15 1.33D-09 XBig12= 4.07D-17 1.77D-09.
 Inverted reduced A of dimension   407 with in-core refinement.
 Isotropic polarizability for W=    0.000000       77.77 Bohr**3.
 End of Minotr Frequency-dependent properties file   721 does not exist.
 End of Minotr Frequency-dependent properties file   722 does not exist.

 **********************************************************************

            Population analysis using the SCF density.

 **********************************************************************

 Orbital symmetries:
       Occupied  (A) (A) (A) (A) (A) (A) (A) (A) (A) (A) (A) (A)
                 (A) (A) (A) (A) (A) (A) (A) (A) (A) (A) (A) (A)
                 (A) (A) (A) (A) (A) (A) (A) (A) (A) (A) (A) (A)
                 (A) (A) (A)
       Virtual   (A) (A) (A) (A) (A) (A) (A) (A) (A) (A) (A) (A)
                 (A) (A) (A) (A) (A) (A) (A) (A) (A) (A) (A) (A)
                 (A) (A) (A) (A) (A) (A) (A) (A) (A) (A) (A) (A)
                 (A) (A) (A) (A) (A) (A) (A) (A) (A) (A) (A) (A)
                 (A) (A) (A) (A) (A) (A) (A) (A) (A) (A) (A) (A)
                 (A) (A) (A) (A) (A) (A) (A) (A) (A) (A) (A) (A)
                 (A) (A) (A) (A) (A) (A) (A) (A) (A) (A) (A) (A)
                 (A) (A) (A) (A) (A) (A) (A) (A) (A) (A) (A) (A)
                 (A) (A) (A) (A) (A) (A) (A) (A) (A) (A) (A) (A)
                 (A) (A) (A) (A) (A) (A) (A) (A) (A) (A) (A) (A)
                 (A) (A) (A) (A) (A) (A) (A) (A) (A) (A) (A) (A)
                 (A) (A) (A) (A) (A) (A) (A) (A) (A) (A) (A) (A)
                 (A) (A) (A) (A) (A) (A) (A) (A) (A) (A) (A) (A)
                 (A) (A) (A) (A) (A) (A)
 The electronic state is 1-A.
 Alpha  occ. eigenvalues --  -19.41755 -19.40870 -19.38100 -19.37980 -19.33897
 Alpha  occ. eigenvalues --  -10.50504 -10.40763 -10.39877 -10.35546  -1.26650
 Alpha  occ. eigenvalues --   -1.24821  -1.22515  -1.20188  -1.17839  -0.91993
 Alpha  occ. eigenvalues --   -0.85143  -0.84512  -0.74031  -0.73003  -0.72655
 Alpha  occ. eigenvalues --   -0.71639  -0.68423  -0.67142  -0.64386  -0.63613
 Alpha  occ. eigenvalues --   -0.61962  -0.60297  -0.58961  -0.57945  -0.56985
 Alpha  occ. eigenvalues --   -0.55804  -0.53401  -0.52716  -0.52051  -0.51790
 Alpha  occ. eigenvalues --   -0.50436  -0.46849  -0.46158  -0.45006
 Alpha virt. eigenvalues --   -0.16355  -0.15651  -0.12643  -0.11180  -0.09702
 Alpha virt. eigenvalues --   -0.08864  -0.07999  -0.07269  -0.06731  -0.05919
 Alpha virt. eigenvalues --   -0.05242  -0.03931  -0.03539  -0.02348  -0.01941
 Alpha virt. eigenvalues --   -0.01285  -0.00552  -0.00212   0.01124   0.01362
 Alpha virt. eigenvalues --    0.01966   0.02342   0.02997   0.03698   0.04389
 Alpha virt. eigenvalues --    0.04475   0.05311   0.06320   0.06749   0.07300
 Alpha virt. eigenvalues --    0.07848   0.08189   0.08717   0.10042   0.10293
 Alpha virt. eigenvalues --    0.11671   0.12130   0.12550   0.14143   0.14697
 Alpha virt. eigenvalues --    0.15810   0.16704   0.17670   0.18177   0.18513
 Alpha virt. eigenvalues --    0.20460   0.21484   0.21781   0.22329   0.22610
 Alpha virt. eigenvalues --    0.24749   0.27310   0.28992   0.30250   0.31210
 Alpha virt. eigenvalues --    0.33574   0.36136   0.51243   0.52976   0.53380
 Alpha virt. eigenvalues --    0.55349   0.56837   0.57492   0.58028   0.61089
 Alpha virt. eigenvalues --    0.63170   0.68005   0.70061   0.74287   0.78251
 Alpha virt. eigenvalues --    0.79394   0.81616   0.82950   0.83787   0.85656
 Alpha virt. eigenvalues --    0.86833   0.87064   0.87454   0.91982   0.92975
 Alpha virt. eigenvalues --    0.94252   0.95177   0.97042   0.97898   0.98091
 Alpha virt. eigenvalues --    0.99537   1.00740   1.02553   1.04568   1.05528
 Alpha virt. eigenvalues --    1.07258   1.08707   1.10460   1.12636   1.13148
 Alpha virt. eigenvalues --    1.13928   1.15584   1.18567   1.20331   1.23840
 Alpha virt. eigenvalues --    1.26600   1.29460   1.30136   1.35011   1.36877
 Alpha virt. eigenvalues --    1.41189   1.42766   1.45334   1.48662   1.49718
 Alpha virt. eigenvalues --    1.53341   1.54408   1.56530   1.57396   1.57984
 Alpha virt. eigenvalues --    1.59946   1.61238   1.65210   1.67029   1.67640
 Alpha virt. eigenvalues --    1.70925   1.73709   1.78850   1.82895   1.85775
 Alpha virt. eigenvalues --    1.87651   1.88343   1.94391   1.97468   2.00814
 Alpha virt. eigenvalues --    2.02320   2.05282   2.06213   2.06539   2.14800
 Alpha virt. eigenvalues --    2.15427   2.16341   2.16899   2.19805   2.20620
 Alpha virt. eigenvalues --    2.27856   2.29632   2.35396   2.35703   2.43140
 Alpha virt. eigenvalues --    2.46631   2.49774   2.53562   2.68808   2.71995
 Alpha virt. eigenvalues --    2.84752   2.96890   2.99050   3.82211   3.98038
 Alpha virt. eigenvalues --    4.05343   4.14530   4.18579   4.23891   4.27778
 Alpha virt. eigenvalues --    4.31813   4.48031
          Condensed to atoms (all electrons):
              1          2          3          4          5          6
     1  C    6.533958   0.372370   0.412297   0.430730  -0.718353  -0.015092
     2  H    0.372370   0.430442  -0.020567  -0.020570  -0.034323  -0.001615
     3  H    0.412297  -0.020567   0.447250  -0.023349  -0.081847  -0.000086
     4  H    0.430730  -0.020570  -0.023349   0.434166  -0.086137   0.004563
     5  C   -0.718353  -0.034323  -0.081847  -0.086137   5.755032   0.324453
     6  O   -0.015092  -0.001615  -0.000086   0.004563   0.324453   8.588489
     7  O   -0.154487  -0.004081   0.008987  -0.002861   0.266844  -0.181078
     8  C    0.014503   0.000071   0.001858  -0.005073  -0.151183   0.002499
     9  H   -0.003161   0.000009   0.000002  -0.000017   0.008281  -0.000060
    10  H   -0.003064   0.000029   0.000000  -0.000017  -0.017147   0.008282
    11  H    0.004758  -0.000015   0.000008   0.000020  -0.022551   0.002647
    12  O   -0.003275   0.000300  -0.000209  -0.000043  -0.008052  -0.078762
    13  H    0.002967  -0.000001   0.000004   0.000000  -0.008613   0.011249
    14  H   -0.006888   0.000011   0.000038   0.000004   0.013930   0.020023
    15  H   -0.001975   0.000010  -0.000002  -0.000002  -0.000442   0.003496
    16  C   -0.001961  -0.001223   0.000069   0.000029  -0.007543   0.002739
    17  H    0.000492   0.000008   0.000000   0.000000  -0.000132  -0.000070
    18  H    0.001512   0.000004   0.000000   0.000000  -0.001546  -0.000041
    19  H   -0.000793   0.000001   0.000000   0.000000  -0.000050   0.000022
    20  O   -0.048333   0.004772  -0.000156  -0.000656   0.094583  -0.005865
    21  H   -0.001710  -0.000815   0.000020   0.000045   0.004623  -0.001377
    22  O    0.020829  -0.000417   0.000138   0.000099  -0.032799  -0.030398
    23  H   -0.005847   0.000110  -0.000003  -0.000001   0.011367   0.000503
    24  H   -0.000774  -0.000002   0.000000   0.000000  -0.000749   0.003043
              7          8          9         10         11         12
     1  C   -0.154487   0.014503  -0.003161  -0.003064   0.004758  -0.003275
     2  H   -0.004081   0.000071   0.000009   0.000029  -0.000015   0.000300
     3  H    0.008987   0.001858   0.000002   0.000000   0.000008  -0.000209
     4  H   -0.002861  -0.005073  -0.000017  -0.000017   0.000020  -0.000043
     5  C    0.266844  -0.151183   0.008281  -0.017147  -0.022551  -0.008052
     6  O   -0.181078   0.002499  -0.000060   0.008282   0.002647  -0.078762
     7  O    8.430510   0.072754  -0.054737  -0.038969  -0.028007  -0.000600
     8  C    0.072754   5.303455   0.396502   0.385569   0.389732   0.000426
     9  H   -0.054737   0.396502   0.468602  -0.026651  -0.022212  -0.000011
    10  H   -0.038969   0.385569  -0.026651   0.477630  -0.029130  -0.000591
    11  H   -0.028007   0.389732  -0.022212  -0.029130   0.463224   0.000320
    12  O   -0.000600   0.000426  -0.000011  -0.000591   0.000320   8.680173
    13  H    0.000581   0.001909   0.000000   0.000044  -0.000008   0.193558
    14  H    0.001003  -0.000704   0.000000   0.000009   0.000000   0.171691
    15  H   -0.003624   0.000504   0.000013  -0.001231   0.000028   0.081568
    16  C    0.002549  -0.002264  -0.000151  -0.000663   0.000142   0.000660
    17  H    0.000011   0.000087   0.000000   0.000000   0.000000  -0.000038
    18  H   -0.000053  -0.000297   0.000000  -0.000001   0.000000   0.000003
    19  H    0.000097   0.000005   0.000002   0.000002   0.000000   0.000014
    20  O    0.019197  -0.012885   0.000225  -0.001751   0.000144   0.001129
    21  H    0.013141   0.000162  -0.000175  -0.000095   0.000057  -0.000155
    22  O    0.006877  -0.001706   0.000066  -0.002632  -0.000098  -0.085272
    23  H   -0.000729  -0.000955  -0.000024  -0.000402   0.000012   0.003221
    24  H    0.000551   0.001062  -0.000007   0.000591  -0.000006   0.002551
             13         14         15         16         17         18
     1  C    0.002967  -0.006888  -0.001975  -0.001961   0.000492   0.001512
     2  H   -0.000001   0.000011   0.000010  -0.001223   0.000008   0.000004
     3  H    0.000004   0.000038  -0.000002   0.000069   0.000000   0.000000
     4  H    0.000000   0.000004  -0.000002   0.000029   0.000000   0.000000
     5  C   -0.008613   0.013930  -0.000442  -0.007543  -0.000132  -0.001546
     6  O    0.011249   0.020023   0.003496   0.002739  -0.000070  -0.000041
     7  O    0.000581   0.001003  -0.003624   0.002549   0.000011  -0.000053
     8  C    0.001909  -0.000704   0.000504  -0.002264   0.000087  -0.000297
     9  H    0.000000   0.000000   0.000013  -0.000151   0.000000   0.000000
    10  H    0.000044   0.000009  -0.001231  -0.000663   0.000000  -0.000001
    11  H   -0.000008   0.000000   0.000028   0.000142   0.000000   0.000000
    12  O    0.193558   0.171691   0.081568   0.000660  -0.000038   0.000003
    13  H    0.237003  -0.018129  -0.008237  -0.000004   0.000000   0.000000
    14  H   -0.018129   0.242613  -0.004006  -0.000140   0.000001   0.000000
    15  H   -0.008237  -0.004006   0.209939   0.000290   0.000007   0.000001
    16  C   -0.000004  -0.000140   0.000290   5.149227   0.392503   0.396478
    17  H    0.000000   0.000001   0.000007   0.392503   0.465811  -0.021156
    18  H    0.000000   0.000000   0.000001   0.396478  -0.021156   0.474167
    19  H    0.000000   0.000000  -0.000002   0.396156  -0.027813  -0.029120
    20  O    0.000052   0.000036   0.002878   0.047310  -0.044822  -0.046406
    21  H    0.000003   0.000000  -0.000031  -0.020628   0.004595  -0.005036
    22  O    0.004364   0.003961   0.094483  -0.001406   0.000468  -0.000919
    23  H   -0.000026  -0.000237  -0.002871  -0.009501  -0.002018   0.001020
    24  H    0.000002  -0.000100  -0.004657  -0.000241   0.000009   0.000008
             19         20         21         22         23         24
     1  C   -0.000793  -0.048333  -0.001710   0.020829  -0.005847  -0.000774
     2  H    0.000001   0.004772  -0.000815  -0.000417   0.000110  -0.000002
     3  H    0.000000  -0.000156   0.000020   0.000138  -0.000003   0.000000
     4  H    0.000000  -0.000656   0.000045   0.000099  -0.000001   0.000000
     5  C   -0.000050   0.094583   0.004623  -0.032799   0.011367  -0.000749
     6  O    0.000022  -0.005865  -0.001377  -0.030398   0.000503   0.003043
     7  O    0.000097   0.019197   0.013141   0.006877  -0.000729   0.000551
     8  C    0.000005  -0.012885   0.000162  -0.001706  -0.000955   0.001062
     9  H    0.000002   0.000225  -0.000175   0.000066  -0.000024  -0.000007
    10  H    0.000002  -0.001751  -0.000095  -0.002632  -0.000402   0.000591
    11  H    0.000000   0.000144   0.000057  -0.000098   0.000012  -0.000006
    12  O    0.000014   0.001129  -0.000155  -0.085272   0.003221   0.002551
    13  H    0.000000   0.000052   0.000003   0.004364  -0.000026   0.000002
    14  H    0.000000   0.000036   0.000000   0.003961  -0.000237  -0.000100
    15  H   -0.000002   0.002878  -0.000031   0.094483  -0.002871  -0.004657
    16  C    0.396156   0.047310  -0.020628  -0.001406  -0.009501  -0.000241
    17  H   -0.027813  -0.044822   0.004595   0.000468  -0.002018   0.000009
    18  H   -0.029120  -0.046406  -0.005036  -0.000919   0.001020   0.000008
    19  H    0.503375  -0.061605  -0.003132   0.001458  -0.000475  -0.000047
    20  O   -0.061605   8.666122   0.181108  -0.089676   0.087982   0.003353
    21  H   -0.003132   0.181108   0.283797   0.009837  -0.008456  -0.000149
    22  O    0.001458  -0.089676   0.009837   8.889983   0.103797   0.175844
    23  H   -0.000475   0.087982  -0.008456   0.103797   0.229242  -0.002399
    24  H   -0.000047   0.003353  -0.000149   0.175844  -0.002399   0.258820
 Mulliken atomic charges:
              1
     1  C   -0.828703
     2  H    0.275492
     3  H    0.255548
     4  H    0.269070
     5  C    0.692353
     6  O   -0.657564
     7  O   -0.353876
     8  C   -0.396030
     9  H    0.233506
    10  H    0.250186
    11  H    0.240935
    12  O   -0.958605
    13  H    0.583282
    14  H    0.576886
    15  H    0.633865
    16  C   -0.342427
    17  H    0.232055
    18  H    0.231381
    19  H    0.221905
    20  O   -0.796736
    21  H    0.544369
    22  O   -1.066880
    23  H    0.596692
    24  H    0.563297
 Sum of Mulliken atomic charges =   1.00000
 Mulliken charges with hydrogens summed into heavy atoms:
              1
     1  C   -0.028593
     5  C    0.692353
     6  O   -0.657564
     7  O   -0.353876
     8  C    0.328596
    12  O    0.835429
    16  C    0.342915
    20  O   -0.252368
    22  O    0.093108
 Sum of Mulliken charges with hydrogens summed into heavy atoms =   1.00000
 APT atomic charges:
              1
     1  C   -0.127723
     2  H    0.066906
     3  H    0.039179
     4  H    0.060237
     5  C    1.205156
     6  O   -0.842200
     7  O   -0.854358
     8  C    0.417870
     9  H    0.029625
    10  H    0.026061
    11  H    0.007710
    12  O   -0.730615
    13  H    0.378554
    14  H    0.421892
    15  H    0.803193
    16  C    0.486923
    17  H    0.022372
    18  H    0.005394
    19  H   -0.012915
    20  O   -0.770868
    21  H    0.305170
    22  O   -0.877314
    23  H    0.627388
    24  H    0.312361
 Sum of APT charges=   1.00000
 APT Atomic charges with hydrogens summed into heavy atoms:
              1
     1  C    0.038599
     2  H    0.000000
     3  H    0.000000
     4  H    0.000000
     5  C    1.205156
     6  O   -0.842200
     7  O   -0.854358
     8  C    0.481266
     9  H    0.000000
    10  H    0.000000
    11  H    0.000000
    12  O    0.873023
    13  H    0.000000
    14  H    0.000000
    15  H    0.000000
    16  C    0.501775
    17  H    0.000000
    18  H    0.000000
    19  H    0.000000
    20  O   -0.465698
    21  H    0.000000
    22  O    0.062436
    23  H    0.000000
    24  H    0.000000
 Sum of APT charges=   1.00000
 Electronic spatial extent (au):  <R**2>=           1718.3300
 Charge=              1.0000 electrons
 Dipole moment (field-independent basis, Debye):
    X=              1.6640    Y=              2.4902    Z=              0.2047  Tot=              3.0020
 Quadrupole moment (field-independent basis, Debye-Ang):
   XX=            -32.5102   YY=            -39.9600   ZZ=            -45.6839
   XY=              0.0738   XZ=              0.9818   YZ=              2.2810
 Traceless Quadrupole moment (field-independent basis, Debye-Ang):
   XX=              6.8745   YY=             -0.5753   ZZ=             -6.2992
   XY=              0.0738   XZ=              0.9818   YZ=              2.2810
 Octapole moment (field-independent basis, Debye-Ang**2):
  XXX=             29.3585  YYY=             29.7802  ZZZ=              1.7161  XYY=              1.5418
  XXY=             16.3259  XXZ=             -0.0665  XZZ=             -9.9697  YZZ=             -1.4034
  YYZ=              1.1300  XYZ=              1.3456
 Hexadecapole moment (field-independent basis, Debye-Ang**3):
 XXXX=           -745.8504 YYYY=           -639.5730 ZZZZ=           -389.4022 XXXY=            -42.4659
 XXXZ=             -8.5430 YYYX=             24.4623 YYYZ=             51.5175 ZZZX=             10.3975
 ZZZY=            -22.9508 XXYY=           -236.7163 XXZZ=           -209.0027 YYZZ=           -169.2390
 XXYZ=             -5.5050 YYXZ=              7.3523 ZZXY=              0.6799
 N-N= 5.455891684389D+02 E-N=-2.337343890714D+03  KE= 5.321765733561D+02
  Exact polarizability:  77.826  -5.402  77.739   1.207   0.692  77.752
 Approx polarizability:  96.209 -10.383 103.391   2.834  -2.928  99.684
 Calling FoFJK, ICntrl=    100127 FMM=F ISym2X=0 I1Cent= 0 IOpClX= 0 NMat=1 NMatS=1 NMatT=0.
 Full mass-weighted force constant matrix:
 Low frequencies --- -924.5050  -81.9902  -50.0765   -0.0012   -0.0009   -0.0006
 Low frequencies ---   33.8790   61.8145   72.6500
 ******    2 imaginary frequencies (negative Signs) ****** 
 Diagonal vibrational polarizability:
      308.0367445      51.3813335     113.4489739
 Harmonic frequencies (cm**-1), IR intensities (KM/Mole), Raman scattering
 activities (A**4/AMU), depolarization ratios for plane and unpolarized
 incident light, reduced masses (AMU), force constants (mDyne/A),
 and normal coordinates:
                     1                      2                      3
                     A                      A                      A
 Frequencies --  -924.4287               -32.5999                65.0338
 Red. masses --     1.0821                 5.7166                 3.8904
 Frc consts  --     0.5449                 0.0036                 0.0097
 IR Inten    --  3128.1245                 6.0015                 8.0420
  Atom  AN      X      Y      Z        X      Y      Z        X      Y      Z
     1   6     0.00   0.00   0.00     0.08  -0.18   0.04    -0.09   0.06  -0.07
     2   1     0.00  -0.01  -0.01     0.08  -0.22   0.01    -0.10   0.02  -0.13
     3   1     0.00   0.00   0.00     0.08  -0.24   0.03    -0.14   0.12  -0.03
     4   1     0.00   0.00   0.00     0.06  -0.15   0.14    -0.12   0.05  -0.10
     5   6    -0.01   0.00  -0.01     0.13  -0.04  -0.06     0.03   0.03  -0.01
     6   8     0.01  -0.01   0.01     0.30   0.04  -0.18     0.06   0.04   0.08
     7   8     0.01   0.00   0.01    -0.04  -0.01   0.01     0.13  -0.03  -0.06
     8   6     0.00   0.00   0.00    -0.04   0.10  -0.06     0.25  -0.05   0.00
     9   1     0.00   0.00   0.01    -0.07   0.14   0.00     0.31  -0.08  -0.07
    10   1    -0.02   0.00   0.01     0.00   0.09  -0.13     0.25  -0.05   0.00
    11   1     0.00   0.00   0.00    -0.05   0.15  -0.06     0.26  -0.04   0.09
    12   8    -0.02   0.03  -0.01    -0.18   0.08   0.20    -0.10   0.02  -0.08
    13   1    -0.01   0.02  -0.05    -0.15   0.06   0.22    -0.09   0.02  -0.06
    14   1     0.02   0.07   0.01    -0.17   0.08   0.20    -0.10   0.02  -0.07
    15   1     0.72  -0.27   0.57    -0.10   0.08   0.12    -0.08   0.05  -0.09
    16   6     0.01   0.00   0.00    -0.08  -0.15  -0.09    -0.08  -0.13   0.21
    17   1     0.00   0.00   0.00    -0.10  -0.20  -0.13     0.06  -0.14   0.23
    18   1    -0.03  -0.01   0.00    -0.19  -0.19  -0.10    -0.12  -0.16   0.25
    19   1     0.00  -0.01   0.00     0.05  -0.15  -0.14    -0.16  -0.16   0.25
    20   8    -0.01   0.02   0.01    -0.09  -0.01   0.06    -0.09  -0.04   0.04
    21   1    -0.03  -0.01  -0.02    -0.07   0.02   0.09    -0.19  -0.03   0.01
    22   8    -0.02  -0.02  -0.03    -0.02   0.11   0.02    -0.06   0.09  -0.09
    23   1     0.07  -0.21  -0.05    -0.05   0.10   0.02    -0.07   0.06  -0.05
    24   1    -0.06   0.01  -0.10    -0.01   0.12  -0.03    -0.04   0.10  -0.15
                     4                      5                      6
                     A                      A                      A
 Frequencies --    87.9313                94.6516               121.8050
 Red. masses --     3.3352                 5.7006                 5.5855
 Frc consts  --     0.0152                 0.0301                 0.0488
 IR Inten    --     1.5253                 1.2746                 4.2091
  Atom  AN      X      Y      Z        X      Y      Z        X      Y      Z
     1   6     0.20   0.15   0.00     0.17   0.08   0.00    -0.08  -0.16   0.00
     2   1     0.21   0.22   0.07     0.18   0.12   0.09    -0.08  -0.26  -0.03
     3   1     0.24   0.17  -0.03     0.22   0.04  -0.04    -0.09  -0.20   0.00
     4   1     0.23   0.13  -0.08     0.19   0.08   0.01    -0.15  -0.13   0.10
     5   6     0.07   0.05   0.04     0.02   0.07  -0.04     0.00  -0.04  -0.07
     6   8    -0.03   0.00   0.07    -0.23  -0.07  -0.07    -0.10  -0.09  -0.11
     7   8     0.06   0.02   0.03     0.16   0.23  -0.02     0.18   0.12  -0.06
     8   6    -0.05  -0.06   0.04    -0.02   0.17  -0.04     0.11   0.10  -0.06
     9   1    -0.08  -0.08   0.05    -0.06   0.19   0.01     0.13   0.13  -0.05
    10   1    -0.08  -0.05   0.11    -0.07   0.18   0.01     0.05   0.11  -0.05
    11   1    -0.05  -0.11  -0.04    -0.02   0.09  -0.15     0.12   0.03  -0.08
    12   8     0.02  -0.02  -0.11    -0.14  -0.04   0.18     0.22  -0.06  -0.01
    13   1     0.00  -0.01  -0.13    -0.10  -0.06   0.23     0.16  -0.03  -0.06
    14   1     0.05  -0.03  -0.10    -0.21  -0.01   0.16     0.26  -0.08   0.00
    15   1     0.00   0.00  -0.02    -0.08  -0.07   0.03     0.15   0.00   0.15
    16   6    -0.08  -0.17  -0.18     0.03  -0.14   0.11    -0.19   0.02  -0.01
    17   1    -0.15  -0.22  -0.24     0.15  -0.13   0.15    -0.16   0.03   0.01
    18   1    -0.24  -0.23  -0.23     0.04  -0.14   0.16    -0.24   0.00  -0.04
    19   1     0.14  -0.19  -0.26    -0.08  -0.15   0.17    -0.15  -0.03   0.00
    20   8    -0.09   0.01   0.08     0.03  -0.12  -0.08    -0.19   0.09   0.01
    21   1    -0.06   0.03   0.11    -0.07  -0.11  -0.11    -0.23   0.05  -0.04
    22   8    -0.07   0.02   0.05     0.02  -0.12  -0.08     0.02   0.02   0.24
    23   1    -0.04   0.05   0.09     0.00  -0.14  -0.11     0.03   0.00   0.20
    24   1    -0.10   0.03   0.07     0.05  -0.13  -0.09     0.01   0.02   0.24
                     7                      8                      9
                     A                      A                      A
 Frequencies --   138.5515               166.3597               190.5939
 Red. masses --     4.4384                 4.0516                 3.7877
 Frc consts  --     0.0502                 0.0661                 0.0811
 IR Inten    --     3.1460                 1.1927                24.8873
  Atom  AN      X      Y      Z        X      Y      Z        X      Y      Z
     1   6     0.12   0.04   0.05    -0.08   0.00   0.00    -0.10  -0.06   0.05
     2   1     0.11   0.08   0.04    -0.08  -0.07  -0.04    -0.11  -0.16  -0.04
     3   1     0.12   0.02   0.05    -0.10   0.01   0.01    -0.14  -0.06   0.08
     4   1     0.15   0.03   0.05    -0.13   0.02   0.03    -0.17  -0.03   0.12
     5   6     0.09   0.03   0.04     0.03   0.06  -0.02     0.05   0.04   0.02
     6   8     0.14   0.06   0.03     0.06   0.08  -0.04     0.09   0.06   0.00
     7   8     0.00  -0.01   0.06     0.06   0.08  -0.02     0.10   0.08   0.02
     8   6    -0.06  -0.03   0.06     0.09   0.07   0.00    -0.08  -0.05   0.04
     9   1    -0.09  -0.04   0.08     0.14   0.08  -0.03    -0.12  -0.07   0.06
    10   1    -0.07  -0.03   0.09     0.05   0.08   0.00    -0.15  -0.03   0.16
    11   1    -0.06  -0.05   0.01     0.11   0.03   0.04    -0.08  -0.16  -0.09
    12   8     0.06   0.05  -0.02    -0.03   0.05  -0.06    -0.04   0.04  -0.07
    13   1     0.04   0.07  -0.04    -0.07   0.08  -0.08    -0.08   0.05  -0.11
    14   1     0.07   0.06  -0.03    -0.05   0.08  -0.08    -0.02   0.05  -0.09
    15   1     0.00   0.00  -0.02    -0.12  -0.07  -0.05    -0.13  -0.02  -0.02
    16   6    -0.18   0.13   0.07     0.00   0.11  -0.09     0.12  -0.12   0.02
    17   1    -0.13   0.22   0.15    -0.30   0.14  -0.15     0.35  -0.11   0.09
    18   1     0.05   0.23   0.12     0.18   0.20  -0.15    -0.06  -0.20   0.02
    19   1    -0.47   0.16   0.17     0.10   0.23  -0.18     0.08  -0.26   0.09
    20   8    -0.17  -0.15  -0.26     0.04  -0.20   0.18     0.09   0.15  -0.16
    21   1    -0.18  -0.17  -0.28     0.24  -0.22   0.24    -0.06   0.12  -0.24
    22   8     0.01  -0.10   0.00    -0.15  -0.21   0.04    -0.16  -0.12   0.09
    23   1    -0.08  -0.14  -0.09    -0.14  -0.24   0.10    -0.07   0.06   0.02
    24   1     0.10  -0.13   0.02    -0.07  -0.24   0.12    -0.23  -0.12   0.31
                    10                     11                     12
                     A                      A                      A
 Frequencies --   221.7931               270.1624               278.9562
 Red. masses --     2.9195                 1.2801                 1.2308
 Frc consts  --     0.0846                 0.0550                 0.0564
 IR Inten    --    12.9898                 2.0860                 1.4437
  Atom  AN      X      Y      Z        X      Y      Z        X      Y      Z
     1   6    -0.12  -0.03  -0.01     0.03  -0.03   0.04     0.00   0.02  -0.02
     2   1    -0.10  -0.22  -0.05     0.17  -0.41   0.41     0.09  -0.26   0.23
     3   1    -0.12   0.06   0.01     0.38   0.21  -0.14     0.24   0.29  -0.12
     4   1    -0.27  -0.01   0.00    -0.42   0.00  -0.05    -0.36   0.02  -0.17
     5   6     0.07   0.02   0.01    -0.02   0.02  -0.01     0.01  -0.02   0.01
     6   8     0.02   0.00   0.06    -0.03   0.01  -0.05     0.02  -0.01   0.05
     7   8     0.19   0.07  -0.01    -0.01   0.02  -0.01    -0.01  -0.03   0.01
     8   6    -0.19  -0.11  -0.03     0.03  -0.08   0.05     0.01   0.08  -0.05
     9   1    -0.44  -0.23   0.09     0.20   0.00  -0.03    -0.19  -0.04   0.03
    10   1    -0.16  -0.10   0.20    -0.16  -0.04   0.05     0.26   0.03  -0.04
    11   1    -0.25  -0.13  -0.40     0.08  -0.27   0.19    -0.05   0.34  -0.17
    12   8    -0.01  -0.02   0.02     0.00   0.05   0.01    -0.01  -0.04  -0.01
    13   1     0.02  -0.03   0.05     0.00   0.05   0.01    -0.01  -0.04  -0.01
    14   1    -0.03  -0.02   0.03    -0.01   0.06   0.00     0.00  -0.05   0.00
    15   1     0.02   0.04  -0.04    -0.01   0.03  -0.02     0.00  -0.03   0.01
    16   6    -0.02   0.05  -0.02     0.00   0.00   0.00     0.00   0.01   0.00
    17   1    -0.12   0.02  -0.06     0.00  -0.07  -0.06    -0.01   0.24   0.18
    18   1     0.06   0.08   0.02     0.01  -0.01   0.09    -0.02   0.06  -0.30
    19   1     0.00   0.14  -0.06    -0.01   0.09  -0.04     0.02  -0.27   0.11
    20   8     0.00  -0.06   0.06     0.00   0.00   0.00     0.00   0.01  -0.01
    21   1     0.04  -0.03   0.11     0.00   0.02   0.01     0.00  -0.02  -0.03
    22   8     0.08   0.09  -0.07     0.00   0.01  -0.02    -0.01  -0.01   0.01
    23   1     0.03   0.02  -0.03     0.00   0.02  -0.02     0.00  -0.01   0.01
    24   1     0.11   0.09  -0.17     0.01   0.01  -0.01    -0.02  -0.01   0.01
                    13                     14                     15
                     A                      A                      A
 Frequencies --   281.3741               307.3366               361.8405
 Red. masses --     1.1324                 1.3635                 4.6128
 Frc consts  --     0.0528                 0.0759                 0.3558
 IR Inten    --     0.3134                 1.9691                34.7753
  Atom  AN      X      Y      Z        X      Y      Z        X      Y      Z
     1   6    -0.01   0.02  -0.03     0.04  -0.05   0.05     0.03  -0.04   0.02
     2   1     0.02  -0.06   0.05     0.03   0.02   0.04     0.04  -0.02   0.06
     3   1     0.06   0.13  -0.05     0.03  -0.17   0.03     0.07  -0.09  -0.02
     4   1    -0.12   0.02  -0.09     0.12  -0.03   0.14     0.05  -0.04   0.04
     5   6     0.01  -0.01   0.00    -0.03   0.02  -0.01    -0.03  -0.04   0.00
     6   8     0.02   0.00   0.03    -0.05   0.00  -0.05    -0.07  -0.05   0.06
     7   8     0.00  -0.02   0.00    -0.01   0.02  -0.02     0.03  -0.04  -0.01
     8   6     0.01   0.05  -0.03     0.06  -0.07   0.05     0.00   0.03  -0.08
     9   1    -0.12  -0.03   0.01    -0.29  -0.49   0.05     0.00   0.11  -0.03
    10   1     0.16   0.01  -0.03     0.53  -0.15   0.30    -0.05   0.03  -0.14
    11   1    -0.03   0.21  -0.11    -0.05   0.37  -0.17     0.00   0.02  -0.08
    12   8     0.00  -0.02   0.01     0.01   0.06   0.00    -0.04   0.10  -0.07
    13   1    -0.01  -0.02   0.00     0.00   0.07  -0.01    -0.13   0.13  -0.16
    14   1     0.01  -0.03   0.01    -0.01   0.08  -0.02     0.06   0.07  -0.05
    15   1     0.00  -0.03   0.02    -0.02   0.03  -0.02     0.12   0.02   0.29
    16   6     0.00   0.00   0.00     0.00   0.01   0.00     0.10  -0.02  -0.02
    17   1     0.04  -0.42  -0.32     0.00   0.01   0.00     0.05  -0.01  -0.03
    18   1     0.01  -0.10   0.53     0.00   0.01   0.00     0.29   0.05   0.06
    19   1    -0.06   0.48  -0.18     0.00   0.01   0.00    -0.04   0.09  -0.01
    20   8     0.00   0.02  -0.02     0.00   0.00   0.00     0.09  -0.24  -0.12
    21   1    -0.01   0.06   0.01     0.01   0.00   0.00     0.17  -0.34  -0.19
    22   8    -0.01  -0.03   0.02    -0.02   0.01  -0.01    -0.10   0.24   0.20
    23   1     0.00   0.00  -0.01    -0.02   0.01  -0.01    -0.14   0.23   0.24
    24   1    -0.03  -0.03   0.05    -0.01   0.00   0.00    -0.14   0.29   0.00
                    16                     17                     18
                     A                      A                      A
 Frequencies --   392.7568               463.9768               501.3013
 Red. masses --     4.0588                 3.9930                 4.2121
 Frc consts  --     0.3689                 0.5065                 0.6237
 IR Inten    --    63.7242                35.3170                 0.7836
  Atom  AN      X      Y      Z        X      Y      Z        X      Y      Z
     1   6     0.06  -0.10   0.06     0.05  -0.06   0.17     0.01   0.00   0.06
     2   1     0.07  -0.06   0.09     0.08  -0.10   0.25     0.01  -0.04   0.08
     3   1     0.09  -0.23   0.01     0.15  -0.41   0.03     0.03  -0.12   0.02
     4   1     0.12  -0.08   0.16     0.08   0.02   0.52     0.00   0.03   0.20
     5   6    -0.01  -0.06   0.02    -0.04   0.14  -0.05     0.00   0.07  -0.02
     6   8    -0.07  -0.06   0.17     0.00   0.18   0.14     0.03   0.08   0.05
     7   8     0.07  -0.12  -0.03    -0.05   0.02  -0.15    -0.03   0.03  -0.06
     8   6    -0.02   0.03  -0.18     0.02  -0.05  -0.17     0.01  -0.01  -0.06
     9   1    -0.02   0.23  -0.05     0.06  -0.04  -0.19     0.03  -0.02  -0.08
    10   1    -0.12   0.04  -0.36    -0.01  -0.04  -0.15    -0.01  -0.01  -0.03
    11   1    -0.02  -0.03  -0.21     0.03  -0.06  -0.12     0.01  -0.03  -0.02
    12   8     0.07   0.26   0.03    -0.11  -0.12  -0.06     0.23  -0.15   0.17
    13   1     0.07   0.34   0.08    -0.10  -0.12  -0.05     0.22  -0.14   0.16
    14   1    -0.06   0.30   0.00    -0.05  -0.21   0.01     0.13  -0.05   0.10
    15   1    -0.15   0.18  -0.22     0.05  -0.03   0.08     0.03  -0.25   0.01
    16   6    -0.02   0.00   0.01    -0.01   0.00   0.00     0.02  -0.01   0.00
    17   1    -0.01   0.00   0.01    -0.01   0.00   0.00     0.02   0.00   0.00
    18   1    -0.08  -0.02  -0.02    -0.02   0.00   0.01     0.04   0.00   0.00
    19   1     0.02  -0.03   0.00    -0.01   0.00   0.00     0.00   0.00   0.00
    20   8    -0.02   0.07   0.04    -0.01   0.01   0.01     0.01  -0.03  -0.02
    21   1    -0.04   0.11   0.07    -0.01   0.01   0.00     0.04  -0.05  -0.03
    22   8    -0.06  -0.08  -0.12     0.12  -0.04   0.07    -0.26   0.06  -0.12
    23   1    -0.04  -0.04  -0.11     0.10  -0.07   0.02    -0.16   0.14   0.01
    24   1     0.02  -0.15   0.15     0.15  -0.05   0.07    -0.49   0.18  -0.44
                    19                     20                     21
                     A                      A                      A
 Frequencies --   593.6847               633.0625               650.9440
 Red. masses --     1.0825                 1.1652                 2.5955
 Frc consts  --     0.2248                 0.2751                 0.6480
 IR Inten    --    32.1478               357.0095                49.7047
  Atom  AN      X      Y      Z        X      Y      Z        X      Y      Z
     1   6     0.01  -0.02  -0.03     0.01  -0.02  -0.03     0.06  -0.10  -0.13
     2   1     0.01  -0.03  -0.04     0.00  -0.09  -0.09     0.01  -0.48  -0.46
     3   1     0.01  -0.02  -0.03    -0.03  -0.04  -0.01    -0.14  -0.18  -0.02
     4   1     0.00  -0.01  -0.02    -0.03  -0.01   0.01    -0.17  -0.01   0.13
     5   6     0.01   0.00  -0.02     0.04   0.02  -0.03     0.21   0.10  -0.08
     6   8     0.00   0.00   0.02    -0.01   0.00   0.02    -0.07  -0.03   0.11
     7   8    -0.01   0.01  -0.01    -0.03   0.02   0.00    -0.10   0.02   0.00
     8   6     0.00   0.00   0.02     0.00   0.01   0.02    -0.02   0.03   0.09
     9   1     0.01  -0.03  -0.01     0.02  -0.02  -0.01     0.06  -0.03  -0.01
    10   1     0.00   0.00   0.04     0.01   0.00   0.04     0.01   0.03   0.11
    11   1     0.00  -0.01   0.03     0.00   0.02   0.05     0.00   0.05   0.19
    12   8     0.02   0.00  -0.03     0.00  -0.02  -0.01    -0.01   0.02   0.01
    13   1    -0.07   0.64   0.19     0.07   0.13   0.14    -0.01  -0.23  -0.12
    14   1    -0.22  -0.45   0.36    -0.03  -0.28   0.21     0.09   0.25  -0.19
    15   1    -0.08  -0.04   0.04     0.20   0.15   0.06    -0.07  -0.05  -0.04
    16   6     0.01   0.00   0.00    -0.01   0.00   0.00     0.00   0.00   0.00
    17   1     0.02   0.00   0.00    -0.03   0.02   0.01     0.01  -0.01  -0.01
    18   1    -0.02  -0.01   0.00     0.04   0.02  -0.01    -0.02  -0.01   0.01
    19   1     0.01   0.00   0.00    -0.02   0.01   0.00     0.00   0.00   0.00
    20   8     0.00   0.02   0.00     0.00  -0.03   0.00     0.00   0.01   0.00
    21   1     0.00  -0.02  -0.03     0.00   0.06   0.08     0.01  -0.03  -0.04
    22   8    -0.01  -0.01   0.03    -0.01   0.02  -0.06     0.01  -0.01   0.02
    23   1    -0.07  -0.13   0.02     0.10   0.25  -0.10    -0.03  -0.09   0.04
    24   1     0.10   0.00  -0.33    -0.16  -0.03   0.78     0.06   0.01  -0.27
                    22                     23                     24
                     A                      A                      A
 Frequencies --   659.3532               714.8286               788.7379
 Red. masses --     3.6653                 1.1218                 1.0372
 Frc consts  --     0.9388                 0.3377                 0.3802
 IR Inten    --    25.1178               362.8075                 9.1059
  Atom  AN      X      Y      Z        X      Y      Z        X      Y      Z
     1   6    -0.05   0.15   0.17     0.00   0.01   0.01     0.00   0.01   0.00
     2   1    -0.11  -0.20  -0.19     0.00  -0.01  -0.01     0.00   0.01   0.01
     3   1    -0.30   0.21   0.36     0.00   0.00   0.01    -0.01   0.01   0.01
     4   1    -0.27   0.22   0.34    -0.01   0.01   0.02     0.00   0.00   0.00
     5   6     0.23   0.15   0.07     0.00   0.01   0.00     0.01  -0.01   0.00
     6   8    -0.10  -0.04  -0.16     0.00   0.00  -0.01     0.00  -0.01   0.00
     7   8    -0.01  -0.16   0.04     0.00  -0.01   0.00     0.00   0.01  -0.01
     8   6     0.02  -0.05  -0.11     0.00   0.00   0.00     0.00   0.00  -0.01
     9   1    -0.02   0.11   0.02    -0.01   0.00   0.01     0.01  -0.01  -0.02
    10   1     0.05  -0.07  -0.29     0.00   0.00  -0.01     0.00   0.00   0.01
    11   1     0.01   0.04  -0.11     0.00   0.00  -0.01     0.01   0.00   0.00
    12   8     0.00  -0.01  -0.01     0.00  -0.01   0.00     0.01   0.00   0.03
    13   1    -0.03   0.19   0.05     0.13  -0.20   0.06    -0.38   0.09  -0.40
    14   1    -0.07  -0.13   0.10     0.15  -0.13   0.08     0.49  -0.13   0.07
    15   1     0.03  -0.03   0.05     0.10   0.40   0.02    -0.23   0.10   0.33
    16   6     0.00   0.00   0.00     0.03   0.00   0.00     0.01   0.00   0.00
    17   1     0.01   0.00   0.01     0.03  -0.03  -0.02     0.02   0.02   0.02
    18   1    -0.01   0.00   0.01    -0.03  -0.02   0.01     0.00   0.00  -0.02
    19   1    -0.01   0.00   0.01     0.03   0.00  -0.01    -0.01  -0.02   0.01
    20   8    -0.01   0.00  -0.01     0.00   0.02   0.01     0.00  -0.01  -0.01
    21   1     0.03  -0.01   0.00    -0.01  -0.23  -0.23     0.03   0.29   0.28
    22   8     0.00   0.00   0.01    -0.07   0.04  -0.02    -0.01   0.00  -0.01
    23   1     0.02   0.02   0.00    -0.22  -0.38   0.05    -0.13   0.00  -0.24
    24   1    -0.05   0.02   0.00     0.59  -0.20   0.13     0.13  -0.05  -0.02
                    25                     26                     27
                     A                      A                      A
 Frequencies --   855.8773               866.1371              1001.1100
 Red. masses --     1.3482                 2.5322                 3.5119
 Frc consts  --     0.5819                 1.1192                 2.0738
 IR Inten    --   208.6801                27.1491                65.3617
  Atom  AN      X      Y      Z        X      Y      Z        X      Y      Z
     1   6     0.00   0.01   0.03     0.01   0.02   0.09     0.03  -0.05  -0.03
     2   1    -0.02   0.03  -0.01    -0.05   0.05  -0.09     0.00  -0.03  -0.12
     3   1    -0.06   0.11   0.09    -0.13   0.32   0.24    -0.01   0.05   0.01
     4   1    -0.01  -0.01  -0.06    -0.05  -0.04  -0.17     0.00  -0.09  -0.18
     5   6     0.03  -0.03   0.02     0.06  -0.08   0.08    -0.02   0.03   0.03
     6   8     0.02  -0.05   0.01     0.05  -0.12   0.04    -0.01   0.04   0.00
     7   8    -0.05   0.07  -0.02    -0.12   0.18  -0.05    -0.01   0.04   0.10
     8   6     0.01  -0.02  -0.06     0.02  -0.05  -0.12     0.03  -0.06  -0.08
     9   1     0.04  -0.09  -0.11     0.11  -0.20  -0.28    -0.02   0.02   0.01
    10   1     0.00  -0.01   0.04     0.02  -0.03   0.09     0.01  -0.05  -0.09
    11   1     0.02  -0.02   0.01     0.05  -0.09   0.01     0.02  -0.01  -0.05
    12   8    -0.01   0.02  -0.02     0.00   0.02   0.01     0.03  -0.06   0.02
    13   1     0.32  -0.19   0.26    -0.15   0.08  -0.14    -0.27   0.36  -0.13
    14   1    -0.19   0.01   0.01     0.12   0.01   0.00    -0.28   0.33  -0.25
    15   1     0.18   0.08  -0.11    -0.09  -0.05   0.04    -0.10  -0.13  -0.03
    16   6     0.03   0.00   0.00    -0.03   0.00   0.00     0.31   0.03  -0.01
    17   1     0.07   0.03   0.04    -0.04  -0.03  -0.03     0.13   0.04  -0.04
    18   1     0.01  -0.01   0.00    -0.03   0.00   0.01     0.17  -0.02  -0.01
    19   1    -0.04  -0.03   0.04     0.02   0.02  -0.02     0.20   0.03   0.02
    20   8    -0.03  -0.03  -0.04     0.02   0.03   0.03    -0.26  -0.02   0.01
    21   1     0.08   0.52   0.52    -0.02  -0.45  -0.44    -0.20  -0.07   0.00
    22   8    -0.03   0.00   0.04     0.02  -0.01  -0.03     0.01   0.03  -0.02
    23   1    -0.08  -0.08  -0.07     0.06   0.05   0.08     0.02  -0.13   0.09
    24   1     0.17  -0.04  -0.13    -0.11   0.02   0.08     0.08  -0.04   0.25
                    28                     29                     30
                     A                      A                      A
 Frequencies --  1007.3902              1027.1865              1076.5466
 Red. masses --     4.1131                 1.3714                 1.9520
 Frc consts  --     2.4593                 0.8526                 1.3329
 IR Inten    --    36.2955               184.9064                70.2641
  Atom  AN      X      Y      Z        X      Y      Z        X      Y      Z
     1   6     0.08  -0.13  -0.09     0.02  -0.05  -0.02    -0.05   0.13  -0.10
     2   1     0.02  -0.14  -0.37     0.00  -0.02  -0.10     0.07  -0.20   0.20
     3   1    -0.05   0.10   0.02    -0.01   0.06   0.02     0.08  -0.51  -0.30
     4   1    -0.01  -0.21  -0.42     0.01  -0.09  -0.17    -0.03   0.30   0.60
     5   6    -0.06   0.07   0.09    -0.01   0.01   0.04    -0.02  -0.03  -0.04
     6   8    -0.05   0.13  -0.03    -0.02   0.05  -0.01     0.04  -0.07   0.00
     7   8    -0.02   0.06   0.23     0.00   0.00   0.04    -0.02   0.06   0.14
     8   6     0.07  -0.13  -0.18     0.01  -0.03  -0.03     0.03  -0.06  -0.09
     9   1    -0.06   0.10   0.08    -0.02   0.04   0.04     0.00   0.00  -0.03
    10   1     0.02  -0.12  -0.24     0.01  -0.03  -0.08     0.02  -0.05  -0.01
    11   1     0.05   0.00  -0.16     0.01  -0.01  -0.07     0.03   0.00   0.02
    12   8     0.01  -0.05   0.01    -0.03   0.07  -0.02    -0.01   0.02   0.00
    13   1    -0.07   0.14   0.00     0.23  -0.38   0.09     0.03  -0.05   0.02
    14   1    -0.18   0.15  -0.12     0.41  -0.44   0.32     0.08  -0.06   0.05
    15   1     0.05  -0.02   0.06    -0.01   0.13  -0.04    -0.03   0.04  -0.02
    16   6    -0.19  -0.02   0.01     0.06   0.00   0.00     0.01   0.00   0.00
    17   1    -0.04  -0.02   0.03     0.00   0.01  -0.01    -0.03   0.00   0.00
    18   1    -0.13   0.00   0.02     0.06   0.00  -0.01     0.02   0.01  -0.01
    19   1    -0.13  -0.03   0.00     0.05   0.02   0.00     0.02   0.01  -0.01
    20   8     0.16   0.01  -0.01    -0.06   0.00   0.01     0.00   0.00   0.00
    21   1     0.18   0.10   0.07    -0.06  -0.09  -0.08    -0.04  -0.03  -0.04
    22   8    -0.02   0.01   0.01     0.02  -0.04   0.01     0.00  -0.01   0.00
    23   1    -0.09  -0.03  -0.05     0.10   0.11   0.00     0.02   0.03   0.00
    24   1     0.21  -0.06   0.04    -0.32   0.11  -0.24    -0.05   0.02  -0.05
                    31                     32                     33
                     A                      A                      A
 Frequencies --  1097.9698              1142.7185              1197.6413
 Red. masses --     1.7170                 1.1207                 1.2360
 Frc consts  --     1.2196                 0.8622                 1.0445
 IR Inten    --    27.7255                64.0288                 4.3785
  Atom  AN      X      Y      Z        X      Y      Z        X      Y      Z
     1   6     0.14   0.07   0.01     0.01   0.01  -0.01     0.00   0.00  -0.01
     2   1     0.05  -0.50  -0.51     0.01  -0.06  -0.03     0.00  -0.01   0.01
     3   1    -0.32   0.00   0.30    -0.02  -0.04   0.00     0.01  -0.02  -0.02
     4   1    -0.36   0.17   0.22    -0.03   0.03   0.04     0.01   0.00   0.00
     5   6    -0.16  -0.08   0.03    -0.02  -0.01   0.02     0.00   0.00   0.01
     6   8     0.03   0.02  -0.01     0.00   0.00   0.00     0.00   0.00   0.00
     7   8     0.03  -0.01  -0.04     0.01   0.00  -0.01    -0.01  -0.01   0.00
     8   6    -0.01   0.02   0.02     0.00   0.00   0.01     0.02   0.01   0.00
     9   1    -0.01  -0.01   0.01    -0.01  -0.01   0.01    -0.04  -0.02   0.02
    10   1    -0.01   0.02   0.01    -0.01   0.01   0.01    -0.05   0.03   0.07
    11   1    -0.01  -0.01  -0.02     0.00  -0.01  -0.01     0.02  -0.08  -0.11
    12   8     0.00   0.00   0.00     0.00   0.01   0.00     0.00   0.00   0.00
    13   1     0.00   0.01   0.01    -0.04   0.01  -0.04     0.03  -0.01   0.02
    14   1    -0.02   0.01  -0.01     0.06  -0.03   0.03    -0.03   0.01  -0.01
    15   1    -0.01   0.00   0.00    -0.01  -0.04  -0.04    -0.01  -0.01   0.02
    16   6     0.01   0.00   0.01    -0.01   0.05  -0.06    -0.01   0.10   0.08
    17   1    -0.07   0.00   0.00     0.57  -0.01   0.04     0.01  -0.21  -0.16
    18   1     0.04   0.02  -0.03    -0.28  -0.12   0.21    -0.62  -0.13  -0.12
    19   1     0.05   0.03  -0.02    -0.27  -0.20   0.15     0.65  -0.11  -0.08
    20   8     0.00   0.00   0.00    -0.03  -0.01   0.01     0.00  -0.04  -0.03
    21   1    -0.09   0.05   0.02     0.51  -0.13   0.11     0.05  -0.04  -0.01
    22   8     0.00   0.00   0.00     0.01   0.00  -0.02     0.01   0.00   0.01
    23   1    -0.01   0.01  -0.05     0.07  -0.08   0.23    -0.06   0.04  -0.13
    24   1     0.00   0.00   0.00    -0.07   0.02   0.06    -0.04   0.01   0.01
                    34                     35                     36
                     A                      A                      A
 Frequencies --  1197.9516              1241.3959              1248.6472
 Red. masses --     1.2477                 1.3921                 1.1067
 Frc consts  --     1.0549                 1.2640                 1.0166
 IR Inten    --     6.0630                 9.2286                42.5792
  Atom  AN      X      Y      Z        X      Y      Z        X      Y      Z
     1   6     0.00   0.00   0.01     0.00   0.01   0.01     0.00   0.00  -0.01
     2   1    -0.01   0.02  -0.01     0.00   0.03   0.03     0.00  -0.01   0.01
     3   1    -0.01   0.04   0.03    -0.02   0.03   0.03     0.01  -0.02  -0.02
     4   1    -0.01   0.00  -0.01    -0.01   0.02   0.03     0.01   0.00   0.01
     5   6    -0.01   0.00  -0.02     0.00  -0.01  -0.03     0.01   0.00   0.02
     6   8     0.01   0.00   0.00     0.02  -0.03   0.02     0.00   0.00   0.00
     7   8     0.05   0.03  -0.01    -0.04   0.06  -0.05    -0.01   0.01  -0.02
     8   6    -0.10  -0.07   0.00     0.07  -0.09   0.09     0.01  -0.01   0.02
     9   1     0.22   0.11  -0.13    -0.16   0.36   0.54    -0.02   0.08   0.09
    10   1     0.32  -0.20  -0.42    -0.12  -0.10  -0.53     0.00  -0.02  -0.09
    11   1    -0.09   0.43   0.59    -0.05   0.17  -0.37    -0.01   0.01  -0.08
    12   8     0.00   0.00   0.00     0.00   0.00   0.00     0.01  -0.01  -0.02
    13   1     0.01  -0.01   0.01    -0.03   0.01  -0.03     0.13  -0.05   0.11
    14   1     0.00   0.00   0.00     0.03   0.00   0.01    -0.17   0.08  -0.06
    15   1    -0.01   0.01   0.01     0.01  -0.02  -0.04    -0.05   0.03   0.18
    16   6     0.00   0.02   0.01     0.00   0.00   0.01     0.01   0.01  -0.04
    17   1     0.03  -0.04  -0.03    -0.04   0.00   0.00     0.22   0.02   0.02
    18   1    -0.12  -0.03  -0.01    -0.01   0.00  -0.02     0.01  -0.01   0.08
    19   1     0.11  -0.03  -0.01     0.03   0.01  -0.01    -0.15  -0.06   0.05
    20   8     0.00  -0.01   0.00     0.00   0.00  -0.01    -0.01   0.00   0.05
    21   1     0.01  -0.01   0.00     0.00   0.05   0.03    -0.01  -0.18  -0.13
    22   8     0.00   0.00   0.00     0.00   0.00  -0.01     0.01  -0.01   0.04
    23   1    -0.01   0.00  -0.02     0.06  -0.06   0.16    -0.31   0.27  -0.75
    24   1    -0.01   0.01  -0.01     0.00   0.00   0.01     0.02   0.00  -0.05
                    37                     38                     39
                     A                      A                      A
 Frequencies --  1277.1067              1427.4617              1471.0674
 Red. masses --     3.4309                 1.2303                 1.2423
 Frc consts  --     3.2970                 1.4771                 1.5839
 IR Inten    --   361.1022                50.0751                35.7422
  Atom  AN      X      Y      Z        X      Y      Z        X      Y      Z
     1   6    -0.03   0.01  -0.13     0.01  -0.01   0.00     0.05  -0.07  -0.10
     2   1     0.07  -0.32   0.08     0.00   0.06   0.03     0.11   0.45   0.42
     3   1     0.15  -0.50  -0.35    -0.04   0.03   0.03    -0.38   0.14   0.23
     4   1     0.22  -0.01   0.00    -0.06   0.02   0.04    -0.38   0.10   0.34
     5   6     0.05   0.00   0.40     0.00  -0.01  -0.02     0.02  -0.01   0.03
     6   8    -0.02   0.02  -0.06     0.00   0.00   0.00    -0.01   0.02  -0.01
     7   8    -0.01   0.02  -0.14     0.01   0.00   0.00     0.00   0.00   0.01
     8   6    -0.03   0.01   0.05     0.00   0.00  -0.01    -0.01   0.01   0.02
     9   1     0.11  -0.08  -0.14    -0.03   0.06   0.06     0.08  -0.12  -0.13
    10   1     0.07  -0.05  -0.28     0.00   0.00   0.07     0.04  -0.02  -0.15
    11   1    -0.04   0.02  -0.09     0.00   0.02   0.05    -0.01  -0.07  -0.12
    12   8     0.00   0.00   0.00     0.00   0.00  -0.01     0.00   0.00   0.00
    13   1    -0.03   0.03  -0.02     0.03  -0.03   0.02     0.00  -0.01   0.00
    14   1    -0.04   0.01  -0.01    -0.04   0.00   0.00    -0.01  -0.01   0.01
    15   1     0.04  -0.10   0.02    -0.04  -0.06   0.07    -0.01  -0.04   0.01
    16   6     0.00  -0.03   0.02    -0.01  -0.07   0.07     0.01   0.01   0.00
    17   1    -0.18   0.00   0.01    -0.19  -0.02   0.07    -0.05   0.00  -0.02
    18   1     0.09   0.03  -0.06     0.19   0.07  -0.22    -0.05  -0.02   0.01
    19   1     0.03   0.07  -0.03     0.14   0.24  -0.12    -0.05  -0.02   0.03
    20   8    -0.01   0.01  -0.02    -0.06   0.05  -0.03     0.01   0.00   0.00
    21   1     0.10   0.03   0.03     0.81  -0.19   0.07    -0.05   0.01  -0.01
    22   8     0.00   0.01  -0.01     0.01   0.00   0.00     0.00   0.00   0.00
    23   1     0.01  -0.07   0.08    -0.11   0.07  -0.08     0.00  -0.01   0.01
    24   1     0.06  -0.02   0.06     0.03  -0.01   0.02     0.01   0.00   0.01
                    40                     41                     42
                     A                      A                      A
 Frequencies --  1493.2606              1495.4210              1503.1647
 Red. masses --     1.1187                 1.1371                 1.1022
 Frc consts  --     1.4698                 1.4982                 1.4673
 IR Inten    --    10.6417                23.3363                39.9514
  Atom  AN      X      Y      Z        X      Y      Z        X      Y      Z
     1   6     0.00   0.00  -0.01    -0.01   0.00   0.04    -0.02   0.03  -0.01
     2   1     0.02  -0.01   0.05    -0.12   0.12  -0.34     0.14  -0.48   0.36
     3   1    -0.04   0.03   0.03     0.32   0.05  -0.18    -0.33   0.11   0.23
     4   1     0.03   0.00   0.02    -0.09   0.03   0.09     0.50  -0.07  -0.13
     5   6     0.00   0.00   0.00    -0.01  -0.01  -0.03     0.00  -0.02  -0.05
     6   8     0.00   0.00   0.00     0.00   0.00   0.00    -0.01   0.02   0.01
     7   8     0.00   0.00   0.01     0.00   0.01   0.04     0.00   0.00   0.03
     8   6     0.00   0.00   0.01    -0.01   0.03   0.07    -0.01   0.01   0.03
     9   1     0.05  -0.06  -0.08     0.21  -0.34  -0.36     0.10  -0.16  -0.16
    10   1    -0.02   0.00  -0.06     0.08  -0.04  -0.44     0.04  -0.02  -0.21
    11   1    -0.02   0.02  -0.07    -0.05  -0.18  -0.37    -0.02  -0.08  -0.17
    12   8     0.00   0.00   0.00     0.00   0.00   0.00     0.00   0.00   0.00
    13   1    -0.02   0.02  -0.02     0.00  -0.01   0.00     0.00  -0.01   0.00
    14   1     0.02   0.00   0.00    -0.01   0.00   0.00    -0.01   0.00   0.00
    15   1     0.07   0.01  -0.03    -0.01   0.00   0.01    -0.01  -0.01   0.00
    16   6    -0.09   0.00   0.00     0.01  -0.01   0.01     0.01   0.00   0.00
    17   1     0.58  -0.08   0.09    -0.02   0.03   0.03    -0.07  -0.01  -0.02
    18   1     0.49   0.23   0.02    -0.05  -0.02  -0.04    -0.04  -0.02  -0.03
    19   1     0.48  -0.06  -0.19    -0.03   0.08  -0.02    -0.06   0.02   0.02
    20   8    -0.02   0.00   0.01     0.00   0.00   0.00     0.00   0.00   0.00
    21   1    -0.10   0.02   0.00     0.08  -0.01   0.02     0.06  -0.02   0.00
    22   8    -0.01  -0.01   0.00     0.00   0.00   0.00     0.00   0.00   0.00
    23   1     0.03   0.10   0.06    -0.01  -0.03  -0.03    -0.01  -0.02  -0.02
    24   1     0.09  -0.03  -0.04    -0.03   0.01   0.00    -0.01   0.00   0.01
                    43                     44                     45
                     A                      A                      A
 Frequencies --  1517.8470              1522.0020              1523.7568
 Red. masses --     1.0473                 1.0525                 1.0837
 Frc consts  --     1.4216                 1.4365                 1.4825
 IR Inten    --     7.4271                 3.4846                37.2025
  Atom  AN      X      Y      Z        X      Y      Z        X      Y      Z
     1   6     0.00   0.00   0.00     0.00   0.00   0.00    -0.03  -0.05  -0.04
     2   1     0.01  -0.01   0.04     0.00   0.00  -0.01    -0.03  -0.09  -0.14
     3   1    -0.03  -0.01   0.02     0.00  -0.02   0.00     0.20   0.60  -0.05
     4   1     0.01   0.00  -0.01    -0.02   0.00  -0.02     0.35   0.07   0.53
     5   6     0.00   0.00   0.00     0.00   0.00   0.00    -0.01  -0.02   0.02
     6   8     0.00   0.00   0.00     0.00   0.00   0.00     0.00   0.01   0.00
     7   8     0.00   0.00   0.00    -0.01   0.00   0.00     0.00   0.00  -0.01
     8   6     0.00   0.00   0.00    -0.05  -0.04   0.01    -0.01   0.01  -0.02
     9   1     0.02   0.06   0.02     0.54   0.48  -0.11    -0.09   0.13   0.13
    10   1     0.04  -0.01   0.05     0.28  -0.06   0.38     0.21  -0.04   0.06
    11   1     0.00   0.00  -0.01    -0.12   0.09  -0.44     0.04  -0.19   0.09
    12   8     0.00   0.00   0.00     0.00   0.00   0.00     0.00   0.01   0.00
    13   1     0.00   0.00   0.00     0.02  -0.02   0.01     0.02  -0.03   0.00
    14   1     0.00   0.00   0.00     0.00  -0.01   0.01    -0.02  -0.02   0.02
    15   1    -0.01   0.00   0.00    -0.04  -0.06   0.03    -0.05  -0.09   0.03
    16   6     0.00  -0.05  -0.02     0.00   0.00   0.00     0.00   0.00  -0.01
    17   1     0.18   0.50   0.45    -0.04  -0.02  -0.03    -0.01   0.02   0.01
    18   1    -0.30  -0.18   0.09     0.02   0.01   0.04     0.02   0.00   0.06
    19   1     0.12   0.50  -0.30     0.01  -0.06   0.03     0.03  -0.04   0.00
    20   8     0.01  -0.01   0.00     0.00   0.00   0.00     0.00   0.00   0.00
    21   1    -0.10   0.01  -0.02     0.00   0.01   0.01    -0.02   0.01   0.00
    22   8     0.00   0.00   0.00     0.00   0.00   0.00     0.00   0.01   0.00
    23   1    -0.01  -0.04   0.00     0.00   0.00   0.03    -0.01  -0.02   0.01
    24   1    -0.03   0.01   0.01     0.03  -0.01   0.02     0.02  -0.01   0.03
                    46                     47                     48
                     A                      A                      A
 Frequencies --  1527.6729              1532.8422              1573.0821
 Red. masses --     1.0530                 1.0402                 1.1004
 Frc consts  --     1.4479                 1.4401                 1.6044
 IR Inten    --    16.2427                12.5765               489.3356
  Atom  AN      X      Y      Z        X      Y      Z        X      Y      Z
     1   6     0.01   0.02   0.02     0.00   0.00   0.01     0.00  -0.01  -0.01
     2   1     0.01   0.03   0.05     0.00   0.00   0.00     0.01   0.00   0.01
     3   1    -0.07  -0.22   0.02    -0.01  -0.04   0.00    -0.01   0.08   0.01
     4   1    -0.12  -0.02  -0.19    -0.02   0.00  -0.04     0.04   0.00   0.06
     5   6     0.00   0.01  -0.01     0.00   0.00  -0.01    -0.02   0.03   0.02
     6   8     0.00  -0.01   0.00     0.00   0.00   0.00     0.01  -0.02   0.00
     7   8    -0.01   0.01   0.00     0.00   0.00   0.00     0.00   0.00  -0.01
     8   6    -0.03   0.04  -0.01     0.00   0.00   0.00    -0.01   0.00   0.00
     9   1    -0.18   0.13   0.18    -0.01  -0.06  -0.02     0.03   0.06   0.01
    10   1     0.60  -0.12  -0.12    -0.06   0.01  -0.05     0.11  -0.02   0.02
    11   1     0.09  -0.62   0.08     0.00   0.02   0.00     0.00  -0.07  -0.04
    12   8     0.00   0.00   0.00     0.00   0.00   0.00    -0.01  -0.04   0.02
    13   1     0.01  -0.02   0.01     0.01  -0.02   0.00    -0.17   0.26  -0.05
    14   1    -0.01  -0.01   0.01    -0.01  -0.01   0.00     0.11   0.14  -0.12
    15   1    -0.03  -0.05   0.03    -0.02  -0.03   0.02     0.44   0.66  -0.25
    16   6    -0.01   0.00   0.00    -0.01   0.00  -0.05     0.01   0.00   0.00
    17   1     0.02  -0.01  -0.01    -0.37   0.29   0.11    -0.07   0.02   0.01
    18   1     0.05   0.02   0.02     0.12  -0.09   0.68    -0.02  -0.02   0.03
    19   1     0.04  -0.04   0.00     0.33  -0.37   0.01     0.00  -0.01   0.01
    20   8     0.00   0.00   0.00    -0.01   0.01  -0.01    -0.01   0.00   0.00
    21   1    -0.01   0.01   0.01     0.14  -0.03   0.00     0.11  -0.04   0.01
    22   8     0.00   0.00   0.00     0.00   0.00   0.00    -0.01  -0.03   0.02
    23   1     0.00  -0.03   0.01    -0.02   0.04  -0.01     0.11   0.15  -0.07
    24   1     0.01   0.00   0.02     0.03  -0.01   0.00    -0.14   0.06  -0.22
                    49                     50                     51
                     A                      A                      A
 Frequencies --  1654.7088              1755.4868              1783.8945
 Red. masses --     1.0666                 2.3778                 1.4311
 Frc consts  --     1.7207                 4.3174                 2.6832
 IR Inten    --    43.8609               357.5936               114.5315
  Atom  AN      X      Y      Z        X      Y      Z        X      Y      Z
     1   6     0.00  -0.01  -0.01     0.01  -0.04  -0.03    -0.01   0.02   0.01
     2   1     0.01   0.00   0.02     0.03  -0.05   0.02    -0.01   0.02  -0.01
     3   1    -0.02   0.02   0.01    -0.06   0.10   0.04     0.04  -0.04  -0.02
     4   1     0.01   0.00   0.00     0.08  -0.04  -0.02    -0.04   0.02   0.02
     5   6    -0.01   0.03   0.01    -0.13   0.25   0.02     0.07  -0.13  -0.01
     6   8     0.01  -0.02   0.00     0.08  -0.15   0.01    -0.04   0.08   0.00
     7   8     0.00   0.00   0.00     0.01  -0.01  -0.01     0.00   0.01   0.00
     8   6     0.00   0.00   0.00     0.00   0.01   0.01     0.00   0.00   0.00
     9   1     0.01   0.00  -0.01     0.02  -0.07  -0.06    -0.02   0.02   0.03
    10   1    -0.02   0.01   0.01    -0.02   0.01  -0.08     0.00  -0.01   0.01
    11   1    -0.01   0.02  -0.01    -0.01  -0.01  -0.05     0.01   0.00   0.02
    12   8     0.00  -0.01  -0.01    -0.02  -0.01  -0.03    -0.04  -0.04  -0.02
    13   1     0.10   0.04   0.13     0.26   0.12   0.37     0.27   0.36   0.50
    14   1    -0.04   0.09  -0.08     0.25   0.12  -0.12     0.49   0.26  -0.27
    15   1    -0.23   0.30   0.22    -0.32  -0.07   0.39    -0.13   0.06   0.25
    16   6    -0.02  -0.01   0.00     0.01   0.00   0.00     0.00   0.00   0.00
    17   1     0.04  -0.03   0.00    -0.01   0.01   0.00     0.00   0.00   0.00
    18   1     0.12   0.05   0.02    -0.04  -0.02  -0.01    -0.02  -0.01   0.00
    19   1     0.07  -0.04  -0.02    -0.02   0.02   0.01    -0.01   0.01   0.00
    20   8     0.01   0.00  -0.01    -0.01   0.00   0.00     0.00   0.00   0.00
    21   1     0.00   0.03   0.03     0.03   0.00   0.01    -0.02   0.00  -0.01
    22   8     0.04   0.02   0.00    -0.02  -0.01  -0.02     0.00  -0.01  -0.01
    23   1    -0.16  -0.64  -0.06     0.22   0.33   0.19     0.10   0.13   0.12
    24   1    -0.50   0.17   0.10     0.23  -0.09  -0.06     0.06  -0.03  -0.03
                    52                     53                     54
                     A                      A                      A
 Frequencies --  1794.8821              2242.0396              2977.1358
 Red. masses --     1.0840                 1.0787                 1.0438
 Frc consts  --     2.0576                 3.1948                 5.4509
 IR Inten    --    41.1761              1302.8063                 0.5848
  Atom  AN      X      Y      Z        X      Y      Z        X      Y      Z
     1   6     0.00   0.01   0.00     0.00   0.00   0.00     0.01  -0.05  -0.03
     2   1     0.00   0.00   0.00     0.00   0.00  -0.01    -0.46  -0.07   0.12
     3   1     0.01  -0.02  -0.01     0.00   0.00   0.00     0.25  -0.08   0.37
     4   1    -0.01   0.01   0.00     0.00   0.00   0.00     0.09   0.72  -0.19
     5   6     0.02  -0.04   0.00     0.00   0.01   0.00     0.00   0.00   0.00
     6   8    -0.01   0.02   0.00     0.00   0.00   0.00     0.00   0.00   0.00
     7   8     0.00   0.00   0.00     0.00   0.00   0.00     0.00   0.00   0.00
[...]
 9,0.00129824,-0.00008644,-0.00001315,0.00004088,-0.00026116,-0.0000134
 4,0.00014751,0.00013371,0.00004818,-0.00006628,0.00188684,-0.00095512,
 0.00119992,-0.00043977,0.00026174,0.00008259,-0.00022543,0.00032890,-0
 .00042021,-0.00331197,0.00087504,-0.00241532,0.41952245,-0.00010893,-0
 .00007153,-0.00008118,-0.00023431,0.00005247,-0.00006978,0.00003531,-0
 .00003510,-0.00003471,-0.00006085,-0.00000900,0.00000668,0.00025883,-0
 .00081132,0.00077771,0.00022020,0.00041157,-0.00010697,-0.00104493,-0.
 00020924,-0.00035190,0.00004168,-0.00010480,-0.00005607,0.00001187,0.0
 0005946,-0.00000590,-0.00001910,-0.00003255,0.00009060,-0.00000325,0.0
 0003517,0.00001411,0.00042539,-0.00016789,0.00031435,-0.00007797,0.000
 01815,0.00001719,-0.00001270,0.00004517,-0.00010226,-0.00102094,0.0003
 6161,-0.00056113,-0.01856166,0.60648431,-0.00010550,-0.00027463,-0.000
 07701,-0.00024961,0.00016157,0.00023255,-0.00007451,-0.00004285,0.0000
 0271,-0.00010990,-0.00004384,-0.00003871,0.00039705,0.00087343,-0.0008
 5836,-0.00019641,-0.00047343,0.00009908,0.00099940,0.00017823,0.000259
 28,-0.00012766,0.00012282,0.00027254,0.00000991,0.00003502,-0.00000524
 ,0.00002484,-0.00000026,0.00001310,0.00000064,-0.00001073,-0.00001758,
 -0.00030308,0.00014254,-0.00025741,0.00004156,-0.00001771,0.00000890,-
 0.00000472,-0.00006362,0.00011215,0.00063590,-0.00022412,0.00049643,0.
 01132480,-0.00646363,0.61644121,-0.00000363,0.00001555,-0.00004704,-0.
 00000174,-0.00001092,0.00008161,-0.00002736,-0.00002206,-0.00001137,0.
 00000406,0.00000916,-0.00001032,0.00039244,-0.00036756,0.00073445,-0.0
 0006460,0.00032161,-0.00016793,-0.00083216,-0.00012486,-0.00024668,0.0
 0009676,-0.00006648,-0.00024794,0.00001128,0.00000881,-0.00000733,0.00
 002392,-0.00002047,0.00000337,-0.00001571,0.00000589,0.00001820,0.0000
 2846,0.00008928,-0.00005523,0.00000509,-0.00004178,0.00001419,-0.00005
 964,-0.00006558,0.00004832,-0.00007886,-0.00005471,0.00010734,-0.05307
 460,-0.01752642,0.02333043,0.07364495,-0.00000044,-0.00001108,-0.00005
 320,-0.00003288,-0.00004490,0.00007137,-0.00002632,-0.00000425,0.00000
 040,0.00001674,0.00000366,-0.00000668,0.00007034,0.00007119,0.00022026
 ,-0.00003012,-0.00004515,-0.00006708,-0.00009520,-0.00003031,-0.000092
 16,0.00002002,0.00001204,-0.00002789,0.00000207,-0.00000822,-0.0000055
 0,0.00001130,0.00000773,-0.00001942,-0.00000479,-0.00000320,0.00000297
 ,-0.00012637,0.00002172,-0.00007708,0.00001908,0.00000185,-0.00000296,
 -0.00000051,0.00002274,0.00003574,0.00024284,-0.00002756,0.00016447,-0
 .02749018,-0.15590964,0.12356171,0.03206742,0.15942789,0.00000029,0.00
 000679,-0.00000794,-0.00000128,-0.00003514,-0.00000270,-0.00000354,-0.
 00000174,0.00000161,0.00000977,-0.00000033,-0.00000606,-0.00008217,0.0
 0006892,0.00003015,0.00002871,-0.00008344,-0.00000859,0.00001038,-0.00
 003638,-0.00000649,-0.00000964,0.00002077,0.00000245,-0.00000917,-0.00
 001428,0.00000603,-0.00000607,0.00001155,-0.00001371,0.00000534,-0.000
 00250,0.00000426,-0.00006978,-0.00002557,-0.00003510,0.00000232,0.0000
 2302,-0.00000773,-0.00000696,0.00004785,0.00001187,0.00015083,0.000019
 94,0.00009903,0.03480207,0.12501097,-0.21299865,-0.03903077,-0.1359872
 4,0.21971064,0.00003699,-0.00009710,-0.00001681,-0.00010014,0.00009595
 ,-0.00002158,0.00002693,-0.00002232,-0.00001062,-0.00004910,-0.0000150
 5,-0.00001709,0.00009059,0.00060085,0.00026753,-0.00009430,-0.00036085
 ,-0.00008547,-0.00008385,-0.00017518,-0.00003600,0.00003326,0.00007609
 ,-0.00006167,-0.00000391,-0.00000937,0.00000364,0.00004836,-0.00000128
 ,-0.00006370,-0.00000804,-0.00002832,-0.00000309,-0.00038262,0.0000888
 7,-0.00025161,0.00006192,0.00000602,-0.00000990,0.00002416,0.00002347,
 0.00006573,0.00078581,-0.00016237,0.00048558,-0.08010265,0.07856568,0.
 01657867,0.00455245,-0.00552454,-0.00231412,0.10193575,0.00000962,0.00
 001201,0.00004458,0.00004435,0.00000950,-0.00005057,0.00002171,-0.0000
 0036,-0.00000368,-0.00000767,-0.00000070,-0.00000258,-0.00007152,0.000
 02154,-0.00009106,0.00002197,-0.00001523,0.00002366,0.00011534,0.00002
 172,0.00001576,-0.00000954,0.00000010,0.00004870,-0.00000252,-0.000001
 51,0.00000164,-0.00001243,-0.00000156,0.00000072,0.00000479,0.00000009
 ,-0.00000462,0.00007386,-0.00002081,0.00002806,-0.00001666,0.00000389,
 0.00000712,-0.00001627,-0.00000487,-0.00001659,-0.00013462,0.00001562,
 -0.00006553,0.08938598,-0.27730125,-0.04386744,0.00631983,-0.01495702,
 -0.00468533,-0.09532526,0.28777137,-0.00000848,-0.00002835,-0.00003996
 ,-0.00006077,-0.00002087,0.00002009,0.00000104,0.00000045,-0.00000673,
 0.00001364,0.00000519,0.00000242,0.00005900,-0.00001407,0.00031031,-0.
 00002659,0.00003648,-0.00007868,-0.00012182,0.00002636,-0.00017119,0.0
 0002313,-0.00002459,0.00000930,0.00001298,-0.00000539,-0.00001806,-0.0
 0000756,-0.00000486,-0.00000626,-0.00000534,0.00000432,-0.00000625,0.0
 0002824,-0.00000969,0.00002177,-0.00000273,-0.00000329,0.00000316,0.00
 000606,0.00000262,0.00000497,-0.00006477,0.00002210,-0.00004882,0.0161
 1657,-0.04407345,-0.06580152,-0.01016987,0.02247814,0.00677996,-0.0191
 9119,0.04759512,0.05950670,-0.00003601,-0.00011249,-0.00005392,-0.0001
 0306,0.00017892,0.00019573,-0.00005872,-0.00002303,0.00000354,-0.00006
 979,-0.00001732,-0.00000577,0.00054058,0.00011330,-0.00008559,-0.00016
 831,0.00004029,0.00003891,-0.00027375,-0.00005197,0.00020845,0.0000542
 6,-0.00009568,-0.00028952,-0.00000992,-0.00002743,0.00002946,-0.000024
 85,0.00002987,-0.00001448,-0.00000705,0.00002859,0.00004419,0.00004814
 ,0.00009377,0.00004793,0.00003041,-0.00005958,-0.00001065,0.00005387,-
 0.00011395,0.00003492,-0.00008288,-0.00015887,-0.00012715,-0.07173125,
 -0.02804974,-0.06484847,0.00414632,0.00380975,0.00487314,0.00703156,0.
 00338585,0.01070182,0.09108582,0.00000616,0.00001512,0.00002258,0.0000
 4088,-0.00000286,0.00002791,-0.00001270,0.00000202,0.00000627,0.000003
 71,-0.00000128,-0.00000608,-0.00002252,0.00010007,-0.00017370,0.000006
 58,-0.00010227,0.00004248,0.00003210,-0.00004523,0.00016582,-0.0000166
 9,0.00002927,-0.00008425,-0.00002083,-0.00002411,0.00002309,0.00000323
 ,0.00002055,-0.00001345,0.00000554,-0.00000182,0.00002292,-0.00018256,
 0.00003522,-0.00012593,0.00002688,0.00000999,-0.00001091,-0.00000285,0
 .00002461,0.00002141,0.00032086,-0.00001910,0.00026912,-0.02905408,-0.
 09440452,-0.08719742,0.00747104,0.01005108,0.01726468,-0.00920655,-0.0
 0797613,-0.02587952,0.03469461,0.09009923,0.00001760,0.00002195,0.0000
 1689,0.00003289,0.00002724,-0.00000053,0.00000289,0.00000393,0.0000020
 1,0.00000034,0.00000314,0.00000537,0.00006719,-0.00007744,-0.00000621,
 -0.00002736,0.00008507,0.00001797,-0.00007574,0.00000695,0.00002401,0.
 00002056,-0.00001263,-0.00005679,0.00000992,0.00000889,-0.00000639,0.0
 0000476,-0.00001562,0.00000878,-0.00000705,-0.00000199,-0.00000156,-0.
 00000348,0.00003335,0.00000902,0.00001186,-0.00002351,-0.00000458,0.00
 002104,-0.00003398,-0.00000692,-0.00003917,-0.00000140,-0.00003061,-0.
 07239007,-0.08790142,-0.26289969,-0.00662539,-0.01043846,-0.01703754,-
 0.00099220,-0.00059102,-0.00275912,0.07982878,0.09571473,0.27180217,0.
 00006036,-0.00092983,-0.00070754,-0.00125390,0.00042721,0.00069755,-0.
 00032556,-0.00020603,-0.00002294,-0.00045806,-0.00008498,-0.00008300,0
 .00200481,0.00082791,0.00271157,-0.00143186,-0.00060070,-0.00065306,-0
 .00590769,-0.00246871,0.00052452,0.00052186,-0.00023183,-0.00226367,0.
 00000835,-0.00010005,0.00014028,0.00028051,0.00010145,-0.00029855,-0.0
 0014066,0.00001671,0.00027039,-0.00289424,0.00129452,-0.00198867,0.000
 63402,-0.00031419,-0.00011487,0.00013631,-0.00036413,0.00069498,0.0054
 3264,-0.00130622,0.00388277,-0.19722072,0.00682772,-0.01856544,-0.0213
 4217,-0.00305526,0.00204245,-0.03345614,-0.00359343,0.00193575,-0.0313
 3828,-0.00357969,0.00110658,0.38778548,-0.00037262,-0.00000965,-0.0008
 0550,-0.00044783,0.00033477,0.00148343,-0.00067529,-0.00008491,0.00010
 115,-0.00011375,0.00004072,0.00011561,0.00380281,-0.00528266,0.0005755
 9,-0.00109343,0.00485120,0.00012184,-0.00373398,0.00131019,0.00022062,
 0.00033268,-0.00155868,-0.00200151,0.00012742,0.00010537,0.00005261,-0
 .00037410,-0.00019042,0.00052753,-0.00008031,0.00040194,0.00030151,0.0
 0537985,-0.00001257,0.00389956,-0.00060764,-0.00073900,0.00005165,0.00
 017981,-0.00155345,-0.00030923,-0.00983638,-0.00075266,-0.00857119,-0.
 02183433,-0.08244459,0.01509121,-0.02789884,0.00032495,-0.00071151,0.0
 3204030,0.01114122,0.00073647,-0.01285840,0.00285929,0.00294870,0.0575
 8934,0.28939442,-0.00017984,-0.00027535,-0.00001970,-0.00037414,0.0005
 0069,0.00037185,-0.00017715,0.00006624,0.00010623,-0.00023518,-0.00002
 894,0.00014158,-0.00031281,-0.00117590,-0.00354666,0.00010015,0.000581
 39,0.00106571,0.00120552,0.00058395,0.00202677,-0.00008609,-0.00049814
 ,-0.00023852,-0.00008592,-0.00008077,0.00013027,-0.00033736,0.00019989
 ,0.00016396,0.00006116,0.00017314,0.00008149,0.00220463,-0.00038486,0.
 00189581,-0.00024039,-0.00008999,-0.00002297,0.00034921,-0.00036067,-0
 .00035900,-0.00349369,-0.00040091,-0.00398951,0.01277163,0.01525886,-0
 .07562521,0.03161567,0.00140867,0.00259806,0.00640516,0.00136373,0.002
 59222,-0.02825890,0.00074963,0.00991814,-0.07804673,-0.18959695,0.2962
 4242,-0.00021099,-0.00012798,0.00032589,0.00019362,0.00000040,-0.00016
 801,0.00007757,0.00019318,0.00015229,0.00001821,-0.00007845,0.00007321
 ,-0.00614712,0.00320080,-0.00897313,0.00121333,-0.00354353,0.00168480,
 0.00649552,0.00085965,0.00305249,-0.00155815,0.00079398,0.00348742,-0.
 00003866,-0.00004973,-0.00007962,-0.00014421,0.00010642,-0.00006102,0.
 00022172,-0.00014780,-0.00036256,-0.00074470,-0.00077292,-0.00033339,-
 0.00009227,0.00051460,-0.00004092,0.00009088,0.00076215,-0.00029427,0.
 00176434,0.00062059,0.00077110,-0.01242306,-0.02697944,0.02908819,-0.0
 0740840,0.00011797,-0.00083739,0.00097313,0.00054243,0.00080910,0.0008
 0385,-0.00073339,-0.00035598,-0.07569198,-0.03457372,0.04601970,0.0904
 2484,-0.00000685,-0.00020075,0.00024072,-0.00005353,0.00023320,-0.0006
 6660,0.00023791,-0.00004184,-0.00000309,-0.00023243,-0.00012815,-0.000
 09270,-0.00160922,0.00375235,-0.00225224,0.00042003,-0.00276139,0.0004
 6456,0.00186243,-0.00185774,0.00104439,0.00000005,0.00131189,0.0012989
 5,-0.00009626,0.00017589,0.00000076,0.00061912,-0.00039577,-0.00033462
 ,0.00006917,-0.00045581,-0.00035580,-0.00109828,-0.00019869,-0.0007090
 4,0.00007380,0.00021743,-0.00002822,0.00001513,0.00041228,0.00002053,0
 .00227987,-0.00010668,0.00150967,-0.00047993,0.00078287,0.00003223,0.0
 0045471,0.00123695,-0.00120952,0.00163476,0.00109640,-0.00091027,0.000
 57420,-0.00053428,0.00032800,-0.06203219,-0.19640677,0.17668539,0.0601
 7780,0.19956619,0.00019394,-0.00027563,-0.00008628,-0.00013272,-0.0003
 2253,-0.00119508,0.00036652,0.00003270,-0.00008897,-0.00001616,0.00001
 922,0.00002206,-0.00218347,-0.00020532,0.00343046,-0.00000389,0.000324
 59,-0.00099955,-0.00051976,0.00019784,-0.00366861,0.00105286,0.0002076
 7,0.00070042,0.00028451,0.00035159,-0.00049180,0.00036827,-0.00043104,
 0.00002809,-0.00010908,-0.00023387,-0.00043080,-0.00007382,-0.00003558
 ,-0.00005506,-0.00003173,0.00003614,0.00006290,-0.00002652,0.00008430,
 0.00003266,0.00014215,0.00009240,0.00010127,-0.00270841,-0.00183572,0.
 00055910,0.00014944,-0.00087930,0.00126293,-0.00028023,0.00011284,-0.0
 0017610,-0.00156577,-0.00098857,0.00102021,0.07676064,0.18481075,-0.21
 921154,-0.06952102,-0.18093973,0.21664571,0.00057213,-0.00061330,0.000
 01477,-0.00007027,-0.00045027,-0.00064029,0.00016568,0.00009674,0.0001
 0118,0.00005071,-0.00011689,-0.00015443,-0.00609232,0.00715872,-0.0028
 0005,0.00164545,-0.00971892,-0.00003160,0.00391114,-0.00199458,0.00244
 263,-0.00043126,0.00057045,0.00114291,-0.00023195,-0.00074283,0.000203
 84,-0.00166105,-0.00132283,0.00037649,0.00008215,-0.00002919,0.0000617
 0,-0.05178904,0.01196263,-0.04163266,0.00203774,0.00214809,-0.00346160
 ,-0.00464814,0.00680971,0.00180249,0.01004153,0.00319521,0.01917303,0.
 00830487,0.00230251,-0.00064033,-0.00019283,-0.00036769,0.00000828,-0.
 00188874,-0.00014177,0.00003814,-0.00030739,-0.00071060,-0.00036734,-0
 .01314768,0.03698589,0.01073384,-0.00510759,-0.00004054,0.00265723,0.2
 9502060,0.00028284,0.00007292,-0.00011340,0.00004836,0.00015366,0.0003
 3152,-0.00012570,-0.00003485,-0.00000993,-0.00001387,0.00002262,0.0000
 2557,0.00049716,0.00050637,0.00082196,-0.00469469,-0.00189870,-0.00256
 633,-0.00127741,0.00079978,-0.00029874,-0.00155696,0.00004150,0.000909
 17,0.00002934,-0.00025994,0.00003561,-0.00066601,-0.00377406,0.0007916
 2,-0.00019180,-0.00087782,0.00006959,0.01067211,0.00857412,0.01045926,
 -0.00015796,-0.00128482,0.00048532,0.00275713,-0.00313271,0.00069182,-
 0.00465486,-0.04974396,-0.01302148,-0.00630697,-0.00565158,-0.00062406
 ,0.00038874,0.00016429,-0.00033926,0.00262149,0.00044489,0.00000075,0.
 00079440,0.00021803,0.00052771,0.02814906,-0.02785389,-0.01330255,0.00
 197796,0.00091853,-0.00110389,0.05987482,0.57716741,0.00017836,-0.0003
 4267,0.00025985,-0.00002967,0.00011000,0.00007208,-0.00001112,0.000141
 17,0.00014229,-0.00000476,-0.00007828,-0.00001512,-0.00265832,0.003797
 14,-0.00367466,0.00065181,-0.00483661,0.00164435,0.00102783,-0.0001880
 4,0.00456074,0.00100623,-0.00258642,-0.00240140,0.00005856,0.00014032,
 0.00012005,0.00003632,0.00187936,-0.00109045,0.00007593,0.00097181,0.0
 0016319,-0.04054028,0.00890919,-0.01272932,-0.00202564,0.00205425,-0.0
 0566575,-0.00050390,0.00343664,0.00184387,0.03043115,-0.00445080,-0.03
 014216,-0.00238880,-0.00264094,-0.00079974,-0.00008410,0.00016009,-0.0
 0011463,0.00125307,0.00029308,0.00006004,0.00078146,-0.00009227,0.0002
 1739,0.00967749,-0.01316494,0.00463718,0.00221190,-0.00246325,-0.00214
 437,-0.02988805,0.08934820,0.14997569,-0.00046995,0.00029595,-0.000010
 92,0.00013714,0.00036607,0.00066616,-0.00021728,-0.00000386,-0.0000071
 6,0.00000230,0.00006375,0.00013506,0.00340169,-0.00667723,0.00035105,-
 0.00005797,0.00552618,0.00046511,-0.00251048,0.00136712,-0.00078756,0.
 00029907,-0.00137149,-0.00069188,0.00016174,0.00032746,-0.00011818,-0.
 00059647,-0.00066342,0.00088399,-0.00003106,0.00032799,0.00004053,0.00
 566644,-0.00077569,0.00198470,-0.00057259,-0.00060506,0.00035793,-0.00
 047906,-0.00083283,-0.00103410,-0.02089855,0.00636287,-0.00134834,-0.0
 1298747,0.00384870,0.00250077,0.00029486,0.00033597,0.00022358,0.00109
 967,-0.00042231,-0.00004156,0.00071826,0.00078021,-0.00000890,-0.00746
 257,-0.02510638,-0.00159571,0.00711208,-0.00246443,-0.00469819,-0.1358
 2781,0.04878524,0.04976159,0.14569688,0.00037875,-0.00028705,-0.000030
 75,-0.00010881,-0.00062991,-0.00085756,0.00024873,0.00003871,0.0000239
 0,0.00005896,-0.00005637,-0.00010069,-0.00528892,0.00437285,-0.0016880
 2,0.00144358,-0.00553214,-0.00030254,0.00380314,-0.00123927,0.00037372
 ,-0.00075042,0.00139617,0.00215005,-0.00019952,-0.00041975,0.00007737,
 0.00010347,0.00118171,-0.00074471,0.00012020,-0.00022630,-0.00010068,-
 0.00957624,0.00076422,-0.00662085,0.00122466,0.00108298,-0.00012089,-0
 .00038450,0.00247692,0.00072023,0.01858763,0.00031553,0.01593761,0.013
 59474,0.00931732,-0.00051634,-0.00100366,-0.00028628,0.00070147,-0.004
 93280,-0.00036017,0.00003685,-0.00230571,-0.00029294,-0.00065841,-0.01
 739914,0.00493711,0.00879571,-0.00259439,-0.00655282,0.00096106,0.0026
 4241,-0.07025509,-0.02516742,-0.02067978,0.07791872,0.00015508,-0.0000
 3224,-0.00021836,0.00003382,-0.00041246,-0.00029210,0.00002630,-0.0000
 4711,-0.00003386,0.00005943,0.00000928,-0.00005954,-0.00121662,0.00050
 687,0.00145234,0.00058350,-0.00123059,-0.00078043,0.00062755,-0.000344
 26,-0.00105129,-0.00036609,0.00125446,0.00100930,-0.00001980,-0.000008
 28,-0.00007148,0.00078885,-0.00000706,-0.00047454,-0.00001386,-0.00039
 479,-0.00015000,-0.00676485,0.00096174,-0.00729526,0.00077139,0.000238
 90,0.00017481,-0.00152389,0.00115796,0.00028536,0.00256112,0.00699515,
 0.01765406,0.00393882,0.00321517,0.00046394,0.00051910,-0.00038965,-0.
 00014235,-0.00181395,-0.00023289,-0.00010590,-0.00148035,0.00023577,-0
 .00022346,0.00090157,0.00454456,-0.01843468,-0.00671769,0.00845418,0.0
 0447811,0.04758546,-0.04720085,-0.07781641,-0.03926765,0.02231435,0.08
 289956,0.00011211,0.00004096,-0.00001236,-0.00000278,-0.00004694,-0.00
 002345,0.00000028,-0.00000922,0.00000360,0.00000413,-0.00000098,-0.000
 00005,-0.00033616,0.00040134,-0.00014030,-0.00082644,-0.00051057,-0.00
 061538,0.00006129,0.00012299,0.00005257,-0.00006646,0.00006183,0.00024
 159,-0.00002127,-0.00004519,0.00000340,-0.00001975,-0.00036613,-0.0000
 8673,-0.00001949,-0.00011241,0.00001561,-0.00217646,0.00320196,-0.0003
 1914,-0.00019186,-0.00064796,-0.00027977,0.00056594,-0.00051328,-0.000
 09200,-0.00120436,-0.02011163,0.00105342,0.00093101,0.00116236,0.00029
 346,-0.00009889,0.00004076,0.00021375,-0.00053107,-0.00017173,-0.00004
 478,-0.00030179,0.00015065,-0.00023176,-0.00479283,0.00316891,0.001957
 24,0.00017805,-0.00030532,-0.00010481,-0.10043593,-0.13723241,-0.01901
 708,0.01752112,0.02301763,0.00063277,0.09165160,-0.00010284,0.00007554
 ,0.00004127,0.00002498,-0.00001554,-0.00000902,0.00000651,-0.00000534,
 -0.00000427,0.00000599,0.00000330,0.00000450,0.00014408,-0.00063038,-0
 .00000834,0.00018276,0.00059989,0.00005291,0.00008469,0.00017433,-0.00
 018021,-0.00008672,0.00023329,0.00018110,-0.00002530,-0.00002916,0.000
 01223,-0.00048620,-0.00067933,0.00028774,0.00004376,-0.00002445,0.0000
 2796,0.00435762,-0.00194685,0.00194244,-0.00022281,0.00015608,0.000274
 58,-0.00021386,-0.00008553,-0.00034170,-0.00761741,0.00458205,-0.00354
 885,0.00042785,-0.00041509,-0.00037869,0.00005129,-0.00001849,-0.00004
 371,0.00010752,0.00010129,0.00002950,0.00013064,-0.00005992,0.00004621
 ,0.00103248,0.00118804,-0.00017227,-0.00026657,-0.00006329,0.00002007,
 -0.11749778,-0.42431670,-0.05522960,-0.00878504,-0.01766412,0.00041179
 ,0.12870438,0.43884038,0.00002836,0.00006742,-0.00000139,0.00002063,-0
 .00002772,0.00002037,-0.00001917,-0.00002490,-0.00000266,-0.00000062,0
 .00000565,-0.00000446,-0.00020230,-0.00019539,-0.00009525,-0.00027964,
 0.00004601,-0.00006585,-0.00001787,-0.00003101,-0.00022991,0.00035688,
 0.00008404,-0.00022015,0.00001520,0.00019736,-0.00002626,-0.00020536,0
 .00015658,0.00061166,0.00004384,0.00023648,-0.00001960,-0.00051553,0.0
 0212266,-0.00080049,0.00006785,0.00014750,0.00059421,0.00019558,-0.000
 48985,0.00013382,-0.00337894,-0.01684611,-0.00048322,0.00026614,-0.000
 42057,0.00041815,0.00008184,-0.00005720,-0.00012550,0.00010986,0.00007
 632,-0.00009232,-0.00004778,0.00000568,-0.00000856,0.00139793,-0.00042
 195,-0.00052391,0.00006892,-0.00011429,0.00020426,-0.00672565,-0.02591
 761,-0.02710270,-0.00776033,-0.01518347,-0.00126782,0.01650019,0.05658
 436,0.02908758||0.00211674,0.01939028,0.02610779,0.00578368,-0.0034466
 6,-0.00486044,-0.00375208,-0.00290553,-0.00772148,-0.00054908,-0.01036
 918,-0.00286367,-0.00677976,-0.00029418,-0.02782335,0.00161860,0.03352
 567,0.00431827,0.00536858,-0.00690807,0.01308798,-0.00286978,0.0080566
 2,-0.00059580,0.00566074,-0.00624544,0.00076121,0.00090418,0.00459381,
 -0.00266135,-0.00312539,-0.00160980,-0.00039731,0.00841184,0.01755061,
 0.00461053,-0.01679858,-0.01122259,0.01620476,-0.00077363,-0.02059426,
 -0.02196644,0.00026336,-0.01715396,-0.01102565,0.00229592,0.00319906,0
 .00804954,-0.00334626,0.00317165,-0.00565259,-0.00091176,-0.00481314,-
 0.00088638,-0.00164898,-0.00007028,0.00178735,0.00066384,0.00874490,-0
 .01747438,-0.00515556,-0.01219008,0.01563549,-0.01275660,-0.00328321,0
 .03239153,0.02369936,0.00095244,-0.01599832,0.00168063,0.00192137,-0.0
 0302728|||@


 TRUST EVERYONE, BUT CUT THE CARDS.
 Job cpu time:  0 days  0 hours 29 minutes 58.0 seconds.
 File lengths (MBytes):  RWF=    118 Int=      0 D2E=      0 Chk=      4 Scr=      1
 Normal termination of Gaussian 09 at Thu Oct 01 11:13:08 2015.
