 Entering Gaussian System, Link 0=g09
 Input=meohac-x.com
 Output=meohac-x.log
 Initial command:
 /apps/gaussian/g09/l1.exe "/data/sawal/gaussian/Gau-20115.inp" -scrdir="/data/sawal/gaussian/"
 Entering Link 1 = /apps/gaussian/g09/l1.exe PID=     20116.
  
 Copyright (c) 1988,1990,1992,1993,1995,1998,2003,2009,2013,
            Gaussian, Inc.  All Rights Reserved.
  
 This is part of the Gaussian(R) 09 program.  It is based on
 the Gaussian(R) 03 system (copyright 2003, Gaussian, Inc.),
 the Gaussian(R) 98 system (copyright 1998, Gaussian, Inc.),
 the Gaussian(R) 94 system (copyright 1995, Gaussian, Inc.),
 the Gaussian 92(TM) system (copyright 1992, Gaussian, Inc.),
 the Gaussian 90(TM) system (copyright 1990, Gaussian, Inc.),
 the Gaussian 88(TM) system (copyright 1988, Gaussian, Inc.),
 the Gaussian 86(TM) system (copyright 1986, Carnegie Mellon
 University), and the Gaussian 82(TM) system (copyright 1983,
 Carnegie Mellon University). Gaussian is a federally registered
 trademark of Gaussian, Inc.
  
 This software contains proprietary and confidential information,
 including trade secrets, belonging to Gaussian, Inc.
  
 This software is provided under written license and may be
 used, copied, transmitted, or stored only in accord with that
 written license.
  
 The following legend is applicable only to US Government
 contracts under FAR:
  
                    RESTRICTED RIGHTS LEGEND
  
 Use, reproduction and disclosure by the US Government is
 subject to restrictions as set forth in subparagraphs (a)
 and (c) of the Commercial Computer Software - Restricted
 Rights clause in FAR 52.227-19.
  
 Gaussian, Inc.
 340 Quinnipiac St., Bldg. 40, Wallingford CT 06492
  
  
 ---------------------------------------------------------------
 Warning -- This program may not be used in any manner that
 competes with the business of Gaussian, Inc. or will provide
 assistance to any competitor of Gaussian, Inc.  The licensee
 of this program is prohibited from giving any competitor of
 Gaussian, Inc. access to this program.  By using this program,
 the user acknowledges that Gaussian, Inc. is engaged in the
 business of creating and licensing software in the field of
 computational chemistry and represents and warrants to the
 licensee that it is not a competitor of Gaussian, Inc. and that
 it will not use this program in any manner prohibited above.
 ---------------------------------------------------------------
  

 Cite this work as:
 Gaussian 09, Revision D.01,
 M. J. Frisch, G. W. Trucks, H. B. Schlegel, G. E. Scuseria, 
 M. A. Robb, J. R. Cheeseman, G. Scalmani, V. Barone, B. Mennucci, 
 G. A. Petersson, H. Nakatsuji, M. Caricato, X. Li, H. P. Hratchian, 
 A. F. Izmaylov, J. Bloino, G. Zheng, J. L. Sonnenberg, M. Hada, 
 M. Ehara, K. Toyota, R. Fukuda, J. Hasegawa, M. Ishida, T. Nakajima, 
 Y. Honda, O. Kitao, H. Nakai, T. Vreven, J. A. Montgomery, Jr., 
 J. E. Peralta, F. Ogliaro, M. Bearpark, J. J. Heyd, E. Brothers, 
 K. N. Kudin, V. N. Staroverov, T. Keith, R. Kobayashi, J. Normand, 
 K. Raghavachari, A. Rendell, J. C. Burant, S. S. Iyengar, J. Tomasi, 
 M. Cossi, N. Rega, J. M. Millam, M. Klene, J. E. Knox, J. B. Cross, 
 V. Bakken, C. Adamo, J. Jaramillo, R. Gomperts, R. E. Stratmann, 
 O. Yazyev, A. J. Austin, R. Cammi, C. Pomelli, J. W. Ochterski, 
 R. L. Martin, K. Morokuma, V. G. Zakrzewski, G. A. Voth, 
 P. Salvador, J. J. Dannenberg, S. Dapprich, A. D. Daniels, 
 O. Farkas, J. B. Foresman, J. V. Ortiz, J. Cioslowski, 
 and D. J. Fox, Gaussian, Inc., Wallingford CT, 2013.
 
 ******************************************
 Gaussian 09:  ES64L-G09RevD.01 24-Apr-2013
                26-Sep-2015 
 ******************************************
 %mem=600MB
 %nprocshared=5
 Will use up to    5 processors via shared memory.
 --------------------------------------------
 # opt freq x3lyp/6-31+g(d) geom=connectivity
 --------------------------------------------
 1/14=-1,18=20,19=15,26=3,38=1,57=2/1,3;
 2/9=110,12=2,17=6,18=5,40=1/2;
 3/5=1,6=6,7=11,11=2,16=1,25=1,30=1,71=1,74=-33/1,2,3;
 4//1;
 5/5=2,38=5/2;
 6/7=2,8=2,9=2,10=2,28=1/1;
 7//1,2,3,16;
 1/14=-1,18=20,19=15,26=3/3(2);
 2/9=110/2;
 99//99;
 2/9=110/2;
 3/5=1,6=6,7=11,11=2,16=1,25=1,30=1,71=1,74=-33/1,2,3;
 4/5=5,16=3,69=1/1;
 5/5=2,38=5/2;
 7//1,2,3,16;
 1/14=-1,18=20,19=15,26=3/3(-5);
 2/9=110/2;
 6/7=2,8=2,9=2,10=2,19=2,28=1/1;
 99/9=1/99;
 -------------------
 Title Card Required
 -------------------
 Symbolic Z-matrix:
 Charge =  1 Multiplicity = 1
 C                    -2.8995   -1.79763   0.05684 
 H                    -2.96441  -2.82924   0.33336 
 H                    -2.47635  -1.71684  -0.92261 
 H                    -3.87834  -1.36546   0.05923 
 C                    -2.00632  -1.05113   1.06509 
 O                    -2.23939   0.33292   1.33892 
 C                    -1.84625   0.62584   2.68225 
 H                    -0.8058    0.40828   2.80487 
 H                    -2.02064   1.66146   2.88714 
 H                    -2.41814   0.02696   3.35989 
 O                    -1.07136  -1.6591    1.64801 
 H                    -0.51457  -1.19376   2.27653 
 

 GradGradGradGradGradGradGradGradGradGradGradGradGradGradGradGradGradGrad
 Berny optimization.
 Initialization pass.
                           ----------------------------
                           !    Initial Parameters    !
                           ! (Angstroms and Degrees)  !
 --------------------------                            --------------------------
 ! Name  Definition              Value          Derivative Info.                !
 --------------------------------------------------------------------------------
 ! R1    R(1,2)                  1.07           estimate D2E/DX2                !
 ! R2    R(1,3)                  1.07           estimate D2E/DX2                !
 ! R3    R(1,4)                  1.07           estimate D2E/DX2                !
 ! R4    R(1,5)                  1.54           estimate D2E/DX2                !
 ! R5    R(5,6)                  1.43           estimate D2E/DX2                !
 ! R6    R(5,11)                 1.2584         estimate D2E/DX2                !
 ! R7    R(6,7)                  1.43           estimate D2E/DX2                !
 ! R8    R(7,8)                  1.07           estimate D2E/DX2                !
 ! R9    R(7,9)                  1.07           estimate D2E/DX2                !
 ! R10   R(7,10)                 1.07           estimate D2E/DX2                !
 ! R11   R(11,12)                0.96           estimate D2E/DX2                !
 ! A1    A(2,1,3)              109.4712         estimate D2E/DX2                !
 ! A2    A(2,1,4)              109.4712         estimate D2E/DX2                !
 ! A3    A(2,1,5)              109.4712         estimate D2E/DX2                !
 ! A4    A(3,1,4)              109.4712         estimate D2E/DX2                !
 ! A5    A(3,1,5)              109.4712         estimate D2E/DX2                !
 ! A6    A(4,1,5)              109.4712         estimate D2E/DX2                !
 ! A7    A(1,5,6)              120.0            estimate D2E/DX2                !
 ! A8    A(1,5,11)             120.0            estimate D2E/DX2                !
 ! A9    A(6,5,11)             120.0            estimate D2E/DX2                !
 ! A10   A(5,6,7)              109.4712         estimate D2E/DX2                !
 ! A11   A(6,7,8)              109.4712         estimate D2E/DX2                !
 ! A12   A(6,7,9)              109.4712         estimate D2E/DX2                !
 ! A13   A(6,7,10)             109.4712         estimate D2E/DX2                !
 ! A14   A(8,7,9)              109.4712         estimate D2E/DX2                !
 ! A15   A(8,7,10)             109.4712         estimate D2E/DX2                !
 ! A16   A(9,7,10)             109.4712         estimate D2E/DX2                !
 ! A17   A(5,11,12)            120.0            estimate D2E/DX2                !
 ! D1    D(2,1,5,6)           -150.0            estimate D2E/DX2                !
 ! D2    D(2,1,5,11)            30.0            estimate D2E/DX2                !
 ! D3    D(3,1,5,6)             90.0            estimate D2E/DX2                !
 ! D4    D(3,1,5,11)           -90.0            estimate D2E/DX2                !
 ! D5    D(4,1,5,6)            -30.0            estimate D2E/DX2                !
 ! D6    D(4,1,5,11)           150.0            estimate D2E/DX2                !
 ! D7    D(1,5,6,7)            150.0            estimate D2E/DX2                !
 ! D8    D(11,5,6,7)           -30.0            estimate D2E/DX2                !
 ! D9    D(1,5,11,12)          179.9999         estimate D2E/DX2                !
 ! D10   D(6,5,11,12)           -0.0001         estimate D2E/DX2                !
 ! D11   D(5,6,7,8)             60.0            estimate D2E/DX2                !
 ! D12   D(5,6,7,9)           -180.0            estimate D2E/DX2                !
 ! D13   D(5,6,7,10)           -60.0            estimate D2E/DX2                !
 --------------------------------------------------------------------------------
 Trust Radius=3.00D-01 FncErr=1.00D-07 GrdErr=1.00D-06
 Number of steps in this run=     51 maximum allowed number of steps=    100.
 GradGradGradGradGradGradGradGradGradGradGradGradGradGradGradGradGradGrad

                          Input orientation:                          
 ---------------------------------------------------------------------
 Center     Atomic      Atomic             Coordinates (Angstroms)
 Number     Number       Type             X           Y           Z
 ---------------------------------------------------------------------
      1          6           0       -2.899502   -1.797625    0.056840
      2          1           0       -2.964406   -2.829239    0.333356
      3          1           0       -2.476346   -1.716842   -0.922605
      4          1           0       -3.878343   -1.365462    0.059231
      5          6           0       -2.006319   -1.051131    1.065091
      6          8           0       -2.239388    0.332920    1.338919
      7          6           0       -1.846251    0.625842    2.682251
      8          1           0       -0.805803    0.408282    2.804873
      9          1           0       -2.020645    1.661461    2.887143
     10          1           0       -2.418138    0.026964    3.359886
     11          8           0       -1.071360   -1.659104    1.648007
     12          1           0       -0.514569   -1.193756    2.276526
 ---------------------------------------------------------------------
                    Distance matrix (angstroms):
                    1          2          3          4          5
     1  C    0.000000
     2  H    1.070000   0.000000
     3  H    1.070000   1.747303   0.000000
     4  H    1.070000   1.747303   1.747303   0.000000
     5  C    1.540000   2.148263   2.148263   2.148263   0.000000
     6  O    2.572683   3.396477   3.061399   2.684824   1.430000
     7  C    3.724958   4.324946   4.345133   3.869745   2.335180
     8  H    4.098938   4.609718   4.604450   4.486114   2.568651
     9  H    4.555028   5.251561   5.112218   4.539867   3.267757
    10  H    3.804070   4.197164   4.624281   3.868510   2.568651
    11  O    2.427572   2.584792   2.930080   3.238764   1.258400
    12  H    3.313544   3.528798   3.789014   4.032475   1.926975
                    6          7          8          9         10
     6  O    0.000000
     7  C    1.430000   0.000000
     8  H    2.051796   1.070000   0.000000
     9  H    2.051796   1.070000   1.747303   0.000000
    10  H    2.051796   1.070000   1.747303   1.747303   0.000000
    11  O    2.329803   2.625089   2.383892   3.669162   2.754481
    12  H    2.486935   2.291053   1.711868   3.285328   2.507469
                   11         12
    11  O    0.000000
    12  H    0.960000   0.000000
 Stoichiometry    C3H7O2(1+)
 Framework group  C1[X(C3H7O2)]
 Deg. of freedom    30
 Full point group                 C1      NOp   1
 Largest Abelian subgroup         C1      NOp   1
 Largest concise Abelian subgroup C1      NOp   1
                         Standard orientation:                         
 ---------------------------------------------------------------------
 Center     Atomic      Atomic             Coordinates (Angstroms)
 Number     Number       Type             X           Y           Z
 ---------------------------------------------------------------------
      1          6           0        1.879807   -0.507935    0.130721
      2          1           0        2.441858    0.138607    0.771799
      3          1           0        2.375142   -0.592089   -0.813981
      4          1           0        1.801803   -1.475895    0.580019
      5          6           0        0.470228    0.075784   -0.078944
      6          8           0       -0.637864   -0.797496   -0.312213
      7          6           0       -1.831752   -0.199998    0.200161
      8          1           0       -2.003452    0.733739   -0.293351
      9          1           0       -2.660883   -0.853432    0.025616
     10          1           0       -1.724249   -0.033224    1.251603
     11          8           0        0.293521    1.321253   -0.044992
     12          1           0       -0.585177    1.685130   -0.175693
 ---------------------------------------------------------------------
 Rotational constants (GHZ):      9.3797526      3.9326756      2.9526951
 Standard basis: 6-31+G(d) (6D, 7F)
 There are   109 symmetry adapted cartesian basis functions of A   symmetry.
 There are   109 symmetry adapted basis functions of A   symmetry.
   109 basis functions,   188 primitive gaussians,   109 cartesian basis functions
    20 alpha electrons       20 beta electrons
       nuclear repulsion energy       189.4961267908 Hartrees.
 NAtoms=   12 NActive=   12 NUniq=   12 SFac= 1.00D+00 NAtFMM=   60 NAOKFM=F Big=F
 Integral buffers will be    131072 words long.
 Raffenetti 2 integral format.
 Two-electron integral symmetry is turned on.
 One-electron integrals computed using PRISM.
 NBasis=   109 RedAO= T EigKep=  1.04D-04  NBF=   109
 NBsUse=   109 1.00D-06 EigRej= -1.00D+00 NBFU=   109
 ExpMin= 4.38D-02 ExpMax= 5.48D+03 ExpMxC= 8.25D+02 IAcc=2 IRadAn=         4 AccDes= 0.00D+00
 Harris functional with IExCor= 3102 and IRadAn=       4 diagonalized for initial guess.
 HarFok:  IExCor= 3102 AccDes= 0.00D+00 IRadAn=         4 IDoV= 1 UseB2=F ITyADJ=14
 ICtDFT=  3500011 ScaDFX=  1.000000  1.000000  1.000000  1.000000
 FoFCou: FMM=F IPFlag=           0 FMFlag=      100000 FMFlg1=           0
         NFxFlg=           0 DoJE=T BraDBF=F KetDBF=T FulRan=T
         wScrn=  0.000000 ICntrl=     500 IOpCl=  0 I1Cent=   200000004 NGrid=           0
         NMat0=    1 NMatS0=      1 NMatT0=    0 NMatD0=    1 NMtDS0=    0 NMtDT0=    0
 Petite list used in FoFCou.
 Keep R1 ints in memory in canonical form, NReq=18960197.
 Requested convergence on RMS density matrix=1.00D-08 within 128 cycles.
 Requested convergence on MAX density matrix=1.00D-06.
 Requested convergence on             energy=1.00D-06.
 No special actions if energy rises.
 SCF Done:  E(RX3LYP) =  -268.563177268     A.U. after   12 cycles
            NFock= 12  Conv=0.61D-08     -V/T= 2.0088

 **********************************************************************

            Population analysis using the SCF density.

 **********************************************************************

 Orbital symmetries:
       Occupied  (A) (A) (A) (A) (A) (A) (A) (A) (A) (A) (A) (A)
                 (A) (A) (A) (A) (A) (A) (A) (A)
       Virtual   (A) (A) (A) (A) (A) (A) (A) (A) (A) (A) (A) (A)
                 (A) (A) (A) (A) (A) (A) (A) (A) (A) (A) (A) (A)
                 (A) (A) (A) (A) (A) (A) (A) (A) (A) (A) (A) (A)
                 (A) (A) (A) (A) (A) (A) (A) (A) (A) (A) (A) (A)
                 (A) (A) (A) (A) (A) (A) (A) (A) (A) (A) (A) (A)
                 (A) (A) (A) (A) (A) (A) (A) (A) (A) (A) (A) (A)
                 (A) (A) (A) (A) (A) (A) (A) (A) (A) (A) (A) (A)
                 (A) (A) (A) (A) (A)
 The electronic state is 1-A.
 Alpha  occ. eigenvalues --  -19.52417 -19.48036 -10.64296 -10.46712 -10.43195
 Alpha  occ. eigenvalues --   -1.41615  -1.29906  -1.01892  -0.92780  -0.91267
 Alpha  occ. eigenvalues --   -0.80790  -0.73801  -0.73421  -0.67157  -0.65682
 Alpha  occ. eigenvalues --   -0.64294  -0.62761  -0.62279  -0.59006  -0.54696
 Alpha virt. eigenvalues --   -0.29154  -0.18731  -0.15492  -0.11649  -0.10763
 Alpha virt. eigenvalues --   -0.09904  -0.09070  -0.08435  -0.07099  -0.06190
 Alpha virt. eigenvalues --   -0.04494  -0.04439  -0.02841  -0.01998  -0.01098
 Alpha virt. eigenvalues --    0.00796   0.01152   0.03347   0.04323   0.04944
 Alpha virt. eigenvalues --    0.05538   0.07192   0.07653   0.10091   0.11904
 Alpha virt. eigenvalues --    0.13150   0.15063   0.15295   0.16637   0.17830
 Alpha virt. eigenvalues --    0.18405   0.19318   0.42442   0.43955   0.46753
 Alpha virt. eigenvalues --    0.48207   0.50363   0.51042   0.52724   0.56869
 Alpha virt. eigenvalues --    0.62342   0.73470   0.76036   0.79064   0.80965
 Alpha virt. eigenvalues --    0.84293   0.87299   0.90244   0.90756   0.92543
 Alpha virt. eigenvalues --    0.94002   0.99571   1.04008   1.06929   1.09905
 Alpha virt. eigenvalues --    1.14398   1.15184   1.18573   1.25492   1.30189
 Alpha virt. eigenvalues --    1.35290   1.45155   1.47067   1.49673   1.50980
 Alpha virt. eigenvalues --    1.62605   1.68298   1.75277   1.81802   1.86838
 Alpha virt. eigenvalues --    1.93977   2.00667   2.04752   2.07737   2.12228
 Alpha virt. eigenvalues --    2.14071   2.21218   2.26582   2.30775   2.38768
 Alpha virt. eigenvalues --    2.54891   2.65912   2.72927   2.78793   3.87387
 Alpha virt. eigenvalues --    3.98262   4.05705   4.13984   4.28047
          Condensed to atoms (all electrons):
               1          2          3          4          5          6
     1  C    6.487272   0.414860   0.291204   0.401154  -0.567830  -0.127292
     2  H    0.414860   0.401966  -0.015464  -0.022572  -0.076402   0.005251
     3  H    0.291204  -0.015464   0.385412  -0.015228   0.046433  -0.002324
     4  H    0.401154  -0.022572  -0.015228   0.397243  -0.061817   0.000101
     5  C   -0.567830  -0.076402   0.046433  -0.061817   5.515358   0.316184
     6  O   -0.127292   0.005251  -0.002324   0.000101   0.316184   8.118798
     7  C   -0.096990  -0.001409   0.002814  -0.001214  -0.055359   0.103367
     8  H    0.014393  -0.000002   0.000011  -0.000003   0.008135  -0.038195
     9  H   -0.000554   0.000002   0.000003  -0.000013   0.004836  -0.032997
    10  H   -0.013785   0.000024  -0.000023   0.000052  -0.029035  -0.032848
    11  O   -0.124347  -0.000388  -0.002354   0.005718   0.327786  -0.066402
    12  H    0.041707   0.000000  -0.000163  -0.000170  -0.032631  -0.012241
               7          8          9         10         11         12
     1  C   -0.096990   0.014393  -0.000554  -0.013785  -0.124347   0.041707
     2  H   -0.001409  -0.000002   0.000002   0.000024  -0.000388   0.000000
     3  H    0.002814   0.000011   0.000003  -0.000023  -0.002354  -0.000163
     4  H   -0.001214  -0.000003  -0.000013   0.000052   0.005718  -0.000170
     5  C   -0.055359   0.008135   0.004836  -0.029035   0.327786  -0.032631
     6  O    0.103367  -0.038195  -0.032997  -0.032848  -0.066402  -0.012241
     7  C    5.334792   0.336829   0.390206   0.414000  -0.007994   0.014994
     8  H    0.336829   0.536934  -0.017224  -0.044429  -0.019899   0.029829
     9  H    0.390206  -0.017224   0.381448  -0.018529   0.000888  -0.000598
    10  H    0.414000  -0.044429  -0.018529   0.451511   0.011191  -0.003281
    11  O   -0.007994  -0.019899   0.000888   0.011191   8.105765   0.165513
    12  H    0.014994   0.029829  -0.000598  -0.003281   0.165513   0.272545
 Mulliken charges:
               1
     1  C   -0.719793
     2  H    0.294132
     3  H    0.309679
     4  H    0.296750
     5  C    0.604343
     6  O   -0.231401
     7  C   -0.434037
     8  H    0.193622
     9  H    0.292533
    10  H    0.265152
    11  O   -0.395476
    12  H    0.524495
 Sum of Mulliken charges =   1.00000
 Mulliken charges with hydrogens summed into heavy atoms:
               1
     1  C    0.180769
     5  C    0.604343
     6  O   -0.231401
     7  C    0.317270
    11  O    0.129019
 Electronic spatial extent (au):  <R**2>=            434.2558
 Charge=              1.0000 electrons
 Dipole moment (field-independent basis, Debye):
    X=             -0.3975    Y=              1.4090    Z=              0.5044  Tot=              1.5484
 Quadrupole moment (field-independent basis, Debye-Ang):
   XX=            -13.4816   YY=            -24.9877   ZZ=            -27.5865
   XY=             -3.7246   XZ=             -0.5422   YZ=             -1.2894
 Traceless Quadrupole moment (field-independent basis, Debye-Ang):
   XX=              8.5370   YY=             -2.9691   ZZ=             -5.5679
   XY=             -3.7246   XZ=             -0.5422   YZ=             -1.2894
 Octapole moment (field-independent basis, Debye-Ang**2):
  XXX=             -1.9171  YYY=              9.1309  ZZZ=             -0.0641  XYY=             -4.4835
  XXY=             -5.5627  XXZ=              1.3305  XZZ=              1.0903  YZZ=              1.0197
  YYZ=             -0.5650  XYZ=              1.0908
 Hexadecapole moment (field-independent basis, Debye-Ang**3):
 XXXX=           -280.5420 YYYY=           -113.8147 ZZZZ=            -41.2435 XXXY=              5.4668
 XXXZ=             -0.4692 YYYX=            -10.7327 YYYZ=             -4.3534 ZZZX=             -2.5619
 ZZZY=              0.0913 XXYY=            -70.8685 XXZZ=            -60.2736 YYZZ=            -28.7384
 XXYZ=              1.0202 YYXZ=              2.9092 ZZXY=             -0.9300
 N-N= 1.894961267908D+02 E-N=-9.966202278480D+02  KE= 2.662221679354D+02
 Calling FoFJK, ICntrl=      2127 FMM=F ISym2X=0 I1Cent= 0 IOpClX= 0 NMat=1 NMatS=1 NMatT=0.
 ***** Axes restored to original set *****
 -------------------------------------------------------------------
 Center     Atomic                   Forces (Hartrees/Bohr)
 Number     Number              X              Y              Z
 -------------------------------------------------------------------
      1        6           0.021425570    0.024854756    0.032274779
      2        1           0.003707210   -0.015988025    0.005089176
      3        1           0.008938991    0.002286795   -0.017510175
      4        1          -0.012863355    0.010110079   -0.000361550
      5        6          -0.036886445    0.074271800   -0.018002229
      6        8           0.001018709   -0.096546849   -0.022065704
      7        6           0.004188439    0.007095096    0.006293153
      8        1           0.019044709    0.007360117    0.006196212
      9        1          -0.002143803    0.014223646   -0.003675905
     10        1          -0.010839184   -0.007485548    0.011011489
     11        8          -0.005415399   -0.032235163   -0.010304999
     12        1           0.009824560    0.012053298    0.011055752
 -------------------------------------------------------------------
 Cartesian Forces:  Max     0.096546849 RMS     0.025110926

 GradGradGradGradGradGradGradGradGradGradGradGradGradGradGradGradGradGrad
 Berny optimization.
 FormGI is forming the generalized inverse of G from B-inverse, IUseBI=4.
 Internal  Forces:  Max     0.075213558 RMS     0.019694774
 Search for a local minimum.
 Step number   1 out of a maximum of   51
 All quantities printed in internal units (Hartrees-Bohrs-Radians)
 Mixed Optimization -- RFO/linear search
 Second derivative matrix not updated -- first step.
 ITU=  0
     Eigenvalues ---    0.00237   0.01114   0.01295   0.01295   0.03565
     Eigenvalues ---    0.07243   0.07243   0.10344   0.10344   0.16000
     Eigenvalues ---    0.16000   0.16000   0.16000   0.16000   0.16000
     Eigenvalues ---    0.16000   0.25000   0.25000   0.25000   0.28519
     Eigenvalues ---    0.37230   0.37230   0.37230   0.37230   0.37230
     Eigenvalues ---    0.37230   0.40989   0.40989   0.55473   0.80209
 RFO step:  Lambda=-4.64286040D-02 EMin= 2.36824087D-03
 Linear search not attempted -- first point.
 Maximum step size (   0.300) exceeded in Quadratic search.
    -- Step size scaled by   0.833
 Iteration  1 RMS(Cart)=  0.15168510 RMS(Int)=  0.01372187
 Iteration  2 RMS(Cart)=  0.02760735 RMS(Int)=  0.00054237
 Iteration  3 RMS(Cart)=  0.00050366 RMS(Int)=  0.00043180
 Iteration  4 RMS(Cart)=  0.00000028 RMS(Int)=  0.00043180
 Variable       Old X    -DE/DX   Delta X   Delta X   Delta X     New X
                                 (Linear)    (Quad)   (Total)
    R1        2.02201   0.01650   0.00000   0.03285   0.03285   2.05485
    R2        2.02201   0.01973   0.00000   0.03927   0.03927   2.06128
    R3        2.02201   0.01586   0.00000   0.03157   0.03157   2.05358
    R4        2.91018  -0.03536   0.00000  -0.08888  -0.08888   2.82130
    R5        2.70231  -0.07521   0.00000  -0.13738  -0.13738   2.56493
    R6        2.37803   0.01337   0.00000   0.01314   0.01314   2.39117
    R7        2.70231   0.02579   0.00000   0.04711   0.04711   2.74942
    R8        2.02201   0.01774   0.00000   0.03532   0.03532   2.05732
    R9        2.02201   0.01341   0.00000   0.02669   0.02669   2.04870
   R10        2.02201   0.01695   0.00000   0.03374   0.03374   2.05575
   R11        1.81414   0.01877   0.00000   0.02603   0.02603   1.84016
    A1        1.91063   0.00134   0.00000   0.00213   0.00199   1.91263
    A2        1.91063   0.00523   0.00000   0.02662   0.02662   1.93726
    A3        1.91063  -0.00364   0.00000  -0.01358  -0.01364   1.89699
    A4        1.91063   0.00107   0.00000   0.00209   0.00201   1.91265
    A5        1.91063  -0.00180   0.00000  -0.01002  -0.01012   1.90051
    A6        1.91063  -0.00220   0.00000  -0.00724  -0.00727   1.90336
    A7        2.09440  -0.01657   0.00000  -0.04659  -0.04662   2.04777
    A8        2.09440  -0.00724   0.00000  -0.02036  -0.02039   2.07400
    A9        2.09440   0.02381   0.00000   0.06695   0.06691   2.16131
   A10        1.91063   0.06665   0.00000   0.18741   0.18741   2.09805
   A11        1.91063   0.01288   0.00000   0.05463   0.05390   1.96454
   A12        1.91063  -0.01437   0.00000  -0.06491  -0.06493   1.84571
   A13        1.91063   0.00283   0.00000   0.01564   0.01462   1.92525
   A14        1.91063  -0.00619   0.00000  -0.03346  -0.03317   1.87746
   A15        1.91063   0.00343   0.00000   0.02759   0.02607   1.93670
   A16        1.91063   0.00144   0.00000   0.00051   0.00018   1.91082
   A17        2.09440  -0.00584   0.00000  -0.02357  -0.02357   2.07082
    D1       -2.61799  -0.00210   0.00000  -0.01933  -0.01909  -2.63708
    D2        0.52360  -0.00105   0.00000  -0.00407  -0.00421   0.51939
    D3        1.57080  -0.00041   0.00000  -0.00749  -0.00732   1.56347
    D4       -1.57080   0.00064   0.00000   0.00777   0.00755  -1.56324
    D5       -0.52360   0.00073   0.00000   0.00052   0.00069  -0.52291
    D6        2.61799   0.00179   0.00000   0.01578   0.01556   2.63356
    D7        2.61799   0.00811   0.00000   0.11401   0.11422   2.73222
    D8       -0.52360   0.00705   0.00000   0.09875   0.09853  -0.42507
    D9        3.14159  -0.00131   0.00000  -0.01555  -0.01588   3.12571
   D10        0.00000  -0.00025   0.00000  -0.00029   0.00003   0.00003
   D11        1.04720   0.01033   0.00000   0.08195   0.08334   1.13054
   D12        3.14159   0.00183   0.00000   0.03467   0.03416  -3.10743
   D13       -1.04720  -0.00348   0.00000   0.00513   0.00425  -1.04295
         Item               Value     Threshold  Converged?
 Maximum Force            0.075214     0.000450     NO 
 RMS     Force            0.019695     0.000300     NO 
 Maximum Displacement     0.519937     0.001800     NO 
 RMS     Displacement     0.170686     0.001200     NO 
 Predicted change in Energy=-2.540019D-02
 GradGradGradGradGradGradGradGradGradGradGradGradGradGradGradGradGradGrad

                          Input orientation:                          
 ---------------------------------------------------------------------
 Center     Atomic      Atomic             Coordinates (Angstroms)
 Number     Number       Type             X           Y           Z
 ---------------------------------------------------------------------
      1          6           0       -2.889413   -1.764851    0.050320
      2          1           0       -2.952270   -2.833044    0.243739
      3          1           0       -2.446098   -1.596596   -0.932008
      4          1           0       -3.872471   -1.303402    0.090232
      5          6           0       -2.015812   -1.141343    1.088113
      6          8           0       -2.261597    0.153210    1.413677
      7          6           0       -1.843552    0.675170    2.705812
      8          1           0       -0.761176    0.683420    2.822588
      9          1           0       -2.183337    1.704353    2.731378
     10          1           0       -2.317551    0.116527    3.509972
     11          8           0       -1.087228   -1.832304    1.599405
     12          1           0       -0.510565   -1.418832    2.266289
 ---------------------------------------------------------------------
                    Distance matrix (angstroms):
                    1          2          3          4          5
     1  C    0.000000
     2  H    1.087382   0.000000
     3  H    1.090783   1.779717   0.000000
     4  H    1.086706   1.791686   1.779179   0.000000
     5  C    1.492969   2.109923   2.115016   2.114052   0.000000
     6  O    2.435539   3.280777   2.932252   2.543254   1.357302
     7  C    3.754885   4.427034   4.331018   3.856491   2.438512
     8  H    4.267188   4.880254   4.704724   4.592754   2.812877
     9  H    4.440945   5.231403   4.938189   4.344585   3.290345
    10  H    3.979422   4.446473   4.762615   4.016043   2.745666
    11  O    2.377412   2.513502   2.882731   3.211685   1.265352
    12  H    3.269429   3.471689   3.742592   4.006365   1.931545
                    6          7          8          9         10
     6  O    0.000000
     7  C    1.454929   0.000000
     8  H    2.125422   1.088689   0.000000
     9  H    2.036788   1.084124   1.753045   0.000000
    10  H    2.097363   1.087856   1.793368   1.773531   0.000000
    11  O    2.314282   2.843165   2.816266   3.871790   2.993643
    12  H    2.502874   2.520888   2.189004   3.573340   2.677549
                   11         12
    11  O    0.000000
    12  H    0.973773   0.000000
 Stoichiometry    C3H7O2(1+)
 Framework group  C1[X(C3H7O2)]
 Deg. of freedom    30
 Full point group                 C1      NOp   1
 Largest Abelian subgroup         C1      NOp   1
 Largest concise Abelian subgroup C1      NOp   1
                         Standard orientation:                         
 ---------------------------------------------------------------------
 Center     Atomic      Atomic             Coordinates (Angstroms)
 Number     Number       Type             X           Y           Z
 ---------------------------------------------------------------------
      1          6           0        1.797352   -0.622541    0.092348
      2          1           0        2.454384   -0.011675    0.706798
      3          1           0        2.237302   -0.750975   -0.897478
      4          1           0        1.632696   -1.595784    0.546899
      5          6           0        0.486326    0.077686   -0.048540
      6          8           0       -0.616319   -0.693780   -0.225411
      7          6           0       -1.931574   -0.183400    0.130163
      8          1           0       -2.229971    0.665358   -0.482873
      9          1           0       -2.625193   -0.992048   -0.070597
     10          1           0       -1.965262    0.069344    1.187715
     11          8           0        0.463192    1.342353   -0.013934
     12          1           0       -0.391571    1.796733   -0.119533
 ---------------------------------------------------------------------
 Rotational constants (GHZ):      9.4124551      3.8782082      2.8852799
 Standard basis: 6-31+G(d) (6D, 7F)
 There are   109 symmetry adapted cartesian basis functions of A   symmetry.
 There are   109 symmetry adapted basis functions of A   symmetry.
   109 basis functions,   188 primitive gaussians,   109 cartesian basis functions
    20 alpha electrons       20 beta electrons
       nuclear repulsion energy       189.0871284448 Hartrees.
 NAtoms=   12 NActive=   12 NUniq=   12 SFac= 1.00D+00 NAtFMM=   60 NAOKFM=F Big=F
 Integral buffers will be    131072 words long.
 Raffenetti 2 integral format.
 Two-electron integral symmetry is turned on.
 One-electron integrals computed using PRISM.
 NBasis=   109 RedAO= T EigKep=  8.89D-05  NBF=   109
 NBsUse=   109 1.00D-06 EigRej= -1.00D+00 NBFU=   109
 Initial guess from the checkpoint file:  "/data/sawal/gaussian/Gau-20116.chk"
 B after Tr=     0.000000    0.000000    0.000000
         Rot=    0.999662   -0.006122    0.005568    0.024658 Ang=  -2.98 deg.
 ExpMin= 4.38D-02 ExpMax= 5.48D+03 ExpMxC= 8.25D+02 IAcc=2 IRadAn=         4 AccDes= 0.00D+00
 Harris functional with IExCor= 3102 and IRadAn=       4 diagonalized for initial guess.
 HarFok:  IExCor= 3102 AccDes= 0.00D+00 IRadAn=         4 IDoV= 1 UseB2=F ITyADJ=14
 ICtDFT=  3500011 ScaDFX=  1.000000  1.000000  1.000000  1.000000
 FoFCou: FMM=F IPFlag=           0 FMFlag=      100000 FMFlg1=           0
         NFxFlg=           0 DoJE=T BraDBF=F KetDBF=T FulRan=T
         wScrn=  0.000000 ICntrl=     500 IOpCl=  0 I1Cent=   200000004 NGrid=           0
         NMat0=    1 NMatS0=      1 NMatT0=    0 NMatD0=    1 NMtDS0=    0 NMtDT0=    0
 Petite list used in FoFCou.
 Keep R1 ints in memory in canonical form, NReq=18960197.
 Requested convergence on RMS density matrix=1.00D-08 within 128 cycles.
 Requested convergence on MAX density matrix=1.00D-06.
 Requested convergence on             energy=1.00D-06.
 No special actions if energy rises.
 SCF Done:  E(RX3LYP) =  -268.588064693     A.U. after   12 cycles
            NFock= 12  Conv=0.29D-08     -V/T= 2.0092
 Calling FoFJK, ICntrl=      2127 FMM=F ISym2X=0 I1Cent= 0 IOpClX= 0 NMat=1 NMatS=1 NMatT=0.
 ***** Axes restored to original set *****
 -------------------------------------------------------------------
 Center     Atomic                   Forces (Hartrees/Bohr)
 Number     Number              X              Y              Z
 -------------------------------------------------------------------
      1        6           0.007006087    0.006913788    0.012478223
      2        1           0.000869130   -0.004152793   -0.001700959
      3        1           0.001457938   -0.000065083   -0.005168106
      4        1          -0.002653543    0.002003246   -0.001853260
      5        6          -0.028027123    0.063131700   -0.003930303
      6        8           0.004512153   -0.061572787   -0.009775397
      7        6           0.006978130    0.006287412    0.005724060
      8        1           0.004998488   -0.001407138   -0.002998999
      9        1          -0.002915139    0.002525696   -0.003074593
     10        1          -0.003036190   -0.003647429    0.000068813
     11        8           0.008252260   -0.015204572    0.006486766
     12        1           0.002557808    0.005187960    0.003743756
 -------------------------------------------------------------------
 Cartesian Forces:  Max     0.063131700 RMS     0.016332615

 GradGradGradGradGradGradGradGradGradGradGradGradGradGradGradGradGradGrad
 Berny optimization.
 Using GEDIIS/GDIIS optimizer.
 FormGI is forming the generalized inverse of G from B-inverse, IUseBI=4.
 Internal  Forces:  Max     0.059453608 RMS     0.010312580
 Search for a local minimum.
 Step number   2 out of a maximum of   51
 All quantities printed in internal units (Hartrees-Bohrs-Radians)
 Mixed Optimization -- RFO/linear search
 Update second derivatives using D2CorX and points    1    2
 DE= -2.49D-02 DEPred=-2.54D-02 R= 9.80D-01
 TightC=F SS=  1.41D+00  RLast= 3.48D-01 DXNew= 5.0454D-01 1.0451D+00
 Trust test= 9.80D-01 RLast= 3.48D-01 DXMaxT set to 5.05D-01
 ITU=  1  0
 Use linear search instead of GDIIS.
     Eigenvalues ---    0.00237   0.01186   0.01248   0.01320   0.03565
     Eigenvalues ---    0.07300   0.07397   0.10245   0.10680   0.15328
     Eigenvalues ---    0.16000   0.16000   0.16000   0.16000   0.16000
     Eigenvalues ---    0.16422   0.23274   0.24999   0.26006   0.28401
     Eigenvalues ---    0.34260   0.37230   0.37230   0.37230   0.37230
     Eigenvalues ---    0.37234   0.39781   0.47075   0.55637   0.80367
 RFO step:  Lambda=-2.20083230D-02 EMin= 2.36826554D-03
 Quartic linear search produced a step of  0.61258.
 Iteration  1 RMS(Cart)=  0.13008064 RMS(Int)=  0.04924113
 Iteration  2 RMS(Cart)=  0.12200661 RMS(Int)=  0.00848154
 Iteration  3 RMS(Cart)=  0.01236028 RMS(Int)=  0.00041111
 Iteration  4 RMS(Cart)=  0.00009156 RMS(Int)=  0.00040871
 Iteration  5 RMS(Cart)=  0.00000001 RMS(Int)=  0.00040871
 Variable       Old X    -DE/DX   Delta X   Delta X   Delta X     New X
                                 (Linear)    (Quad)   (Total)
    R1        2.05485   0.00373   0.02012   0.00533   0.02545   2.08031
    R2        2.06128   0.00524   0.02406   0.00942   0.03348   2.09476
    R3        2.05358   0.00318   0.01934   0.00355   0.02289   2.07647
    R4        2.82130  -0.00849  -0.05444  -0.01803  -0.07247   2.74883
    R5        2.56493  -0.05945  -0.08416  -0.17284  -0.25700   2.30793
    R6        2.39117   0.01754   0.00805   0.02890   0.03694   2.42811
    R7        2.74942   0.00283   0.02886  -0.00321   0.02565   2.77507
    R8        2.05732   0.00463   0.02163   0.00817   0.02980   2.08713
    R9        2.04870   0.00324   0.01635   0.00516   0.02151   2.07021
   R10        2.05575   0.00325   0.02067   0.00321   0.02388   2.07963
   R11        1.84016   0.00628   0.01594   0.00931   0.02525   1.86542
    A1        1.91263  -0.00219   0.00122  -0.02634  -0.02521   1.88742
    A2        1.93726   0.00026   0.01631   0.00714   0.02305   1.96030
    A3        1.89699   0.00170  -0.00836   0.02021   0.01159   1.90858
    A4        1.91265  -0.00164   0.00123  -0.01894  -0.01774   1.89491
    A5        1.90051   0.00047  -0.00620   0.00078  -0.00548   1.89503
    A6        1.90336   0.00144  -0.00446   0.01763   0.01294   1.91630
    A7        2.04777   0.00178  -0.02856   0.02266  -0.00606   2.04171
    A8        2.07400   0.00270  -0.01249   0.02068   0.00803   2.08203
    A9        2.16131  -0.00449   0.04099  -0.04363  -0.00282   2.15849
   A10        2.09805   0.00386   0.11481  -0.02912   0.08569   2.18373
   A11        1.96454  -0.00382   0.03302  -0.04637  -0.01423   1.95031
   A12        1.84571  -0.00399  -0.03977  -0.01640  -0.05694   1.78877
   A13        1.92525  -0.00337   0.00896  -0.03303  -0.02521   1.90005
   A14        1.87746   0.00395  -0.02032   0.04299   0.02212   1.89958
   A15        1.93670   0.00403   0.01597   0.02783   0.04258   1.97928
   A16        1.91082   0.00323   0.00011   0.02705   0.02602   1.93684
   A17        2.07082  -0.00515  -0.01444  -0.03739  -0.05183   2.01900
    D1       -2.63708  -0.00150  -0.01169  -0.03044  -0.04215  -2.67923
    D2        0.51939  -0.00098  -0.00258  -0.00899  -0.01181   0.50758
    D3        1.56347  -0.00013  -0.00449  -0.01090  -0.01530   1.54817
    D4       -1.56324   0.00039   0.00463   0.01054   0.01504  -1.54820
    D5       -0.52291   0.00073   0.00042   0.00119   0.00186  -0.52105
    D6        2.63356   0.00124   0.00953   0.02263   0.03221   2.66576
    D7        2.73222   0.00828   0.06997   0.35462   0.42465  -3.12632
    D8       -0.42507   0.00781   0.06036   0.33264   0.39295  -0.03212
    D9        3.12571  -0.00060  -0.00973  -0.01911  -0.02908   3.09663
   D10        0.00003  -0.00011   0.00002   0.00317   0.00343   0.00346
   D11        1.13054   0.00024   0.05106  -0.00066   0.05087   1.18141
   D12       -3.10743   0.00054   0.02093   0.01654   0.03694  -3.07049
   D13       -1.04295   0.00034   0.00260   0.02208   0.02474  -1.01822
         Item               Value     Threshold  Converged?
 Maximum Force            0.059454     0.000450     NO 
 RMS     Force            0.010313     0.000300     NO 
 Maximum Displacement     0.758323     0.001800     NO 
 RMS     Displacement     0.250375     0.001200     NO 
 Predicted change in Energy=-1.404049D-02
 GradGradGradGradGradGradGradGradGradGradGradGradGradGradGradGradGradGrad

                          Input orientation:                          
 ---------------------------------------------------------------------
 Center     Atomic      Atomic             Coordinates (Angstroms)
 Number     Number       Type             X           Y           Z
 ---------------------------------------------------------------------
      1          6           0       -2.856193   -1.707921    0.040439
      2          1           0       -2.889457   -2.806454    0.103622
      3          1           0       -2.308377   -1.431741   -0.882813
      4          1           0       -3.859507   -1.261801   -0.001283
      5          6           0       -2.129974   -1.180981    1.185366
      6          8           0       -2.407813   -0.046956    1.543663
      7          6           0       -1.775177    0.664612    2.661671
      8          1           0       -0.717307    0.901109    2.449983
      9          1           0       -2.345558    1.599099    2.700834
     10          1           0       -1.916264    0.078161    3.582135
     11          8           0       -1.210298   -1.894715    1.729196
     12          1           0       -0.725145   -1.470103    2.476704
 ---------------------------------------------------------------------
                    Distance matrix (angstroms):
                    1          2          3          4          5
     1  C    0.000000
     2  H    1.100852   0.000000
     3  H    1.108500   1.789007   0.000000
     4  H    1.098819   1.827008   1.792200   0.000000
     5  C    1.454619   2.095029   2.090950   2.099036   0.000000
     6  O    2.284629   3.149687   2.795587   2.443383   1.221304
     7  C    3.697075   4.453485   4.152392   3.891891   2.389889
     8  H    4.145813   4.895883   4.368205   4.534347   2.816022
     9  H    4.274907   5.142979   4.693602   4.216423   3.173636
    10  H    4.076416   4.622572   4.729622   4.290988   2.715808
    11  O    2.365537   2.508652   2.871013   3.226988   1.284902
    12  H    3.245506   3.478735   3.714088   4.001004   1.929946
                    6          7          8          9         10
     6  O    0.000000
     7  C    1.468502   0.000000
     8  H    2.139638   1.104460   0.000000
     9  H    2.013062   1.095506   1.789223   0.000000
    10  H    2.100629   1.100493   1.842962   1.809485   0.000000
    11  O    2.209678   2.781861   2.929028   3.799952   2.797143
    12  H    2.393174   2.386166   2.371375   3.477927   2.244519
                   11         12
    11  O    0.000000
    12  H    0.987135   0.000000
 Stoichiometry    C3H7O2(1+)
 Framework group  C1[X(C3H7O2)]
 Deg. of freedom    30
 Full point group                 C1      NOp   1
 Largest Abelian subgroup         C1      NOp   1
 Largest concise Abelian subgroup C1      NOp   1
                         Standard orientation:                         
 ---------------------------------------------------------------------
 Center     Atomic      Atomic             Coordinates (Angstroms)
 Number     Number       Type             X           Y           Z
 ---------------------------------------------------------------------
      1          6           0        1.768840   -0.580028    0.000500
      2          1           0        2.506840    0.082098    0.478851
      3          1           0        2.073521   -0.731258   -1.054522
      4          1           0        1.708564   -1.561238    0.491415
      5          6           0        0.463133    0.060849    0.018459
      6          8           0       -0.513949   -0.671702    0.002246
      7          6           0       -1.910408   -0.217416   -0.002552
      8          1           0       -2.172014    0.291084   -0.947445
      9          1           0       -2.466220   -1.159522    0.057792
     10          1           0       -2.086296    0.401562    0.890204
     11          8           0        0.392163    1.343647   -0.000708
     12          1           0       -0.519500    1.721286   -0.027042
 ---------------------------------------------------------------------
 Rotational constants (GHZ):      9.8201894      4.1017096      3.0071040
 Standard basis: 6-31+G(d) (6D, 7F)
 There are   109 symmetry adapted cartesian basis functions of A   symmetry.
 There are   109 symmetry adapted basis functions of A   symmetry.
   109 basis functions,   188 primitive gaussians,   109 cartesian basis functions
    20 alpha electrons       20 beta electrons
       nuclear repulsion energy       193.1947285963 Hartrees.
 NAtoms=   12 NActive=   12 NUniq=   12 SFac= 1.00D+00 NAtFMM=   60 NAOKFM=F Big=F
 Integral buffers will be    131072 words long.
 Raffenetti 2 integral format.
 Two-electron integral symmetry is turned on.
 One-electron integrals computed using PRISM.
 NBasis=   109 RedAO= T EigKep=  5.66D-05  NBF=   109
 NBsUse=   109 1.00D-06 EigRej= -1.00D+00 NBFU=   109
 Initial guess from the checkpoint file:  "/data/sawal/gaussian/Gau-20116.chk"
 B after Tr=     0.000000    0.000000    0.000000
         Rot=    0.999653    0.021018    0.000185   -0.015875 Ang=   3.02 deg.
 ExpMin= 4.38D-02 ExpMax= 5.48D+03 ExpMxC= 8.25D+02 IAcc=2 IRadAn=         4 AccDes= 0.00D+00
 Harris functional with IExCor= 3102 and IRadAn=       4 diagonalized for initial guess.
 HarFok:  IExCor= 3102 AccDes= 0.00D+00 IRadAn=         4 IDoV= 1 UseB2=F ITyADJ=14
 ICtDFT=  3500011 ScaDFX=  1.000000  1.000000  1.000000  1.000000
 FoFCou: FMM=F IPFlag=           0 FMFlag=      100000 FMFlg1=           0
         NFxFlg=           0 DoJE=T BraDBF=F KetDBF=T FulRan=T
         wScrn=  0.000000 ICntrl=     500 IOpCl=  0 I1Cent=   200000004 NGrid=           0
         NMat0=    1 NMatS0=      1 NMatT0=    0 NMatD0=    1 NMtDS0=    0 NMtDT0=    0
 Petite list used in FoFCou.
 Keep R1 ints in memory in canonical form, NReq=18960197.
 Requested convergence on RMS density matrix=1.00D-08 within 128 cycles.
 Requested convergence on MAX density matrix=1.00D-06.
 Requested convergence on             energy=1.00D-06.
 No special actions if energy rises.
 SCF Done:  E(RX3LYP) =  -268.592077875     A.U. after   12 cycles
            NFock= 12  Conv=0.94D-08     -V/T= 2.0081
 Calling FoFJK, ICntrl=      2127 FMM=F ISym2X=0 I1Cent= 0 IOpClX= 0 NMat=1 NMatS=1 NMatT=0.
 ***** Axes restored to original set *****
 -------------------------------------------------------------------
 Center     Atomic                   Forces (Hartrees/Bohr)
 Number     Number              X              Y              Z
 -------------------------------------------------------------------
      1        6          -0.006708563   -0.016468160   -0.014462541
      2        1          -0.002137407    0.005212308   -0.003263895
      3        1          -0.002921713   -0.001691529    0.004706883
      4        1           0.004196270   -0.003347361   -0.001064725
      5        6           0.015213596   -0.047250279   -0.020112382
      6        8          -0.014755910    0.074831789    0.026102256
      7        6          -0.001113498    0.009476970    0.005315060
      8        1          -0.006911109   -0.005827970   -0.002025754
      9        1           0.003139167   -0.004335340    0.003497646
     10        1           0.000832830    0.003885386   -0.003824182
     11        8           0.014338245   -0.010102345    0.011328676
     12        1          -0.003171908   -0.004383469   -0.006197042
 -------------------------------------------------------------------
 Cartesian Forces:  Max     0.074831789 RMS     0.017303471

 GradGradGradGradGradGradGradGradGradGradGradGradGradGradGradGradGradGrad
 Berny optimization.
 Using GEDIIS/GDIIS optimizer.
 FormGI is forming the generalized inverse of G from B-inverse, IUseBI=4.
 Internal  Forces:  Max     0.085249592 RMS     0.014608204
 Search for a local minimum.
 Step number   3 out of a maximum of   51
 All quantities printed in internal units (Hartrees-Bohrs-Radians)
 Mixed Optimization -- RFO/linear search
 Update second derivatives using D2CorX and points    2    3
 DE= -4.01D-03 DEPred=-1.40D-02 R= 2.86D-01
 Trust test= 2.86D-01 RLast= 6.64D-01 DXMaxT set to 5.05D-01
 ITU=  0  1  0
 Use linear search instead of GDIIS.
     Eigenvalues ---    0.00237   0.01191   0.01303   0.01384   0.03564
     Eigenvalues ---    0.07062   0.07448   0.10432   0.11070   0.15406
     Eigenvalues ---    0.16000   0.16000   0.16000   0.16000   0.16036
     Eigenvalues ---    0.16356   0.24323   0.25134   0.28194   0.32925
     Eigenvalues ---    0.37194   0.37230   0.37230   0.37230   0.37232
     Eigenvalues ---    0.38944   0.40784   0.55435   0.60129   0.81164
 RFO step:  Lambda=-8.58973052D-03 EMin= 2.36838599D-03
 Quartic linear search produced a step of -0.38905.
 Iteration  1 RMS(Cart)=  0.12746724 RMS(Int)=  0.00959311
 Iteration  2 RMS(Cart)=  0.01308289 RMS(Int)=  0.00014679
 Iteration  3 RMS(Cart)=  0.00013030 RMS(Int)=  0.00013142
 Iteration  4 RMS(Cart)=  0.00000002 RMS(Int)=  0.00013142
 Variable       Old X    -DE/DX   Delta X   Delta X   Delta X     New X
                                 (Linear)    (Quad)   (Total)
    R1        2.08031  -0.00533  -0.00990  -0.00242  -0.01233   2.06798
    R2        2.09476  -0.00579  -0.01303  -0.00117  -0.01420   2.08056
    R3        2.07647  -0.00515  -0.00891  -0.00282  -0.01172   2.06474
    R4        2.74883   0.02077   0.02819   0.02301   0.05121   2.80004
    R5        2.30793   0.08525   0.09999   0.04948   0.14946   2.45739
    R6        2.42811   0.01821  -0.01437   0.02161   0.00724   2.43535
    R7        2.77507   0.00207  -0.00998   0.00732  -0.00266   2.77241
    R8        2.08713  -0.00748  -0.01160  -0.00449  -0.01608   2.07105
    R9        2.07021  -0.00521  -0.00837  -0.00303  -0.01140   2.05881
   R10        2.07963  -0.00537  -0.00929  -0.00299  -0.01228   2.06735
   R11        1.86542  -0.00814  -0.00982  -0.00271  -0.01253   1.85288
    A1        1.88742  -0.00187   0.00981  -0.01627  -0.00645   1.88097
    A2        1.96030  -0.00317  -0.00897  -0.00026  -0.00916   1.95115
    A3        1.90858   0.00518  -0.00451   0.02331   0.01884   1.92742
    A4        1.89491  -0.00094   0.00690  -0.01216  -0.00526   1.88964
    A5        1.89503  -0.00089   0.00213  -0.00647  -0.00433   1.89070
    A6        1.91630   0.00162  -0.00503   0.01082   0.00583   1.92212
    A7        2.04171   0.00928   0.00236   0.02089   0.02327   2.06498
    A8        2.08203  -0.01208  -0.00312  -0.02254  -0.02565   2.05638
    A9        2.15849   0.00286   0.00110   0.00184   0.00295   2.16144
   A10        2.18373   0.00148  -0.03334   0.01904  -0.01430   2.16943
   A11        1.95031  -0.00898   0.00554  -0.03797  -0.03227   1.91803
   A12        1.78877   0.00670   0.02215   0.00815   0.03062   1.81939
   A13        1.90005   0.00183   0.00981  -0.00412   0.00575   1.90580
   A14        1.89958   0.00258  -0.00860   0.01967   0.01152   1.91110
   A15        1.97928   0.00057  -0.01656   0.01128  -0.00534   1.97394
   A16        1.93684  -0.00225  -0.01012   0.00236  -0.00754   1.92930
   A17        2.01900   0.00222   0.02016  -0.00869   0.01147   2.03047
    D1       -2.67923   0.00058   0.01640  -0.01035   0.00606  -2.67317
    D2        0.50758  -0.00071   0.00459  -0.01509  -0.01046   0.49712
    D3        1.54817   0.00042   0.00595  -0.00027   0.00568   1.55385
    D4       -1.54820  -0.00087  -0.00585  -0.00501  -0.01085  -1.55905
    D5       -0.52105   0.00114  -0.00073   0.01201   0.01126  -0.50979
    D6        2.66576  -0.00015  -0.01253   0.00728  -0.00527   2.66049
    D7       -3.12632  -0.00067  -0.16521   0.36853   0.20322  -2.92310
    D8       -0.03212   0.00027  -0.15288   0.37283   0.22005   0.18794
    D9        3.09663   0.00055   0.01131  -0.00708   0.00416   3.10079
   D10        0.00346  -0.00097  -0.00134  -0.01260  -0.01385  -0.01039
   D11        1.18141  -0.00284  -0.01979   0.01352  -0.00584   1.17557
   D12       -3.07049  -0.00011  -0.01437   0.02407   0.00950  -3.06098
   D13       -1.01822   0.00146  -0.00962   0.02908   0.01922  -0.99900
         Item               Value     Threshold  Converged?
 Maximum Force            0.085250     0.000450     NO 
 RMS     Force            0.014608     0.000300     NO 
 Maximum Displacement     0.415691     0.001800     NO 
 RMS     Displacement     0.132368     0.001200     NO 
 Predicted change in Energy=-7.896038D-03
 GradGradGradGradGradGradGradGradGradGradGradGradGradGradGradGradGradGrad

                          Input orientation:                          
 ---------------------------------------------------------------------
 Center     Atomic      Atomic             Coordinates (Angstroms)
 Number     Number       Type             X           Y           Z
 ---------------------------------------------------------------------
      1          6           0       -2.838648   -1.727208    0.000091
      2          1           0       -2.859481   -2.821281    0.011260
      3          1           0       -2.251696   -1.411209   -0.876153
      4          1           0       -3.841759   -1.303289   -0.088614
      5          6           0       -2.172401   -1.210051    1.218347
      6          8           0       -2.500780   -0.026608    1.645736
      7          6           0       -1.755222    0.720778    2.664522
      8          1           0       -0.772039    1.005736    2.273041
      9          1           0       -2.353429    1.615854    2.831673
     10          1           0       -1.696289    0.122288    3.578391
     11          8           0       -1.275618   -1.950409    1.773758
     12          1           0       -0.823710   -1.572293    2.557465
 ---------------------------------------------------------------------
                    Distance matrix (angstroms):
                    1          2          3          4          5
     1  C    0.000000
     2  H    1.094328   0.000000
     3  H    1.100987   1.773473   0.000000
     4  H    1.092615   1.810841   1.777685   0.000000
     5  C    1.481716   2.127251   2.105631   2.122168   0.000000
     6  O    2.390469   3.257356   2.887748   2.536948   1.300397
     7  C    3.776989   4.561290   4.162721   4.003779   2.448176
     8  H    4.111710   4.911123   4.236560   4.509123   2.825439
     9  H    4.407875   5.281949   4.787634   4.389146   3.259039
    10  H    4.186867   4.768861   4.743739   4.481321   2.751658
    11  O    2.374611   2.524567   2.874977   3.236089   1.288732
    12  H    3.259468   3.491059   3.722207   4.022775   1.934793
                    6          7          8          9         10
     6  O    0.000000
     7  C    1.467096   0.000000
     8  H    2.108979   1.095951   0.000000
     9  H    2.031217   1.089473   1.784687   0.000000
    10  H    2.098698   1.093993   1.827200   1.794480   0.000000
    11  O    2.284386   2.856347   3.040011   3.872866   2.780241
    12  H    2.456207   2.477367   2.594186   3.546761   2.162242
                   11         12
    11  O    0.000000
    12  H    0.980504   0.000000
 Stoichiometry    C3H7O2(1+)
 Framework group  C1[X(C3H7O2)]
 Deg. of freedom    30
 Full point group                 C1      NOp   1
 Largest Abelian subgroup         C1      NOp   1
 Largest concise Abelian subgroup C1      NOp   1
                         Standard orientation:                         
 ---------------------------------------------------------------------
 Center     Atomic      Atomic             Coordinates (Angstroms)
 Number     Number       Type             X           Y           Z
 ---------------------------------------------------------------------
      1          6           0        1.799171   -0.608571   -0.041712
      2          1           0        2.580494    0.037359    0.370432
      3          1           0        2.032904   -0.783237   -1.103330
      4          1           0        1.763637   -1.576015    0.464841
      5          6           0        0.479016    0.059136    0.041015
      6          8           0       -0.585182   -0.684900    0.111184
      7          6           0       -1.954284   -0.188284   -0.065735
      8          1           0       -2.103439    0.132790   -1.102929
      9          1           0       -2.582318   -1.054247    0.140745
     10          1           0       -2.145336    0.606549    0.661286
     11          8           0        0.453199    1.347144    0.006401
     12          1           0       -0.433495    1.765168    0.026863
 ---------------------------------------------------------------------
 Rotational constants (GHZ):      9.6135308      3.8891178      2.8812119
 Standard basis: 6-31+G(d) (6D, 7F)
 There are   109 symmetry adapted cartesian basis functions of A   symmetry.
 There are   109 symmetry adapted basis functions of A   symmetry.
   109 basis functions,   188 primitive gaussians,   109 cartesian basis functions
    20 alpha electrons       20 beta electrons
       nuclear repulsion energy       189.6961805256 Hartrees.
 NAtoms=   12 NActive=   12 NUniq=   12 SFac= 1.00D+00 NAtFMM=   60 NAOKFM=F Big=F
 Integral buffers will be    131072 words long.
 Raffenetti 2 integral format.
 Two-electron integral symmetry is turned on.
 One-electron integrals computed using PRISM.
 NBasis=   109 RedAO= T EigKep=  7.15D-05  NBF=   109
 NBsUse=   109 1.00D-06 EigRej= -1.00D+00 NBFU=   109
 Initial guess from the checkpoint file:  "/data/sawal/gaussian/Gau-20116.chk"
 B after Tr=     0.000000    0.000000    0.000000
         Rot=    0.999869    0.011269    0.000623    0.011587 Ang=   1.85 deg.
 ExpMin= 4.38D-02 ExpMax= 5.48D+03 ExpMxC= 8.25D+02 IAcc=2 IRadAn=         4 AccDes= 0.00D+00
 Harris functional with IExCor= 3102 and IRadAn=       4 diagonalized for initial guess.
 HarFok:  IExCor= 3102 AccDes= 0.00D+00 IRadAn=         4 IDoV= 1 UseB2=F ITyADJ=14
 ICtDFT=  3500011 ScaDFX=  1.000000  1.000000  1.000000  1.000000
 FoFCou: FMM=F IPFlag=           0 FMFlag=      100000 FMFlg1=           0
         NFxFlg=           0 DoJE=T BraDBF=F KetDBF=T FulRan=T
         wScrn=  0.000000 ICntrl=     500 IOpCl=  0 I1Cent=   200000004 NGrid=           0
         NMat0=    1 NMatS0=      1 NMatT0=    0 NMatD0=    1 NMtDS0=    0 NMtDT0=    0
 Petite list used in FoFCou.
 Keep R1 ints in memory in canonical form, NReq=18960197.
 Requested convergence on RMS density matrix=1.00D-08 within 128 cycles.
 Requested convergence on MAX density matrix=1.00D-06.
 Requested convergence on             energy=1.00D-06.
 No special actions if energy rises.
 SCF Done:  E(RX3LYP) =  -268.596695511     A.U. after   11 cycles
            NFock= 11  Conv=0.71D-08     -V/T= 2.0092
 Calling FoFJK, ICntrl=      2127 FMM=F ISym2X=0 I1Cent= 0 IOpClX= 0 NMat=1 NMatS=1 NMatT=0.
 ***** Axes restored to original set *****
 -------------------------------------------------------------------
 Center     Atomic                   Forces (Hartrees/Bohr)
 Number     Number              X              Y              Z
 -------------------------------------------------------------------
      1        6          -0.001249082   -0.001789760    0.002975441
      2        1          -0.000528869    0.001535467    0.000438954
      3        1           0.000150252    0.000896333    0.001353911
      4        1           0.000409677   -0.000328377   -0.000323387
      5        6          -0.006440929    0.020102559    0.003746224
      6        8           0.006514143   -0.016203803   -0.013566725
      7        6           0.000117125   -0.000987245    0.003484741
      8        1          -0.001966052   -0.003400200   -0.000722447
      9        1          -0.000492382   -0.001907023    0.000809563
     10        1           0.000415263    0.002555090    0.001041490
     11        8           0.003628542   -0.000054233    0.001713266
     12        1          -0.000557688   -0.000418807   -0.000951031
 -------------------------------------------------------------------
 Cartesian Forces:  Max     0.020102559 RMS     0.005341317

 GradGradGradGradGradGradGradGradGradGradGradGradGradGradGradGradGradGrad
 Berny optimization.
 Using GEDIIS/GDIIS optimizer.
 FormGI is forming the generalized inverse of G from B-inverse, IUseBI=4.
 Internal  Forces:  Max     0.022250778 RMS     0.003957937
 Search for a local minimum.
 Step number   4 out of a maximum of   51
 All quantities printed in internal units (Hartrees-Bohrs-Radians)
 Mixed Optimization -- RFO/linear search
 Update second derivatives using D2CorX and points    3    4
 DE= -4.62D-03 DEPred=-7.90D-03 R= 5.85D-01
 TightC=F SS=  1.41D+00  RLast= 3.48D-01 DXNew= 8.4853D-01 1.0454D+00
 Trust test= 5.85D-01 RLast= 3.48D-01 DXMaxT set to 8.49D-01
 ITU=  1  0  1  0
 Use linear search instead of GDIIS.
     Eigenvalues ---    0.00237   0.01178   0.01309   0.01551   0.03563
     Eigenvalues ---    0.06922   0.07421   0.10574   0.10954   0.15456
     Eigenvalues ---    0.15756   0.16000   0.16000   0.16000   0.16022
     Eigenvalues ---    0.16272   0.24342   0.25041   0.28196   0.33241
     Eigenvalues ---    0.37147   0.37218   0.37230   0.37230   0.37230
     Eigenvalues ---    0.38283   0.41562   0.55304   0.71773   0.80914
 RFO step:  Lambda=-3.32345410D-03 EMin= 2.36839719D-03
 Quartic linear search produced a step of -0.28447.
 Iteration  1 RMS(Cart)=  0.12023186 RMS(Int)=  0.02813321
 Iteration  2 RMS(Cart)=  0.06957420 RMS(Int)=  0.00265374
 Iteration  3 RMS(Cart)=  0.00363842 RMS(Int)=  0.00004577
 Iteration  4 RMS(Cart)=  0.00000569 RMS(Int)=  0.00004569
 Iteration  5 RMS(Cart)=  0.00000000 RMS(Int)=  0.00004569
 Variable       Old X    -DE/DX   Delta X   Delta X   Delta X     New X
                                 (Linear)    (Quad)   (Total)
    R1        2.06798  -0.00152   0.00351  -0.00675  -0.00325   2.06473
    R2        2.08056  -0.00074   0.00404  -0.00579  -0.00175   2.07881
    R3        2.06474  -0.00048   0.00333  -0.00451  -0.00118   2.06356
    R4        2.80004  -0.00322  -0.01457   0.00888  -0.00569   2.79435
    R5        2.45739  -0.02225  -0.04252   0.01515  -0.02736   2.43003
    R6        2.43535   0.00274  -0.00206   0.00563   0.00357   2.43892
    R7        2.77241   0.00032   0.00076   0.00098   0.00174   2.77415
    R8        2.07105  -0.00239   0.00457  -0.00983  -0.00526   2.06579
    R9        2.05881  -0.00117   0.00324  -0.00590  -0.00266   2.05615
   R10        2.06735  -0.00051   0.00349  -0.00472  -0.00123   2.06612
   R11        1.85288  -0.00118   0.00356  -0.00565  -0.00209   1.85080
    A1        1.88097   0.00119   0.00184   0.00465   0.00649   1.88745
    A2        1.95115  -0.00030   0.00260  -0.00415  -0.00153   1.94962
    A3        1.92742   0.00011  -0.00536   0.00726   0.00192   1.92934
    A4        1.88964   0.00025   0.00150  -0.00169  -0.00019   1.88945
    A5        1.89070  -0.00205   0.00123  -0.01105  -0.00981   1.88088
    A6        1.92212   0.00075  -0.00166   0.00447   0.00282   1.92495
    A7        2.06498  -0.00036  -0.00662   0.00636  -0.00037   2.06461
    A8        2.05638   0.00107   0.00730  -0.00706   0.00013   2.05651
    A9        2.16144  -0.00070  -0.00084   0.00156   0.00062   2.16206
   A10        2.16943  -0.00445   0.00407  -0.01290  -0.00883   2.16061
   A11        1.91803  -0.00444   0.00918  -0.02948  -0.02026   1.89777
   A12        1.81939  -0.00041  -0.00871   0.00831  -0.00040   1.81899
   A13        1.90580   0.00433  -0.00164   0.02181   0.02025   1.92605
   A14        1.91110   0.00264  -0.00328   0.01566   0.01234   1.92344
   A15        1.97394  -0.00034   0.00152  -0.00385  -0.00222   1.97172
   A16        1.92930  -0.00184   0.00214  -0.01180  -0.00962   1.91968
   A17        2.03047  -0.00007  -0.00326   0.00387   0.00061   2.03107
    D1       -2.67317   0.00036  -0.00172   0.02567   0.02396  -2.64921
    D2        0.49712  -0.00020   0.00298  -0.00635  -0.00337   0.49375
    D3        1.55385   0.00009  -0.00161   0.02249   0.02088   1.57472
    D4       -1.55905  -0.00048   0.00309  -0.00954  -0.00645  -1.56550
    D5       -0.50979   0.00058  -0.00320   0.02853   0.02532  -0.48448
    D6        2.66049   0.00001   0.00150  -0.00350  -0.00201   2.65848
    D7       -2.92310  -0.00464  -0.05781  -0.27303  -0.33080   3.02928
    D8        0.18794  -0.00400  -0.06260  -0.23907  -0.30170  -0.11377
    D9        3.10079   0.00030  -0.00118   0.01645   0.01530   3.11608
   D10       -0.01039  -0.00031   0.00394  -0.01758  -0.01367  -0.02406
   D11        1.17557  -0.00116   0.00166  -0.04610  -0.04457   1.13101
   D12       -3.06098  -0.00040  -0.00270  -0.03732  -0.03995  -3.10094
   D13       -0.99900  -0.00070  -0.00547  -0.03626  -0.04168  -1.04068
         Item               Value     Threshold  Converged?
 Maximum Force            0.022251     0.000450     NO 
 RMS     Force            0.003958     0.000300     NO 
 Maximum Displacement     0.614179     0.001800     NO 
 RMS     Displacement     0.186346     0.001200     NO 
 Predicted change in Energy=-1.671510D-03
 GradGradGradGradGradGradGradGradGradGradGradGradGradGradGradGradGradGrad

                          Input orientation:                          
 ---------------------------------------------------------------------
 Center     Atomic      Atomic             Coordinates (Angstroms)
 Number     Number       Type             X           Y           Z
 ---------------------------------------------------------------------
      1          6           0       -2.869002   -1.742380    0.029561
      2          1           0       -2.909863   -2.830395    0.120943
      3          1           0       -2.343587   -1.496625   -0.905144
      4          1           0       -3.867739   -1.302949   -0.013683
      5          6           0       -2.098866   -1.156319    1.147593
      6          8           0       -2.385630    0.039181    1.524592
      7          6           0       -1.796240    0.687364    2.702536
      8          1           0       -0.723619    0.813938    2.533763
      9          1           0       -2.286702    1.657593    2.747161
     10          1           0       -2.021299    0.112927    3.605182
     11          8           0       -1.174983   -1.878514    1.686650
     12          1           0       -0.663541   -1.461512    2.410363
 ---------------------------------------------------------------------
                    Distance matrix (angstroms):
                    1          2          3          4          5
     1  C    0.000000
     2  H    1.092610   0.000000
     3  H    1.100058   1.775518   0.000000
     4  H    1.091991   1.807967   1.776302   0.000000
     5  C    1.478706   2.124678   2.095095   2.121078   0.000000
     6  O    2.375442   3.237208   2.874732   2.522746   1.285917
     7  C    3.768192   4.503266   4.252616   3.953516   2.430761
     8  H    4.172345   4.886976   4.448492   4.566856   2.773930
     9  H    4.391382   5.237116   4.826143   4.345887   3.242222
    10  H    4.116532   4.646786   4.799747   4.302351   2.767083
    11  O    2.373642   2.523356   2.868600   3.236254   1.290623
    12  H    3.257479   3.487299   3.717038   4.020948   1.935947
                    6          7          8          9         10
     6  O    0.000000
     7  C    1.468017   0.000000
     8  H    2.093073   1.093170   0.000000
     9  H    2.030694   1.088066   1.789000   0.000000
    10  H    2.113535   1.093344   1.823000   1.786794   0.000000
    11  O    2.273650   2.828730   2.858431   3.855471   2.891860
    12  H    2.449951   2.446638   2.279585   3.532265   2.397907
                   11         12
    11  O    0.000000
    12  H    0.979400   0.000000
 Stoichiometry    C3H7O2(1+)
 Framework group  C1[X(C3H7O2)]
 Deg. of freedom    30
 Full point group                 C1      NOp   1
 Largest Abelian subgroup         C1      NOp   1
 Largest concise Abelian subgroup C1      NOp   1
                         Standard orientation:                         
 ---------------------------------------------------------------------
 Center     Atomic      Atomic             Coordinates (Angstroms)
 Number     Number       Type             X           Y           Z
 ---------------------------------------------------------------------
      1          6           0        1.802381   -0.590760    0.031069
      2          1           0        2.522727    0.047504    0.548291
      3          1           0        2.144419   -0.722689   -1.006106
      4          1           0        1.729828   -1.576459    0.495373
      5          6           0        0.472987    0.055396   -0.010957
      6          8           0       -0.569058   -0.696661   -0.057187
      7          6           0       -1.944689   -0.192359    0.034418
      8          1           0       -2.147559    0.434741   -0.837711
      9          1           0       -2.560582   -1.088822    0.004123
     10          1           0       -2.095016    0.332549    0.981663
     11          8           0        0.429397    1.345240   -0.000503
     12          1           0       -0.460603    1.750882   -0.051287
 ---------------------------------------------------------------------
 Rotational constants (GHZ):      9.6939691      3.9285872      2.9025681
 Standard basis: 6-31+G(d) (6D, 7F)
 There are   109 symmetry adapted cartesian basis functions of A   symmetry.
 There are   109 symmetry adapted basis functions of A   symmetry.
   109 basis functions,   188 primitive gaussians,   109 cartesian basis functions
    20 alpha electrons       20 beta electrons
       nuclear repulsion energy       190.3538951284 Hartrees.
 NAtoms=   12 NActive=   12 NUniq=   12 SFac= 1.00D+00 NAtFMM=   60 NAOKFM=F Big=F
 Integral buffers will be    131072 words long.
 Raffenetti 2 integral format.
 Two-electron integral symmetry is turned on.
 One-electron integrals computed using PRISM.
 NBasis=   109 RedAO= T EigKep=  6.38D-05  NBF=   109
 NBsUse=   109 1.00D-06 EigRej= -1.00D+00 NBFU=   109
 Initial guess from the checkpoint file:  "/data/sawal/gaussian/Gau-20116.chk"
 B after Tr=     0.000000    0.000000    0.000000
         Rot=    0.999817   -0.018613    0.000903   -0.004374 Ang=  -2.19 deg.
 ExpMin= 4.38D-02 ExpMax= 5.48D+03 ExpMxC= 8.25D+02 IAcc=2 IRadAn=         4 AccDes= 0.00D+00
 Harris functional with IExCor= 3102 and IRadAn=       4 diagonalized for initial guess.
 HarFok:  IExCor= 3102 AccDes= 0.00D+00 IRadAn=         4 IDoV= 1 UseB2=F ITyADJ=14
 ICtDFT=  3500011 ScaDFX=  1.000000  1.000000  1.000000  1.000000
 FoFCou: FMM=F IPFlag=           0 FMFlag=      100000 FMFlg1=           0
         NFxFlg=           0 DoJE=T BraDBF=F KetDBF=T FulRan=T
         wScrn=  0.000000 ICntrl=     500 IOpCl=  0 I1Cent=   200000004 NGrid=           0
         NMat0=    1 NMatS0=      1 NMatT0=    0 NMatD0=    1 NMtDS0=    0 NMtDT0=    0
 Petite list used in FoFCou.
 Keep R1 ints in memory in canonical form, NReq=18960197.
 Requested convergence on RMS density matrix=1.00D-08 within 128 cycles.
 Requested convergence on MAX density matrix=1.00D-06.
 Requested convergence on             energy=1.00D-06.
 No special actions if energy rises.
 SCF Done:  E(RX3LYP) =  -268.597688872     A.U. after   12 cycles
            NFock= 12  Conv=0.84D-08     -V/T= 2.0089
 Calling FoFJK, ICntrl=      2127 FMM=F ISym2X=0 I1Cent= 0 IOpClX= 0 NMat=1 NMatS=1 NMatT=0.
 ***** Axes restored to original set *****
 -------------------------------------------------------------------
 Center     Atomic                   Forces (Hartrees/Bohr)
 Number     Number              X              Y              Z
 -------------------------------------------------------------------
      1        6           0.001797227    0.001273886   -0.001840872
      2        1           0.000416956    0.000436929    0.000299040
      3        1          -0.000512184   -0.000658995   -0.000540302
      4        1           0.000430202   -0.000083859    0.000093303
      5        6          -0.005061635    0.007581763    0.002456085
      6        8          -0.002855292   -0.008601430    0.000223779
      7        6           0.004250745    0.002296747   -0.001319348
      8        1           0.000099875    0.001060790    0.001322244
      9        1           0.000391986   -0.000117279   -0.000501224
     10        1          -0.000615168   -0.001692977   -0.001798056
     11        8           0.001745204   -0.001451703    0.001975646
     12        1          -0.000087917   -0.000043872   -0.000370296
 -------------------------------------------------------------------
 Cartesian Forces:  Max     0.008601430 RMS     0.002501531

 GradGradGradGradGradGradGradGradGradGradGradGradGradGradGradGradGradGrad
 Berny optimization.
 Using GEDIIS/GDIIS optimizer.
 FormGI is forming the generalized inverse of G from B-inverse, IUseBI=4.
 Internal  Forces:  Max     0.007451254 RMS     0.001770990
 Search for a local minimum.
 Step number   5 out of a maximum of   51
 All quantities printed in internal units (Hartrees-Bohrs-Radians)
 Mixed Optimization -- RFO/linear search
 Update second derivatives using D2CorX and points    2    3    4    5
 DE= -9.93D-04 DEPred=-1.67D-03 R= 5.94D-01
 TightC=F SS=  1.41D+00  RLast= 4.58D-01 DXNew= 1.4270D+00 1.3750D+00
 Trust test= 5.94D-01 RLast= 4.58D-01 DXMaxT set to 1.37D+00
 ITU=  1  1  0  1  0
 Use linear search instead of GDIIS.
     Eigenvalues ---    0.00236   0.01178   0.01317   0.02158   0.03557
     Eigenvalues ---    0.06906   0.07485   0.10544   0.10876   0.15181
     Eigenvalues ---    0.15974   0.16000   0.16000   0.16005   0.16227
     Eigenvalues ---    0.17951   0.24171   0.24746   0.28183   0.33090
     Eigenvalues ---    0.36561   0.37211   0.37230   0.37230   0.37236
     Eigenvalues ---    0.37596   0.41640   0.55142   0.67959   0.80186
 RFO step:  Lambda=-3.03879944D-04 EMin= 2.36473897D-03
 Quartic linear search produced a step of -0.32572.
 Iteration  1 RMS(Cart)=  0.06518463 RMS(Int)=  0.00249725
 Iteration  2 RMS(Cart)=  0.00336481 RMS(Int)=  0.00002357
 Iteration  3 RMS(Cart)=  0.00000484 RMS(Int)=  0.00002342
 Iteration  4 RMS(Cart)=  0.00000000 RMS(Int)=  0.00002342
 Variable       Old X    -DE/DX   Delta X   Delta X   Delta X     New X
                                 (Linear)    (Quad)   (Total)
    R1        2.06473  -0.00043   0.00106  -0.00199  -0.00093   2.06380
    R2        2.07881   0.00007   0.00057  -0.00026   0.00031   2.07912
    R3        2.06356  -0.00043   0.00038  -0.00105  -0.00066   2.06290
    R4        2.79435   0.00001   0.00185  -0.00120   0.00065   2.79500
    R5        2.43003  -0.00745   0.00891  -0.01758  -0.00867   2.42136
    R6        2.43892   0.00269  -0.00116   0.00610   0.00494   2.44386
    R7        2.77415   0.00050  -0.00057   0.00349   0.00293   2.77708
    R8        2.06579   0.00002   0.00171  -0.00248  -0.00077   2.06502
    R9        2.05615  -0.00030   0.00087  -0.00170  -0.00084   2.05531
   R10        2.06612  -0.00047   0.00040  -0.00110  -0.00070   2.06542
   R11        1.85080  -0.00034   0.00068  -0.00132  -0.00064   1.85016
    A1        1.88745  -0.00039  -0.00211   0.00042  -0.00170   1.88576
    A2        1.94962   0.00036   0.00050  -0.00038   0.00012   1.94974
    A3        1.92934  -0.00102  -0.00062  -0.00143  -0.00205   1.92728
    A4        1.88945  -0.00033   0.00006  -0.00095  -0.00089   1.88856
    A5        1.88088   0.00165   0.00320   0.00115   0.00435   1.88523
    A6        1.92495  -0.00020  -0.00092   0.00124   0.00032   1.92526
    A7        2.06461   0.00114   0.00012   0.00369   0.00374   2.06835
    A8        2.05651  -0.00022  -0.00004  -0.00439  -0.00451   2.05200
    A9        2.16206  -0.00092  -0.00020   0.00068   0.00040   2.16246
   A10        2.16061  -0.00219   0.00288  -0.00257   0.00031   2.16091
   A11        1.89777   0.00330   0.00660   0.00054   0.00713   1.90490
   A12        1.81899  -0.00010   0.00013  -0.00002   0.00010   1.81909
   A13        1.92605  -0.00428  -0.00660  -0.00618  -0.01279   1.91326
   A14        1.92344  -0.00065  -0.00402   0.00516   0.00113   1.92457
   A15        1.97172   0.00028   0.00072   0.00088   0.00159   1.97331
   A16        1.91968   0.00140   0.00313  -0.00047   0.00265   1.92232
   A17        2.03107  -0.00009  -0.00020  -0.00047  -0.00067   2.03040
    D1       -2.64921  -0.00028  -0.00780   0.01219   0.00439  -2.64482
    D2        0.49375   0.00058   0.00110   0.03034   0.03143   0.52518
    D3        1.57472  -0.00022  -0.00680   0.01181   0.00501   1.57974
    D4       -1.56550   0.00064   0.00210   0.02995   0.03205  -1.53345
    D5       -0.48448  -0.00068  -0.00825   0.01158   0.00334  -0.48114
    D6        2.65848   0.00018   0.00066   0.02972   0.03037   2.68886
    D7        3.02928   0.00354   0.10775   0.02124   0.12902  -3.12488
    D8       -0.11377   0.00263   0.09827   0.00190   0.10014  -0.01363
    D9        3.11608  -0.00060  -0.00498  -0.01320  -0.01815   3.09793
   D10       -0.02406   0.00031   0.00445   0.00605   0.01047  -0.01359
   D11        1.13101  -0.00002   0.01452  -0.00759   0.00693   1.13793
   D12       -3.10094   0.00071   0.01301  -0.00140   0.01161  -3.08933
   D13       -1.04068   0.00022   0.01357  -0.00496   0.00861  -1.03206
         Item               Value     Threshold  Converged?
 Maximum Force            0.007451     0.000450     NO 
 RMS     Force            0.001771     0.000300     NO 
 Maximum Displacement     0.219105     0.001800     NO 
 RMS     Displacement     0.065408     0.001200     NO 
 Predicted change in Energy=-5.006816D-04
 GradGradGradGradGradGradGradGradGradGradGradGradGradGradGradGradGradGrad

                          Input orientation:                          
 ---------------------------------------------------------------------
 Center     Atomic      Atomic             Coordinates (Angstroms)
 Number     Number       Type             X           Y           Z
 ---------------------------------------------------------------------
      1          6           0       -2.859658   -1.736972    0.019133
      2          1           0       -2.901291   -2.825883    0.091669
      3          1           0       -2.300731   -1.477225   -0.892250
      4          1           0       -3.856699   -1.298805   -0.055696
      5          6           0       -2.135266   -1.169837    1.177238
      6          8           0       -2.437667    0.012208    1.568553
      7          6           0       -1.779683    0.695383    2.691029
      8          1           0       -0.731778    0.873535    2.437479
      9          1           0       -2.312061    1.639784    2.778240
     10          1           0       -1.905354    0.106866    3.603413
     11          8           0       -1.207104   -1.892255    1.714909
     12          1           0       -0.713780   -1.484490    2.455799
 ---------------------------------------------------------------------
                    Distance matrix (angstroms):
                    1          2          3          4          5
     1  C    0.000000
     2  H    1.092117   0.000000
     3  H    1.100221   1.774161   0.000000
     4  H    1.091641   1.807343   1.775582   0.000000
     5  C    1.479052   2.123144   2.098725   2.121342   0.000000
     6  O    2.374534   3.232784   2.879707   2.524003   1.281329
[...]
      5        6           0.000003743   -0.000000536   -0.000000557
      6        8          -0.000003690    0.000000145    0.000000120
      7        6           0.000000679    0.000000594    0.000002530
      8        1          -0.000000733    0.000001632   -0.000002274
      9        1          -0.000001632   -0.000000223   -0.000001138
     10        1           0.000001222    0.000000305   -0.000000616
     11        8           0.000000035    0.000000266   -0.000001511
     12        1           0.000001766    0.000002423   -0.000001526
 -------------------------------------------------------------------
 Cartesian Forces:  Max     0.000009576 RMS     0.000002702
 FormGI is forming the generalized inverse of G from B-inverse, IUseBI=4.

 GradGradGradGradGradGradGradGradGradGradGradGradGradGradGradGradGradGrad
 Berny optimization.
 Internal  Forces:  Max     0.000003348 RMS     0.000001291
 Search for a local minimum.
 Step number   1 out of a maximum of    2
 All quantities printed in internal units (Hartrees-Bohrs-Radians)
 Second derivative matrix not updated -- analytic derivatives used.
 ITU=  0
     Eigenvalues ---    0.00007   0.00296   0.01569   0.02276   0.03845
     Eigenvalues ---    0.05355   0.05543   0.08404   0.08761   0.12255
     Eigenvalues ---    0.13149   0.14326   0.14523   0.15156   0.18803
     Eigenvalues ---    0.18832   0.20360   0.22115   0.27573   0.31476
     Eigenvalues ---    0.33979   0.34591   0.34887   0.35233   0.36047
     Eigenvalues ---    0.36398   0.36645   0.47943   0.54742   0.68176
 Angle between quadratic step and forces=  83.98 degrees.
 Linear search not attempted -- first point.
 Iteration  1 RMS(Cart)=  0.00023057 RMS(Int)=  0.00000004
 Iteration  2 RMS(Cart)=  0.00000004 RMS(Int)=  0.00000000
 Variable       Old X    -DE/DX   Delta X   Delta X   Delta X     New X
                                 (Linear)    (Quad)   (Total)
    R1        2.07049   0.00000   0.00000   0.00001   0.00001   2.07050
    R2        2.07495   0.00000   0.00000  -0.00002  -0.00002   2.07493
    R3        2.05933   0.00000   0.00000   0.00001   0.00001   2.05934
    R4        2.79420   0.00000   0.00000   0.00000   0.00000   2.79420
    R5        2.41517   0.00000   0.00000   0.00000   0.00000   2.41517
    R6        2.44748   0.00000   0.00000   0.00000   0.00000   2.44748
    R7        2.77958   0.00000   0.00000   0.00001   0.00001   2.77959
    R8        2.06502   0.00000   0.00000   0.00000   0.00000   2.06502
    R9        2.05508   0.00000   0.00000   0.00000   0.00000   2.05508
   R10        2.06501   0.00000   0.00000   0.00000   0.00000   2.06501
   R11        1.84901   0.00000   0.00000   0.00000   0.00000   1.84901
    A1        1.86914   0.00000   0.00000   0.00004   0.00004   1.86917
    A2        1.93656   0.00000   0.00000  -0.00007  -0.00007   1.93649
    A3        1.91006   0.00000   0.00000  -0.00004  -0.00004   1.91002
    A4        1.91965   0.00000   0.00000   0.00004   0.00004   1.91969
    A5        1.89735   0.00000   0.00000   0.00005   0.00005   1.89740
    A6        1.92972   0.00000   0.00000  -0.00001  -0.00001   1.92971
    A7        2.07473   0.00000   0.00000   0.00000   0.00000   2.07473
    A8        2.04679   0.00000   0.00000   0.00000   0.00000   2.04679
    A9        2.16164   0.00000   0.00000   0.00000   0.00000   2.16165
   A10        2.15449   0.00000   0.00000   0.00000   0.00000   2.15449
   A11        1.90710   0.00000   0.00000   0.00000   0.00000   1.90711
   A12        1.81806   0.00000   0.00000  -0.00001  -0.00001   1.81805
   A13        1.90674   0.00000   0.00000  -0.00001  -0.00001   1.90673
   A14        1.92492   0.00000   0.00000   0.00000   0.00000   1.92492
   A15        1.97546   0.00000   0.00000   0.00001   0.00001   1.97547
   A16        1.92482   0.00000   0.00000   0.00001   0.00001   1.92484
   A17        2.03119   0.00000   0.00000   0.00000   0.00000   2.03118
    D1       -2.25351   0.00000   0.00000   0.00059   0.00059  -2.25292
    D2        0.89467   0.00000   0.00000   0.00053   0.00053   0.89520
    D3        1.99366   0.00000   0.00000   0.00054   0.00054   1.99420
    D4       -1.14134   0.00000   0.00000   0.00048   0.00048  -1.14086
    D5       -0.11524   0.00000   0.00000   0.00047   0.00047  -0.11478
    D6        3.03293   0.00000   0.00000   0.00041   0.00041   3.03334
    D7       -3.13071   0.00000   0.00000  -0.00006  -0.00006  -3.13077
    D8        0.00384   0.00000   0.00000   0.00000   0.00000   0.00384
    D9        3.12925   0.00000   0.00000   0.00007   0.00007   3.12932
   D10       -0.00540   0.00000   0.00000   0.00001   0.00001  -0.00539
   D11        1.08310   0.00000   0.00000  -0.00014  -0.00014   1.08297
   D12        3.13993   0.00000   0.00000  -0.00014  -0.00014   3.13978
   D13       -1.08672   0.00000   0.00000  -0.00014  -0.00014  -1.08686
         Item               Value     Threshold  Converged?
 Maximum Force            0.000003     0.000450     YES
 RMS     Force            0.000001     0.000300     YES
 Maximum Displacement     0.000738     0.001800     YES
 RMS     Displacement     0.000231     0.001200     YES
 Predicted change in Energy=-5.505856D-10
 Optimization completed.
    -- Stationary point found.
                           ----------------------------
                           !   Optimized Parameters   !
                           ! (Angstroms and Degrees)  !
 --------------------------                            --------------------------
 ! Name  Definition              Value          Derivative Info.                !
 --------------------------------------------------------------------------------
 ! R1    R(1,2)                  1.0957         -DE/DX =    0.0                 !
 ! R2    R(1,3)                  1.098          -DE/DX =    0.0                 !
 ! R3    R(1,4)                  1.0898         -DE/DX =    0.0                 !
 ! R4    R(1,5)                  1.4786         -DE/DX =    0.0                 !
 ! R5    R(5,6)                  1.2781         -DE/DX =    0.0                 !
 ! R6    R(5,11)                 1.2951         -DE/DX =    0.0                 !
 ! R7    R(6,7)                  1.4709         -DE/DX =    0.0                 !
 ! R8    R(7,8)                  1.0928         -DE/DX =    0.0                 !
 ! R9    R(7,9)                  1.0875         -DE/DX =    0.0                 !
 ! R10   R(7,10)                 1.0928         -DE/DX =    0.0                 !
 ! R11   R(11,12)                0.9785         -DE/DX =    0.0                 !
 ! A1    A(2,1,3)              107.0937         -DE/DX =    0.0                 !
 ! A2    A(2,1,4)              110.9566         -DE/DX =    0.0                 !
 ! A3    A(2,1,5)              109.4387         -DE/DX =    0.0                 !
 ! A4    A(3,1,4)              109.9879         -DE/DX =    0.0                 !
 ! A5    A(3,1,5)              108.71           -DE/DX =    0.0                 !
 ! A6    A(4,1,5)              110.5646         -DE/DX =    0.0                 !
 ! A7    A(1,5,6)              118.8735         -DE/DX =    0.0                 !
 ! A8    A(1,5,11)             117.2724         -DE/DX =    0.0                 !
 ! A9    A(6,5,11)             123.853          -DE/DX =    0.0                 !
 ! A10   A(5,6,7)              123.4431         -DE/DX =    0.0                 !
 ! A11   A(6,7,8)              109.269          -DE/DX =    0.0                 !
 ! A12   A(6,7,9)              104.1671         -DE/DX =    0.0                 !
 ! A13   A(6,7,10)             109.248          -DE/DX =    0.0                 !
 ! A14   A(8,7,9)              110.29           -DE/DX =    0.0                 !
 ! A15   A(8,7,10)             113.1855         -DE/DX =    0.0                 !
 ! A16   A(9,7,10)             110.2842         -DE/DX =    0.0                 !
 ! A17   A(5,11,12)            116.3784         -DE/DX =    0.0                 !
 ! D1    D(2,1,5,6)           -129.1165         -DE/DX =    0.0                 !
 ! D2    D(2,1,5,11)            51.2609         -DE/DX =    0.0                 !
 ! D3    D(3,1,5,6)            114.2285         -DE/DX =    0.0                 !
 ! D4    D(3,1,5,11)           -65.3941         -DE/DX =    0.0                 !
 ! D5    D(4,1,5,6)             -6.603          -DE/DX =    0.0                 !
 ! D6    D(4,1,5,11)           173.7743         -DE/DX =    0.0                 !
 ! D7    D(1,5,6,7)           -179.3762         -DE/DX =    0.0                 !
 ! D8    D(11,5,6,7)             0.2199         -DE/DX =    0.0                 !
 ! D9    D(1,5,11,12)          179.2928         -DE/DX =    0.0                 !
 ! D10   D(6,5,11,12)           -0.3093         -DE/DX =    0.0                 !
 ! D11   D(5,6,7,8)             62.0572         -DE/DX =    0.0                 !
 ! D12   D(5,6,7,9)            179.9047         -DE/DX =    0.0                 !
 ! D13   D(5,6,7,10)           -62.2644         -DE/DX =    0.0                 !
 --------------------------------------------------------------------------------
 GradGradGradGradGradGradGradGradGradGradGradGradGradGradGradGradGradGrad

 1\1\GINC-H17\Freq\RX3LYP\6-31+G(d)\C3H7O2(1+)\SAWAL\26-Sep-2015\0\\#N 
 Geom=AllCheck Guess=TCheck SCRF=Check GenChk RX3LYP/6-31+G(d) Freq\\Ti
 tle Card Required\\1,1\C,-2.8629859167,-1.7284365555,0.0162894736\H,-3
 .140816131,-2.7605555586,0.2571342784\H,-2.1999378145,-1.7683246264,-0
 .8580193442\H,-3.7449925248,-1.130544879,-0.2120633373\C,-2.1174482567
 ,-1.1420566071,1.1506010096\O,-2.4877552369,-0.009607834,1.6130457123\
 C,-1.81170123,0.6709795238,2.7280666531\H,-0.7806663142,0.8937640783,2
 .4426596297\H,-2.3745196397,1.5923953347,2.8580124043\H,-1.8854960021,
 0.0521909895,3.6257161134\O,-1.1126259046,-1.8162725213,1.6123131896\H
 ,-0.622126189,-1.4112226945,2.3557610475\\Version=ES64L-G09RevD.01\Sta
 te=1-A\HF=-268.5983102\RMSD=3.724e-09\RMSF=2.702e-06\ZeroPoint=0.10226
 16\Thermal=0.1086879\Dipole=0.4115846,0.2317009,0.5222901\DipoleDeriv=
 -0.0540931,-0.0127585,0.0007316,-0.1062323,-0.1895783,-0.1906638,-0.09
 94609,-0.1367584,-0.2947441,0.1191419,-0.0053575,-0.0525327,0.0213421,
 0.120825,0.0598583,-0.0160857,0.0391084,0.0935465,0.0444403,-0.0385751
 ,-0.0211513,-0.0052534,0.1549735,0.0169502,0.0113118,0.0030203,0.14690
 94,0.0972483,0.0197099,-0.0116611,0.0349466,0.0702921,-0.0191171,0.008
 823,-0.0234912,0.1178843,1.127594,-0.5811486,0.2711672,-0.3655152,1.60
 72418,0.5240257,0.4241541,0.325055,1.0660313,-0.385421,0.1205948,-0.07
 22299,0.078934,-1.1706556,-0.6172222,-0.1040824,-0.5731045,-0.7236387,
 0.2684602,0.2036103,0.1441564,0.1408302,0.4299779,0.2478334,0.1002698,
 0.3018332,0.5796553,0.0157958,-0.0275896,0.0019797,0.031275,0.0917311,
 -0.0406471,0.059242,-0.0589305,-0.0016467,0.0973691,0.027863,-0.016254
 7,-0.0054074,0.1069833,-0.0256425,-0.0397745,0.0055041,0.1028005,0.085
 3528,-0.0659326,-0.0337811,-0.0256585,-0.0207923,0.0495661,-0.0199903,
 -0.0229787,0.0428386,-0.8388649,0.4051415,-0.2322457,0.2316351,-0.5308
 025,0.0492514,-0.3551971,0.2071206,-0.4789681,0.4229767,-0.0455577,0.0
 218216,-0.0308963,0.329804,-0.0541924,0.0307903,-0.0663783,0.3493317\P
 olar=35.7580902,-1.2372654,42.7791696,4.9093672,8.3155567,40.6079143\P
 G=C01 [X(C3H7O2)]\NImag=0\\0.58230087,-0.05007570,0.57811270,-0.002965
 88,-0.02587700,0.50701028,-0.06455510,-0.06459512,0.00827699,0.0645407
 4,-0.06539935,-0.28781654,0.06028972,0.07295480,0.31148510,0.01097075,
 0.06130135,-0.05594044,-0.01283958,-0.06119887,0.06283997,-0.14621915,
 0.00578270,0.12740308,-0.00534503,0.00097362,0.00685527,0.15343160,0.0
 0752619,-0.03725112,-0.00715059,-0.01820079,0.00172776,0.02567231,-0.0
 0504923,0.04287055,0.12811133,-0.00745854,-0.21455719,0.00404668,0.000
 01546,-0.00485232,-0.13959121,0.01097673,0.23463282,-0.23655290,0.1253
 5747,-0.05087082,0.01068618,-0.00494057,0.00284570,-0.01267615,0.00866
 348,-0.00471741,0.25171491,0.13187040,-0.13970206,0.03268671,0.0244049
 7,-0.01180490,0.00492750,-0.00117370,-0.00064330,-0.00010909,-0.137697
 23,0.14352869,-0.04523208,0.02785312,-0.06001676,-0.00455524,0.0026712
 1,-0.00236914,0.02050086,-0.01482957,0.00857283,0.05489802,-0.03181046
 ,0.06431034,-0.12904172,-0.02577668,-0.05177116,-0.00576744,-0.0046024
 9,-0.00835805,0.01523500,0.00832050,0.01567875,-0.01419933,-0.01461620
 ,-0.02185481,0.57584659,-0.03177465,-0.10309270,-0.03607106,-0.0156204
 5,-0.01485508,-0.02955110,0.00319136,-0.00399804,-0.00145943,0.0086245
 6,0.00876029,0.01785654,-0.17261120,0.69337731,-0.05858177,-0.03257067
 ,-0.16388675,0.00875519,-0.00207822,0.00675451,-0.01433172,-0.01502236
 ,-0.02584506,-0.00089379,-0.00037169,-0.00719377,0.20173550,0.16983626
 ,0.54100632,0.01243019,-0.01076662,-0.00472256,-0.00023706,-0.00212831
 ,-0.00186854,-0.00098867,-0.00195453,-0.00207931,0.00131727,-0.0001477
 3,0.00111733,-0.12831612,0.07877286,0.00151595,0.23159396,0.00648884,-
 0.02735615,-0.02339332,-0.00072579,0.00102206,-0.00214944,-0.00317547,
 -0.00128444,0.00047895,0.00082180,-0.00040337,0.00116760,0.09300475,-0
 .37554979,-0.13094429,-0.10650536,0.54791704,0.00648394,-0.03863615,-0
 .01099803,-0.00172101,-0.00046764,-0.00475228,-0.00145430,-0.00166186,
 -0.00075131,0.00178522,-0.00050444,0.00126720,0.01226941,-0.14428544,-
 0.16172874,0.06284121,0.23213027,0.30774644,0.00305211,0.00591120,-0.0
 0270071,0.00049744,0.00005676,0.00115285,-0.00038980,-0.00089182,-0.00
 060619,-0.00000066,-0.00022862,0.00008798,0.00761721,-0.00124279,0.008
 27469,-0.09606547,-0.02009751,-0.04240786,0.57529297,0.00385474,0.0040
 9657,-0.00042107,0.00024263,-0.00004933,0.00036627,-0.00043918,-0.0009
 0179,-0.00072140,-0.00039652,0.00013725,-0.00010032,-0.00072517,-0.042
 75076,-0.02981443,-0.00928226,-0.07186940,-0.01281326,-0.06088189,0.57
 393431,-0.00357094,0.00000768,0.00785879,-0.00000346,-0.00040997,-0.00
 101051,0.00098961,0.00067132,0.00028756,-0.00023799,0.00022391,-0.0004
 3602,0.00837970,-0.03031859,-0.01576605,-0.03484423,-0.02275317,-0.114
 70585,-0.08528600,-0.08972807,0.47668424,0.00020561,-0.00017620,-0.000
 36874,0.00001638,-0.00003662,0.00002537,-0.00004904,-0.00010208,0.0000
 4340,0.00005019,-0.00002482,0.00012421,-0.00180004,0.00409221,0.000771
 10,-0.01066213,-0.00763791,-0.00656461,-0.29589899,-0.04820430,0.07493
 609,0.31608086,0.00100538,0.00012908,-0.00086035,0.00000805,0.00000847
 ,0.00012261,-0.00020189,-0.00018428,-0.00019203,0.00005801,0.00001827,
 0.00012342,-0.00556098,0.00391313,-0.00050457,-0.01674927,-0.00998354,
 -0.00149469,-0.04557624,-0.06184044,0.01599768,0.05640219,0.06308872,0
 .00126230,0.00042799,-0.00147149,0.00004145,0.00006837,0.00015627,-0.0
 0026993,-0.00031816,-0.00020803,0.00006510,-0.00004327,0.00013759,-0.0
 0457543,0.00402650,0.00217562,-0.03301870,-0.01507171,-0.00249063,0.08
 431440,0.01854986,-0.07609149,-0.07619515,-0.01124811,0.07819881,0.000
 52248,-0.00048051,-0.00012370,-0.00003334,-0.00002590,-0.00010899,-0.0
 0011971,-0.00007215,-0.00009004,0.00004360,0.00002523,0.00003374,-0.00
 237978,-0.00159069,-0.00335914,0.00776813,-0.02276727,-0.00899051,-0.1
 3613478,0.14228255,0.02266061,-0.01257568,0.02560928,0.00253345,0.1389
 6931,0.00024543,-0.00023428,-0.00010205,0.00000208,-0.00002405,-0.0000
 6281,-0.00006412,-0.00005271,-0.00006283,0.00002306,0.00001526,0.00000
 524,-0.00178302,0.00039222,-0.00139339,0.00424796,-0.01530124,-0.00697
 167,0.12968830,-0.25806716,-0.02549534,-0.00419406,0.00975119,0.002042
 83,-0.13772403,0.27560423,0.00039863,-0.00084098,0.00008343,-0.0001163
 9,-0.00004107,-0.00023538,-0.00006107,-0.00008902,-0.00004917,0.000025
 25,0.00000826,0.00006762,-0.00347155,-0.00119499,-0.00412315,0.0102063
 9,-0.03219703,-0.01329878,0.01371118,-0.01373051,-0.04894945,0.0056523
 0,-0.00742921,0.00049768,-0.01307895,0.03328100,0.05950280,-0.00048982
 ,-0.00071754,0.00038933,-0.00000065,-0.00002433,-0.00017478,0.00001659
 ,0.00008693,0.00008884,0.00006654,0.00002505,-0.00001986,0.00029048,0.
 00301932,0.00080625,-0.00281969,0.00438406,-0.02068342,-0.05510539,-0.
 01546855,0.02400175,0.00297701,-0.01679458,0.02452029,0.00334226,0.009
 52862,-0.01431696,0.05156302,-0.00066116,-0.00117580,0.00094111,-0.000
 15642,-0.00011299,-0.00032107,0.00007380,0.00014890,0.00012974,0.00003
 079,0.00002554,0.00002161,-0.00225702,0.00440201,-0.00233937,0.0006064
 4,0.00787773,-0.02447821,-0.01227449,-0.15123356,0.13798660,0.00163065
 ,-0.00167574,0.00251273,-0.00451237,-0.01199297,0.02261092,0.01562556,
 0.15445523,-0.00039012,-0.00131033,0.00057102,-0.00007624,-0.00004566,
 -0.00029307,0.00010216,0.00013541,0.00008714,0.00013360,0.00008485,0.0
 0006625,-0.00441154,0.00695859,-0.00050897,-0.00338058,0.00111382,-0.0
 2822309,0.01877038,0.12998574,-0.22746774,0.00060538,0.00403648,-0.002
 17963,0.00001771,-0.00157665,0.00631784,-0.01541579,-0.13706791,0.2513
 7803,-0.02191159,0.01016395,-0.02219688,-0.00033085,0.00310012,0.00092
 823,-0.00281749,0.00188327,0.00005730,-0.00078393,-0.00222196,-0.00380
 744,-0.29271261,0.13898100,-0.11291872,-0.01597952,0.06199687,-0.00270
 763,-0.00437356,-0.01360459,-0.00788080,0.00137779,0.00240591,0.001503
 81,0.00078700,0.00032581,0.00027512,0.00054527,0.00150025,0.00266944,0
 .46372805,-0.00644922,0.01465612,0.00055743,0.00118860,0.00016980,0.00
 066211,0.00024497,-0.00014280,-0.00109535,-0.00124750,-0.00066375,-0.0
 0311783,0.11389341,-0.18658105,0.02098123,0.06353231,-0.04928448,0.000
 29734,0.00394703,0.00546077,0.01203187,-0.00074900,-0.00022349,-0.0010
 1287,-0.00001264,0.00053033,-0.00014685,-0.00061951,-0.00034287,-0.000
 92099,-0.10744827,0.33462588,-0.03336349,0.01507080,-0.01340008,-0.001
 76844,0.00199620,-0.00003900,-0.00105950,0.00170609,0.00207709,-0.0027
 2360,-0.00407100,-0.00435815,-0.13055939,0.04475482,-0.15677723,-0.001
 33291,-0.00140007,0.03135236,0.00458180,-0.00438449,-0.00507465,0.0008
 1395,0.00178215,0.00097685,0.00004010,0.00016768,0.00087408,-0.0003615
 5,0.00119507,0.00192867,0.31862280,0.10758253,0.41505738,0.00025900,0.
 00537306,-0.00034895,0.00052872,0.00007227,0.00057175,-0.00007816,-0.0
 0020978,-0.00094213,0.00033428,-0.00021541,-0.00129270,-0.02477223,-0.
 01384151,-0.03177352,0.00195911,-0.00578700,0.00114954,0.00150892,0.00
 262255,0.00085564,0.00027804,-0.00060586,-0.00018158,-0.00018948,-0.00
 029603,0.00077606,-0.00038562,0.00039397,0.00137560,-0.12752855,-0.066
 28017,-0.15288979,0.14808598,0.00336911,-0.00036584,-0.00059955,0.0004
 9744,0.00024970,0.00023115,-0.00016285,-0.00028872,-0.00050221,0.00070
 266,0.00073208,0.00015944,0.01271409,0.01598246,0.02422149,0.00037452,
 -0.00578441,-0.00111426,0.00159007,0.00308354,0.00178609,-0.00100005,-
 0.00300137,0.00006584,-0.00073150,-0.00062082,-0.00023051,0.00095496,-
 0.00037549,-0.00139337,-0.09708236,-0.11820448,-0.16439978,0.07877391,
 0.10859335,-0.00312268,0.00203274,0.00474722,-0.00003995,-0.00079954,-
 0.00025860,0.00091676,-0.00009031,0.00060564,-0.00030928,-0.00102129,-
 0.00004798,-0.01306144,-0.00055209,-0.01410673,0.00556595,-0.00698162,
 -0.00341727,0.00010748,0.00281168,0.00467117,0.00015669,-0.00033340,0.
 00029845,0.00046572,0.00016798,-0.00068752,0.00116590,-0.00119122,-0.0
 0167642,-0.17454522,-0.13581862,-0.27261731,0.18270007,0.14177567,0.28
 248936\\-0.00000958,0.00000363,0.00000362,0.00000216,0.00000052,-0.000
 00414,0.00000405,-0.00000203,-0.00000225,0.00000476,0.00000249,-0.0000
 0219,-0.00000374,0.00000054,0.00000056,0.00000369,-0.00000015,-0.00000
 012,-0.00000068,-0.00000059,-0.00000253,0.00000073,-0.00000163,0.00000
 227,0.00000163,0.00000022,0.00000114,-0.00000122,-0.00000031,0.0000006
 2,-0.00000003,-0.00000027,0.00000151,-0.00000177,-0.00000242,0.0000015
 3\\\@


      SCIENCE SANS CONSCIENCE N'EST QUE RUINE DE L'AME.

                                                  -- RABELAIS
 Job cpu time:       0 days  0 hours  1 minutes 51.9 seconds.
 File lengths (MBytes):  RWF=     19 Int=      0 D2E=      0 Chk=      2 Scr=      1
 Normal termination of Gaussian 09 at Sat Sep 26 15:46:34 2015.
