 Entering Link 1 = C:\G09W\l1.exe PID=      4328.
  
 Copyright (c) 1988,1990,1992,1993,1995,1998,2003,2009, Gaussian, Inc.
                  All Rights Reserved.
  
 This is part of the Gaussian(R) 09 program.  It is based on
 the Gaussian(R) 03 system (copyright 2003, Gaussian, Inc.),
 the Gaussian(R) 98 system (copyright 1998, Gaussian, Inc.),
 the Gaussian(R) 94 system (copyright 1995, Gaussian, Inc.),
 the Gaussian 92(TM) system (copyright 1992, Gaussian, Inc.),
 the Gaussian 90(TM) system (copyright 1990, Gaussian, Inc.),
 the Gaussian 88(TM) system (copyright 1988, Gaussian, Inc.),
 the Gaussian 86(TM) system (copyright 1986, Carnegie Mellon
 University), and the Gaussian 82(TM) system (copyright 1983,
 Carnegie Mellon University). Gaussian is a federally registered
 trademark of Gaussian, Inc.
  
 This software contains proprietary and confidential information,
 including trade secrets, belonging to Gaussian, Inc.
  
 This software is provided under written license and may be
 used, copied, transmitted, or stored only in accord with that
 written license.
  
 The following legend is applicable only to US Government
 contracts under FAR:
  
                    RESTRICTED RIGHTS LEGEND
  
 Use, reproduction and disclosure by the US Government is
 subject to restrictions as set forth in subparagraphs (a)
 and (c) of the Commercial Computer Software - Restricted
 Rights clause in FAR 52.227-19.
  
 Gaussian, Inc.
 340 Quinnipiac St., Bldg. 40, Wallingford CT 06492
  
  
 ---------------------------------------------------------------
 Warning -- This program may not be used in any manner that
 competes with the business of Gaussian, Inc. or will provide
 assistance to any competitor of Gaussian, Inc.  The licensee
 of this program is prohibited from giving any competitor of
 Gaussian, Inc. access to this program.  By using this program,
 the user acknowledges that Gaussian, Inc. is engaged in the
 business of creating and licensing software in the field of
 computational chemistry and represents and warrants to the
 licensee that it is not a competitor of Gaussian, Inc. and that
 it will not use this program in any manner prohibited above.
 ---------------------------------------------------------------
  

 Cite this work as:
 Gaussian 09, Revision A.02,
 M. J. Frisch, G. W. Trucks, H. B. Schlegel, G. E. Scuseria, 
 M. A. Robb, J. R. Cheeseman, G. Scalmani, V. Barone, B. Mennucci, 
 G. A. Petersson, H. Nakatsuji, M. Caricato, X. Li, H. P. Hratchian, 
 A. F. Izmaylov, J. Bloino, G. Zheng, J. L. Sonnenberg, M. Hada, 
 M. Ehara, K. Toyota, R. Fukuda, J. Hasegawa, M. Ishida, T. Nakajima, 
 Y. Honda, O. Kitao, H. Nakai, T. Vreven, J. A. Montgomery, Jr., 
 J. E. Peralta, F. Ogliaro, M. Bearpark, J. J. Heyd, E. Brothers, 
 K. N. Kudin, V. N. Staroverov, R. Kobayashi, J. Normand, 
 K. Raghavachari, A. Rendell, J. C. Burant, S. S. Iyengar, J. Tomasi, 
 M. Cossi, N. Rega, J. M. Millam, M. Klene, J. E. Knox, J. B. Cross, 
 V. Bakken, C. Adamo, J. Jaramillo, R. Gomperts, R. E. Stratmann, 
 O. Yazyev, A. J. Austin, R. Cammi, C. Pomelli, J. W. Ochterski, 
 R. L. Martin, K. Morokuma, V. G. Zakrzewski, G. A. Voth, 
 P. Salvador, J. J. Dannenberg, S. Dapprich, A. D. Daniels, 
 O. Farkas, J. B. Foresman, J. V. Ortiz, J. Cioslowski, 
 and D. J. Fox, Gaussian, Inc., Wallingford CT, 2009.
 
 ******************************************
 Gaussian 09:  IA32W-G09RevA.02 11-Jun-2009
                29-Sep-2015 
 ******************************************
 %chk=C:\Users\214584429\Dropbox\Dropbox content\New folder\meohhcpcm.chk
 ---------------------------------------------------------------------
 # freq x3lyp/6-31+g(d) scrf=(cpcm,solvent=methanol) geom=connectivity
 ---------------------------------------------------------------------
 1/10=4,30=1,38=1,57=2/1,3;
 2/12=2,17=6,18=5,40=1/2;
 3/5=1,6=6,7=11,11=2,16=1,25=1,30=1,70=2101,71=2,72=3,74=-33/1,2,3;
 4//1;
 5/5=2,38=5,53=3,98=1/2;
 8/6=4,10=90,11=11/1;
 11/6=1,8=1,9=11,15=111,16=1/1,2,10;
 10/6=1/2;
 6/7=2,8=2,9=2,10=2,18=1,28=1/1;
 7/8=1,10=1,25=1/1,2,3,16;
 1/10=4,30=1/3;
 99//99;
 -------------------
 Title Card Required
 -------------------
 Symbolic Z-matrix:
 Charge =  1 Multiplicity = 1
 O                     0.71955   0.00001  -0.08942 
 H                     1.15563  -0.80306   0.27152 
 C                    -0.79897  -0.00001   0.01888 
 H                    -1.1047    0.90146  -0.5076 
 H                    -1.10458  -0.9012   -0.50812 
 H                    -1.06458  -0.00028   1.07483 
 H                     1.15565   0.80308   0.27147 
 

 GradGradGradGradGradGradGradGradGradGradGradGradGradGradGradGradGradGrad
 Berny optimization.
 Initialization pass.
 Trust Radius=3.00D-01 FncErr=1.00D-07 GrdErr=1.00D-07
 Number of steps in this run=   2 maximum allowed number of steps=   2.
 GradGradGradGradGradGradGradGradGradGradGradGradGradGradGradGradGradGrad

                          Input orientation:                          
 ---------------------------------------------------------------------
 Center     Atomic      Atomic             Coordinates (Angstroms)
 Number     Number       Type             X           Y           Z
 ---------------------------------------------------------------------
      1          8           0        0.719550    0.000005   -0.089423
      2          1           0        1.155627   -0.803061    0.271515
      3          6           0       -0.798969   -0.000006    0.018879
      4          1           0       -1.104698    0.901459   -0.507597
      5          1           0       -1.104584   -0.901198   -0.508117
      6          1           0       -1.064577   -0.000282    1.074830
      7          1           0        1.155646    0.803079    0.271473
 ---------------------------------------------------------------------
                    Distance matrix (angstroms):
                    1          2          3          4          5
     1  O    0.000000
     2  H    0.982524   0.000000
     3  C    1.522376   2.128184   0.000000
     4  H    2.077347   2.936235   1.087790   0.000000
     5  H    2.077242   2.392908   1.087783   1.802657   0.000000
     6  H    2.130398   2.493807   1.088844   1.821763   1.821804
     7  H    0.982524   1.606140   2.128208   2.392861   2.936147
                    6          7
     6  H    0.000000
     7  H    2.494025   0.000000
 Stoichiometry    CH5O(1+)
 Framework group  C1[X(CH5O)]
 Deg. of freedom    15
 Full point group                 C1      NOp   1
 Largest Abelian subgroup         C1      NOp   1
 Largest concise Abelian subgroup C1      NOp   1
                         Standard orientation:                         
 ---------------------------------------------------------------------
 Center     Atomic      Atomic             Coordinates (Angstroms)
 Number     Number       Type             X           Y           Z
 ---------------------------------------------------------------------
      1          8           0        0.719550    0.000005   -0.089423
      2          1           0        1.155627   -0.803061    0.271515
      3          6           0       -0.798969   -0.000006    0.018879
      4          1           0       -1.104698    0.901459   -0.507597
      5          1           0       -1.104584   -0.901198   -0.508117
      6          1           0       -1.064577   -0.000282    1.074830
      7          1           0        1.155646    0.803079    0.271473
 ---------------------------------------------------------------------
 Rotational constants (GHZ):    103.6716126     20.9162723     20.0849551
 Standard basis: 6-31+G(d) (6D, 7F)
 There are    48 symmetry adapted basis functions of A   symmetry.
 Integral buffers will be    262144 words long.
 Raffenetti 2 integral format.
 Two-electron integral symmetry is turned on.
    48 basis functions,    84 primitive gaussians,    48 cartesian basis functions
     9 alpha electrons        9 beta electrons
       nuclear repulsion energy        45.5338015713 Hartrees.
 NAtoms=    7 NActive=    7 NUniq=    7 SFac= 7.50D-01 NAtFMM=   80 NAOKFM=F Big=F
 ------------------------------------------------------------------------------
 Polarizable Continuum Model (PCM)
 =================================
 Model                : C-PCM.
 Atomic radii         : UFF (Universal Force Field).
 Polarization charges : Total charges.
 Charge compensation  : None.
 Solution method      : Matrix inversion.
 Cavity type          : Scaled VdW (van der Waals Surface) (Alpha=1.100).
 Cavity algorithm     : GePol (No added spheres)
                        Default sphere list used, NSphG=    7.
                        Lebedev-Laikov grids with approx.  5.0 points / Ang**2.
                        Smoothing algorithm: Karplus/York (Gamma=1.0000).
                        Polarization charges: spherical gaussians, with
                                              point-specific exponents (IZeta= 3).
                        Self-potential: point-specific (ISelfS= 7).
                        Self-field    : sphere-specific E.n sum rule (ISelfD= 2).
 1st derivatives      : Analytical E(r).r(x)/FMM algorithm (CHGder, D1EAlg=3).
                        Cavity 1st derivative terms included.
 2nd derivatives      : Analytical E(r).r(xy)/FMM algorithm (CHGder, D2EAlg=3).
                        Cavity 2nd derivative terms included.
 Solvent              : Methanol, Eps=  32.613000 Eps(inf)=   1.765709
 ------------------------------------------------------------------------------
 Spheres list:
 ISph  on   Nord    Re0     Alpha      Xe            Ye            Ze
    1   O      1    1.750   1.100      0.719550      0.000005     -0.089423
    2   H      2    1.443   1.100      1.155627     -0.803061      0.271515
    3   C      3    1.926   1.100     -0.798969     -0.000006      0.018879
    4   H      4    1.443   1.100     -1.104698      0.901459     -0.507597
    5   H      5    1.443   1.100     -1.104584     -0.901198     -0.508117
    6   H      6    1.443   1.100     -1.064577     -0.000282      1.074830
    7   H      7    1.443   1.100      1.155646      0.803079      0.271473
 ------------------------------------------------------------------------------
 One-electron integrals computed using PRISM.
 NBasis=    48 RedAO= T  NBF=    48
 NBsUse=    48 1.00D-06 NBFU=    48
 Harris functional with IExCor= 3102 diagonalized for initial guess.
 ExpMin= 4.38D-02 ExpMax= 5.48D+03 ExpMxC= 8.25D+02 IAcc=2 IRadAn=         0 AccDes= 0.00D+00
 HarFok:  IExCor= 3102 AccDes= 0.00D+00 IRadAn=         0 IDoV= 1
 ScaDFX=  1.000000  1.000000  1.000000  1.000000
 FoFCou: FMM=F IPFlag=           0 FMFlag=      100000 FMFlg1=           0
         NFxFlg=           0 DoJE=T BraDBF=F KetDBF=T FulRan=T
         Omega=  0.000000  0.000000  1.000000  0.000000  0.000000 ICntrl=     500 IOpCl=  0
         NMat0=    1 NMatS0=    1 NMatT0=    0 NMatD0=    1 NMtDS0=    0 NMtDT0=    0
         I1Cent=           4 NGrid=           0.
 Petite list used in FoFCou.
 Initial guess orbital symmetries:
       Occupied  (A) (A) (A) (A) (A) (A) (A) (A) (A)
       Virtual   (A) (A) (A) (A) (A) (A) (A) (A) (A) (A) (A) (A)
                 (A) (A) (A) (A) (A) (A) (A) (A) (A) (A) (A) (A)
                 (A) (A) (A) (A) (A) (A) (A) (A) (A) (A) (A) (A)
                 (A) (A) (A)
 The electronic state of the initial guess is 1-A.
 Requested convergence on RMS density matrix=1.00D-08 within 128 cycles.
 Requested convergence on MAX density matrix=1.00D-06.
 Requested convergence on             energy=1.00D-06.
 No special actions if energy rises.
 Keep R1 ints in memory in canonical form, NReq=4140954.
 Error on total polarization charges =  0.00248
 SCF Done:  E(RX3LYP) =  -116.071777888     A.U. after    9 cycles
             Convg  =    0.2883D-08             -V/T =  2.0103
 Range of M.O.s used for correlation:     1    48
 NBasis=    48 NAE=     9 NBE=     9 NFC=     0 NFV=     0
 NROrb=     48 NOA=     9 NOB=     9 NVA=    39 NVB=    39
 Symmetrizing basis deriv contribution to polar:
 IMax=3 JMax=2 DiffMx= 0.00D+00
 G2DrvN: will do     8 centers at a time, making    1 passes doing MaxLOS=2.
 Calling FoFCou, ICntrl=  3107 FMM=F I1Cent=   0 AccDes= 0.00D+00.
 FoFDir/FoFCou used for L=0 through L=2.
 G2PCM: DoFxE=T DoFxN=T DoGrad=T DoPD/DQ/DG=FFF NFrqRd=   0 IEInf=0 DoCFld=F IF1Alg=4.
 End of G2Drv Frequency-dependent properties file   721 does not exist.
 End of G2Drv Frequency-dependent properties file   722 does not exist.
          IDoAtm=1111111
 NEqPCM:  Using equilibrium solvation (IEInf=0, Eps=  32.6130, EpsInf=   1.7657)
          Differentiating once with respect to electric field.
                with respect to dipole field.
          Differentiating once with respect to nuclear coordinates.
          Keep R1 ints in memory in canonical form, NReq=1513473.
          There are    24 degrees of freedom in the 1st order CPHF.  IDoFFX=5.
     21 vectors produced by pass  0 Test12= 1.46D-15 4.17D-09 XBig12= 7.52D+00 1.36D+00.
 AX will form    21 AO Fock derivatives at one time.
     21 vectors produced by pass  1 Test12= 1.46D-15 4.17D-09 XBig12= 1.78D-01 1.14D-01.
     21 vectors produced by pass  2 Test12= 1.46D-15 4.17D-09 XBig12= 6.00D-04 7.02D-03.
     21 vectors produced by pass  3 Test12= 1.46D-15 4.17D-09 XBig12= 3.71D-07 1.34D-04.
     20 vectors produced by pass  4 Test12= 1.46D-15 4.17D-09 XBig12= 2.39D-10 4.97D-06.
      4 vectors produced by pass  5 Test12= 1.46D-15 4.17D-09 XBig12= 1.37D-13 1.21D-07.
 Inverted reduced A of dimension   108 with in-core refinement.
 Isotropic polarizability for W=    0.000000       17.88 Bohr**3.
 End of Minotr Frequency-dependent properties file   721 does not exist.
 End of Minotr Frequency-dependent properties file   722 does not exist.

 **********************************************************************

            Population analysis using the SCF density.

 **********************************************************************

 Orbital symmetries:
       Occupied  (A) (A) (A) (A) (A) (A) (A) (A) (A)
       Virtual   (A) (A) (A) (A) (A) (A) (A) (A) (A) (A) (A) (A)
                 (A) (A) (A) (A) (A) (A) (A) (A) (A) (A) (A) (A)
                 (A) (A) (A) (A) (A) (A) (A) (A) (A) (A) (A) (A)
                 (A) (A) (A)
 The electronic state is 1-A.
 Alpha  occ. eigenvalues --  -19.36695 -10.32736  -1.19820  -0.79019  -0.69535
 Alpha  occ. eigenvalues --   -0.58958  -0.53269  -0.47263  -0.43440
 Alpha virt. eigenvalues --   -0.04796   0.00737   0.03340   0.04802   0.08604
 Alpha virt. eigenvalues --    0.10405   0.10937   0.14232   0.15276   0.16631
 Alpha virt. eigenvalues --    0.18458   0.20075   0.24191   0.29623   0.58963
 Alpha virt. eigenvalues --    0.59736   0.60798   0.84997   0.86037   0.89733
 Alpha virt. eigenvalues --    0.96401   0.98672   1.05518   1.07243   1.08499
 Alpha virt. eigenvalues --    1.18742   1.39714   1.47494   1.48389   1.82374
 Alpha virt. eigenvalues --    1.95828   1.96709   2.19632   2.20609   2.21441
 Alpha virt. eigenvalues --    2.50619   2.68770   3.83391   4.20156
          Condensed to atoms (all electrons):
              1          2          3          4          5          6
     1  O    8.222704   0.228582   0.080746  -0.028918  -0.028930  -0.039816
     2  H    0.228582   0.200884  -0.010070   0.002363  -0.002287  -0.000859
     3  C    0.080746  -0.010070   5.138437   0.381571   0.381577   0.384952
     4  H   -0.028918   0.002363   0.381571   0.411990  -0.018571  -0.021577
     5  H   -0.028930  -0.002287   0.381577  -0.018571   0.411998  -0.021576
     6  H   -0.039816  -0.000859   0.384952  -0.021577  -0.021576   0.426023
     7  H    0.228580  -0.011379  -0.010068  -0.002288   0.002364  -0.000858
              7
     1  O    0.228580
     2  H   -0.011379
     3  C   -0.010068
     4  H   -0.002288
     5  H    0.002364
     6  H   -0.000858
     7  H    0.200884
 Mulliken atomic charges:
              1
     1  O   -0.662950
     2  H    0.592766
     3  C   -0.347145
     4  H    0.275429
     5  H    0.275425
     6  H    0.273711
     7  H    0.592764
 Sum of Mulliken atomic charges =   1.00000
 Mulliken charges with hydrogens summed into heavy atoms:
              1
     1  O    0.522580
     3  C    0.477420
 Sum of Mulliken charges with hydrogens summed into heavy atoms =   1.00000
 APT atomic charges:
              1
     1  O   -0.631791
     2  H    0.454063
     3  C    0.511728
     4  H    0.077305
     5  H    0.077297
     6  H    0.057341
     7  H    0.454057
 Sum of APT charges=   1.00000
 APT Atomic charges with hydrogens summed into heavy atoms:
              1
     1  O    0.276328
     2  H    0.000000
     3  C    0.723672
     4  H    0.000000
     5  H    0.000000
     6  H    0.000000
     7  H    0.000000
 Sum of APT charges=   1.00000
 Electronic spatial extent (au):  <R**2>=             86.9936
 Charge=              1.0000 electrons
 Dipole moment (field-independent basis, Debye):
    X=              1.7278    Y=              0.0001    Z=              1.4886  Tot=              2.2807
 Quadrupole moment (field-independent basis, Debye-Ang):
   XX=             -5.6060   YY=             -8.2789   ZZ=            -11.7860
   XY=             -0.0001   XZ=              1.9111   YZ=              0.0000
 Traceless Quadrupole moment (field-independent basis, Debye-Ang):
   XX=              2.9510   YY=              0.2781   ZZ=             -3.2291
   XY=             -0.0001   XZ=              1.9111   YZ=              0.0000
 Octapole moment (field-independent basis, Debye-Ang**2):
  XXX=              8.6430  YYY=              0.0010  ZZZ=              1.7935  XYY=              4.3180
  XXY=              0.0005  XXZ=              2.2804  XZZ=              0.3808  YZZ=             -0.0009
  YYZ=              0.0801  XYZ=             -0.0001
 Hexadecapole moment (field-independent basis, Debye-Ang**3):
 XXXX=            -53.3942 YYYY=            -14.9469 ZZZZ=            -16.8724 XXXY=             -0.0004
 XXXZ=              3.5450 YYYX=             -0.0010 YYYZ=              0.0000 ZZZX=             -0.0350
 ZZZY=              0.0000 XXYY=             -7.8067 XXZZ=            -12.3693 YYZZ=             -5.4614
 XXYZ=             -0.0002 YYXZ=              2.6836 ZZXY=              0.0009
 N-N= 4.553380157127D+01 E-N=-3.566340716377D+02  KE= 1.148876060653D+02
  Exact polarizability:  19.077   0.000  17.992   0.367   0.000  16.581
 Approx polarizability:  19.530   0.000  19.540   0.422   0.000  17.493
 D2PCM: C-PCM CHGder 2nd derivatives, FixD1E=F FixD2E=F DoIter=F DoCFld=F I1PDM=0
 Calling FoFJK, ICntrl=    100127 FMM=F ISym2X=0 I1Cent= 0 IOpClX= 0 NMat=1 NMatS=1 NMatT=0.
 Full mass-weighted force constant matrix:
 Low frequencies ---    0.0011    0.0018    0.0022   67.5341  128.3879  132.6585
 Low frequencies ---  273.7469  700.0564  807.9770
 Diagonal vibrational polarizability:
       10.2611348      22.5879614      16.5867828
 Harmonic frequencies (cm**-1), IR intensities (KM/Mole), Raman scattering
 activities (A**4/AMU), depolarization ratios for plane and unpolarized
 incident light, reduced masses (AMU), force constants (mDyne/A),
 and normal coordinates:
                     1                      2                      3
                     A                      A                      A
 Frequencies --   272.1409               700.0457               807.9528
 Red. masses --     1.0244                 1.3526                 3.7787
 Frc consts  --     0.0447                 0.3905                 1.4533
 IR Inten    --    57.9294               410.2690                46.8191
  Atom  AN      X      Y      Z        X      Y      Z        X      Y      Z
     1   8     0.00  -0.03   0.00    -0.09   0.00   0.10     0.27   0.00   0.03
     2   1     0.02   0.22   0.54     0.29  -0.09  -0.61     0.47  -0.04  -0.32
     3   6     0.00   0.00   0.00     0.07   0.00  -0.02    -0.39   0.00   0.01
     4   1     0.03   0.18   0.29     0.09  -0.02  -0.06    -0.12   0.05  -0.05
     5   1    -0.03   0.18  -0.29     0.09   0.02  -0.06    -0.12  -0.05  -0.05
     6   1     0.00  -0.31   0.00    -0.11   0.00  -0.06    -0.30   0.00   0.03
     7   1    -0.02   0.22  -0.54     0.29   0.09  -0.61     0.47   0.04  -0.32
                     4                      5                      6
                     A                      A                      A
 Frequencies --   967.6248              1175.0394              1297.5382
 Red. masses --     1.0286                 1.2335                 1.3122
 Frc consts  --     0.5674                 1.0034                 1.3016
 IR Inten    --    12.2586                 7.9836                 3.8078
  Atom  AN      X      Y      Z        X      Y      Z        X      Y      Z
     1   8     0.00  -0.03   0.00     0.01   0.00   0.06     0.00   0.08   0.00
     2   1     0.51   0.19  -0.12     0.01  -0.05  -0.06    -0.41  -0.09   0.08
     3   6     0.00  -0.03   0.00    -0.01   0.00  -0.12     0.00  -0.13   0.00
     4   1     0.40   0.12   0.01    -0.38   0.09   0.23     0.51   0.07   0.09
     5   1    -0.40   0.12  -0.01    -0.38  -0.09   0.23    -0.51   0.07  -0.09
     6   1     0.00   0.18   0.00     0.74   0.00   0.06     0.00   0.29   0.00
     7   1    -0.51   0.19   0.12     0.01   0.05  -0.06     0.41  -0.09  -0.08
                     7                      8                      9
                     A                      A                      A
 Frequencies --  1471.9577              1492.1639              1492.4380
 Red. masses --     1.1178                 1.0428                 1.0525
 Frc consts  --     1.4270                 1.3680                 1.3812
 IR Inten    --     0.6612                24.8069                24.9131
  Atom  AN      X      Y      Z        X      Y      Z        X      Y      Z
     1   8     0.04   0.00   0.00     0.00  -0.02   0.00     0.00   0.00  -0.01
     2   1     0.00  -0.03  -0.01     0.05   0.00  -0.02     0.02   0.01   0.00
     3   6     0.09   0.00   0.00     0.00  -0.05   0.00     0.01   0.00  -0.06
     4   1    -0.55  -0.18   0.05    -0.30   0.07   0.35     0.12   0.37   0.53
     5   1    -0.55   0.18   0.05     0.29   0.10  -0.40     0.14  -0.37   0.50
     6   1    -0.53   0.00  -0.14     0.02   0.72   0.01    -0.37   0.03  -0.14
     7   1     0.00   0.03  -0.01    -0.05   0.00   0.02     0.01  -0.01   0.00
                    10                     11                     12
                     A                      A                      A
 Frequencies --  1721.0122              3127.3572              3254.4322
 Red. masses --     1.0760                 1.0233                 1.1160
 Frc consts  --     1.8777                 5.8965                 6.9642
 IR Inten    --   153.3501                 3.2574                 0.3264
  Atom  AN      X      Y      Z        X      Y      Z        X      Y      Z
     1   8    -0.06   0.00  -0.02     0.00   0.00   0.00     0.00   0.00   0.00
     2   1     0.52   0.41   0.24    -0.01   0.01   0.00     0.00  -0.01   0.00
     3   6     0.01   0.00  -0.01    -0.04   0.00   0.01     0.01   0.00   0.10
     4   1    -0.06  -0.02  -0.01     0.15  -0.46   0.27    -0.12   0.37  -0.21
     5   1    -0.06   0.02  -0.01     0.15   0.46   0.27    -0.12  -0.36  -0.20
     6   1     0.03   0.00  -0.01     0.14   0.00  -0.60     0.18   0.00  -0.76
     7   1     0.52  -0.41   0.24    -0.01  -0.01   0.00     0.00   0.01   0.00
                    13                     14                     15
                     A                      A                      A
 Frequencies --  3256.4460              3589.6889              3667.7238
 Red. masses --     1.1147                 1.0437                 1.0893
 Frc consts  --     6.9644                 7.9238                 8.6338
 IR Inten    --     0.7474               249.2324               411.5992
  Atom  AN      X      Y      Z        X      Y      Z        X      Y      Z
     1   8     0.00   0.00   0.00     0.04   0.00   0.03     0.00   0.07   0.00
     2   1     0.00   0.01   0.00    -0.31   0.59  -0.24     0.31  -0.58   0.26
     3   6     0.00   0.10   0.00     0.00   0.00   0.00     0.00   0.00   0.00
     4   1     0.19  -0.58   0.34    -0.01   0.01   0.00     0.01  -0.01   0.00
     5   1    -0.19  -0.59  -0.35    -0.01  -0.01   0.00    -0.01  -0.01   0.00
     6   1     0.00   0.01  -0.01    -0.01   0.00   0.00     0.00   0.00   0.00
     7   1     0.00   0.01   0.00    -0.31  -0.59  -0.24    -0.31  -0.58  -0.26

 -------------------
 - Thermochemistry -
 -------------------
 Temperature   298.150 Kelvin.  Pressure   1.00000 Atm.
 Atom     1 has atomic number  8 and mass  15.99491
 Atom     2 has atomic number  1 and mass   1.00783
 Atom     3 has atomic number  6 and mass  12.00000
 Atom     4 has atomic number  1 and mass   1.00783
 Atom     5 has atomic number  1 and mass   1.00783
 Atom     6 has atomic number  1 and mass   1.00783
 Atom     7 has atomic number  1 and mass   1.00783
 Molecular mass:    33.03404 amu.
 Principal axes and moments of inertia in atomic units:
                           1         2         3
     Eigenvalues --    17.40825  86.28407  89.85538
           X            0.99959   0.00000   0.02875
           Y            0.00000   1.00000   0.00000
           Z           -0.02875   0.00000   0.99959
 This molecule is an asymmetric top.
 Rotational symmetry number  1.
 Rotational temperatures (Kelvin)      4.97545     1.00382     0.96392
 Rotational constants (GHZ):         103.67161    20.91627    20.08496
 Zero-point vibrational energy     169233.1 (Joules/Mol)
                                   40.44768 (Kcal/Mol)
 Warning -- explicit consideration of   1 degrees of freedom as
           vibrations may cause significant error
 Vibrational temperatures:    391.55  1007.21  1162.46  1392.19  1690.62
          (Kelvin)           1866.87  2117.82  2146.89  2147.28  2476.15
                             4499.56  4682.40  4685.29  5164.76  5277.03
 
 Zero-point correction=                           0.064457 (Hartree/Particle)
 Thermal correction to Energy=                    0.068024
 Thermal correction to Enthalpy=                  0.068968
 Thermal correction to Gibbs Free Energy=         0.041283
 Sum of electronic and zero-point Energies=           -116.007320
 Sum of electronic and thermal Energies=              -116.003754
 Sum of electronic and thermal Enthalpies=            -116.002810
 Sum of electronic and thermal Free Energies=         -116.030495
 
                     E (Thermal)             CV                S
                      KCal/Mol        Cal/Mol-Kelvin    Cal/Mol-Kelvin
 Total                   42.686             10.209             58.268
 Electronic               0.000              0.000              0.000
 Translational            0.889              2.981             36.416
 Rotational               0.889              2.981             19.540
 Vibrational             40.908              4.247              2.312
 Vibration     1          0.675              1.725              1.583
                       Q            Log10(Q)             Ln(Q)
 Total Bot       0.102585D-18        -18.988915        -43.723592
 Total V=0       0.456460D+11         10.659403         24.544182
 Vib (Bot)       0.330542D-29        -29.480774        -67.881990
 Vib (Bot)    1  0.709375D+00         -0.149124         -0.343371
 Vib (V=0)       0.147077D+01          0.167544          0.385784
 Vib (V=0)    1  0.136788D+01          0.136047          0.313261
 Electronic      0.100000D+01          0.000000          0.000000
 Translational   0.746273D+07          6.872898         15.825432
 Rotational      0.415874D+04          3.618961          8.332966
 ***** Axes restored to original set *****
 -------------------------------------------------------------------
 Center     Atomic                   Forces (Hartrees/Bohr)
 Number     Number              X              Y              Z
 -------------------------------------------------------------------
      1        8          -0.006201515    0.000006363   -0.003237043
      2        1          -0.001273283    0.001518826    0.001344322
      3        6           0.006287056   -0.000001135   -0.000506661
      4        1           0.000785670   -0.000674813    0.001101826
      5        1           0.000771918    0.000671591    0.001106308
      6        1           0.000903673   -0.000002439   -0.001154848
      7        1          -0.001273519   -0.001518393    0.001346096
 -------------------------------------------------------------------
 Cartesian Forces:  Max     0.006287056 RMS     0.002256245

 GradGradGradGradGradGradGradGradGradGradGradGradGradGradGradGradGradGrad
 Berny optimization.
 Search for a local minimum.
 Step number   1 out of a maximum of    2
 All quantities printed in internal units (Hartrees-Bohrs-Radians)
 Second derivative matrix not updated -- analytic derivatives used.
     Eigenvalues ---    0.00307   0.03249   0.03883   0.08179   0.09334
     Eigenvalues ---    0.09939   0.12557   0.13485   0.16583   0.26568
     Eigenvalues ---    0.48773   0.78811   0.80756   0.83289   1.01501
 Angle between quadratic step and forces=  52.95 degrees.
 Linear search not attempted -- first point.
 TrRot=  0.002433  0.000017 -0.010941 -0.000907  0.002954  0.000913
 Variable       Old X    -DE/DX   Delta X   Delta X   Delta X     New X
                                 (Linear)    (Quad)   (Total)
    X1        1.35975  -0.00620   0.00000  -0.01089  -0.00906   1.35069
    Y1        0.00001   0.00001   0.00000   0.00006   0.00008   0.00009
    Z1       -0.16898  -0.00324   0.00000  -0.03415  -0.04907  -0.21806
    X2        2.18382  -0.00127   0.00000  -0.04777  -0.04369   2.14013
    Y2       -1.51757   0.00152   0.00000   0.01578   0.01581  -1.50176
    Z2        0.51309   0.00134   0.00000   0.04443   0.02717   0.54026
    X3       -1.50983   0.00629   0.00000   0.02768   0.03021  -1.47962
    Y3       -0.00001   0.00000   0.00000  -0.00001   0.00000  -0.00001
    Z3        0.03568  -0.00051   0.00000  -0.00572  -0.01228   0.02340
    X4       -2.08758   0.00079   0.00000   0.00623   0.00586  -2.08171
    Y4        1.70351  -0.00067   0.00000  -0.00073  -0.00072   1.70279
    Z4       -0.95922   0.00110   0.00000   0.01226   0.00748  -0.95174
    X5       -2.08736   0.00077   0.00000   0.00606   0.00571  -2.08165
    Y5       -1.70302   0.00067   0.00000   0.00055   0.00055  -1.70246
    Z5       -0.96020   0.00111   0.00000   0.01260   0.00781  -0.95239
    X6       -2.01176   0.00090   0.00000   0.04634   0.05477  -1.95699
    Y6       -0.00053   0.00000   0.00000   0.00013   0.00013  -0.00040
    Z6        2.03113  -0.00115   0.00000  -0.00376  -0.00891   2.02223
    X7        2.18385  -0.00127   0.00000  -0.04786  -0.04379   2.14006
    Y7        1.51760  -0.00152   0.00000  -0.01589  -0.01586   1.50174
    Z7        0.51301   0.00135   0.00000   0.04505   0.02780   0.54081
         Item               Value     Threshold  Converged?
 Maximum Force            0.006287     0.000450     NO 
 RMS     Force            0.002256     0.000300     NO 
 Maximum Displacement     0.054768     0.001800     NO 
 RMS     Displacement     0.024550     0.001200     NO 
 Predicted change in Energy=-3.649564D-04
 GradGradGradGradGradGradGradGradGradGradGradGradGradGradGradGradGradGrad

 1|1|UNPC-WST-PGHS-011|Freq|RX3LYP|6-31+G(d)|C1H5O1(1+)|214584429|29-Se
 p-2015|0||# freq x3lyp/6-31+g(d) scrf=(cpcm,solvent=methanol) geom=con
 nectivity||Title Card Required||1,1|O,0.71955,0.000005,-0.089423|H,1.1
 55627,-0.803061,0.271515|C,-0.798969,-0.000006,0.018879|H,-1.104698,0.
 901459,-0.507597|H,-1.104584,-0.901198,-0.508117|H,-1.064577,-0.000282
 ,1.07483|H,1.155646,0.803079,0.271473||Version=IA32W-G09RevA.02|State=
 1-A|HF=-116.0717779|RMSD=2.883e-009|RMSF=2.256e-003|ZeroPoint=0.064457
 5|Thermal=0.0680241|Dipole=0.6797753,0.0000336,0.5856722|DipoleDeriv=-
 1.0197308,-0.0000251,0.0486628,-0.0000156,-0.4607158,0.0000027,-0.0133
 898,0.0000151,-0.4149272,0.3970891,-0.0879145,0.0020163,-0.1459315,0.5
 099928,-0.0118333,0.0020274,0.0012099,0.455107,1.1001698,0.0000424,-0.
 0723565,0.0000522,0.1784549,-0.0000152,-0.0225091,-0.0000139,0.2565606
 ,0.0546579,-0.044629,0.0293882,0.016852,0.0644713,0.0428628,0.0035204,
 0.0499617,0.1127861,0.0546412,0.0446082,0.0294193,-0.0168778,0.0645212
 ,-0.0428737,0.0035005,-0.0499832,0.1127281,0.0160908,0.0000077,-0.0391
 427,-0.0000138,0.1332798,0.0000275,0.0248382,0.0000337,0.022653,0.3970
 82,0.0879103,0.0020126,0.1459345,0.5099958,0.0118292,0.0020124,-0.0012
 234,0.4550925|Polar=19.0767288,-0.0003076,17.9924101,0.3673072,0.00007
 23,16.5805004|PG=C01 [X(C1H5O1)]|NImag=0||0.46102345,0.00002094,0.7558
 7315,0.15626980,-0.00001334,0.20455757,-0.13715863,0.13423488,-0.07727
 717,0.13763319,0.12640215,-0.33107238,0.11560215,-0.14203821,0.3426947
 3,-0.09258635,0.15281603,-0.07946644,0.07914942,-0.12983860,0.07458119
 ,-0.10650562,-0.00000473,-0.00202903,-0.00984379,0.00575383,0.00237871
 ,0.31600997,-0.00000502,-0.10395204,0.00000396,0.02450934,0.00921566,-
 0.00569197,-0.00001880,0.66521967,0.02631541,-0.00000009,-0.05719797,-
 0.01300948,-0.00196666,-0.00050474,0.01261380,0.00000878,0.64595303,-0
 .02550650,0.03347610,-0.01486368,-0.00590265,-0.00263432,0.00066574,-0
 .06437768,0.05213121,-0.03290477,0.08271157,-0.00398374,0.00471869,-0.
 00217579,-0.00160094,0.00080818,-0.00033713,0.06974170,-0.26144448,0.1
 2017931,-0.06993170,0.26739657,0.00277465,-0.00551141,0.00274332,0.001
 22375,-0.00009145,0.00002900,-0.04014921,0.12256885,-0.12615831,0.0399
 2185,-0.12819069,0.12242664,-0.02551837,-0.03347316,-0.01487694,0.0006
 7679,-0.00136748,-0.00131304,-0.06435636,-0.05209644,-0.03292388,0.006
 24818,0.00719448,0.00608700,0.08270407,0.00397704,0.00471035,0.0021725
 7,-0.00028565,0.00052571,0.00045627,-0.06970159,-0.26132119,-0.1202621
 9,-0.00719633,-0.01609986,-0.01329488,0.06989594,0.26726833,0.00277736
 ,0.00551118,0.00274810,-0.00100148,-0.00007421,-0.00010993,-0.04017847
 ,-0.12265522,-0.12630034,0.00608264,0.01328126,0.00996760,0.03994828,0
 .12828260,0.12257363,-0.02916939,-0.00000954,0.03004983,0.00112055,-0.
 00144565,0.00141317,-0.06108573,-0.00001355,0.05291719,0.00614970,-0.0
 0170527,-0.00885567,0.00614871,0.00171148,-0.00885312,0.07571865,0.000
 00106,0.00080295,-0.00000040,0.00051094,-0.00016221,-0.00088746,-0.000
 01629,-0.05693301,0.00007329,-0.00721331,0.00409384,0.02444565,0.00721
 214,0.00410793,-0.02443739,0.00001694,0.04825321,-0.00297023,-0.000001
 84,0.00606602,0.00062132,-0.00014949,0.00009427,0.06498700,0.00007532,
 -0.33528285,0.00241216,-0.00229989,-0.00889886,0.00241555,0.00230813,-
 0.00890895,-0.06808594,-0.00008136,0.34683623,-0.13716495,-0.13424449,
 -0.07727281,0.01347455,0.01532969,0.01029235,-0.00984078,-0.02450673,-
 0.01300827,0.00067738,0.00028547,-0.00100238,-0.00590302,0.00159911,0.
 00122480,0.00111752,-0.00051149,0.00062015,0.13763930,-0.12641244,-0.3
 3108073,-0.11558913,-0.01533036,-0.02200969,-0.01651715,-0.00575412,0.
 00921538,0.00196755,0.00136836,0.00052706,0.00007393,0.00263453,0.0008
 0873,0.00009178,0.00144560,-0.00016270,0.00014914,0.14204843,0.3427019
 7,-0.09258064,-0.15280053,-0.07945059,0.01029364,0.01651826,0.00537666
 ,0.00237721,0.00569028,-0.00050882,-0.00131394,-0.00045707,-0.00010940
 ,0.00066303,0.00033750,0.00002989,0.00141454,0.00088768,0.00009414,0.0
 7914616,0.12982388,0.07456812||0.00620152,-0.00000636,0.00323704,0.001
 27328,-0.00151883,-0.00134432,-0.00628706,0.00000114,0.00050666,-0.000
 78567,0.00067481,-0.00110183,-0.00077192,-0.00067159,-0.00110631,-0.00
 090367,0.00000244,0.00115485,0.00127352,0.00151839,-0.00134610|||@


 I MET A TRAVELLER FROM AN ANTIQUE LAND
 WHO SAID... TWO VAST AND TRUNKLESS LEGS OF STONE
 STAND IN THE DESERT..... NEAR THEM,  ON THE SAND,
 HALF SUNK,  A SHATTERED VISAGE LIES,  WHOSE FROWN,
 AND WRINKLED LIP,  AND SNEER OF COLD COMMAND
 TELL THAT ITS SCULPTOR WELL THOSE PASSIONS READ
 WHICH YET SURVIVE,  STAMPED ON THESE LIFELESS THINGS
 THE HAND THAT MOCKED THEM,  AND THE HEART THAT FED-
 AND ON THE PEDESTAL THESE WORDS APPEAR 
 MY NAME IS OZYMANDIAS, KING OF KINGS--   
 LOOK ON MY WORKS YE MIGHTY AND DESPAIR. 
 NOTHING BESIDE REMAINS,  ROUND THE DECAY 
 OF THAT COLOSSAL WRECK,  BOUNDLESS AND BARE
 THE LONE AND LEVEL SANDS STRETCH FAR AWAY.
                                    SHELLEY
 Job cpu time:  0 days  0 hours  0 minutes 37.0 seconds.
 File lengths (MBytes):  RWF=     13 Int=      0 D2E=      0 Chk=      3 Scr=      1
 Normal termination of Gaussian 09 at Tue Sep 29 17:16:32 2015.
