 Entering Link 1 = C:\G09W\l1.exe PID=      3956.
  
 Copyright (c) 1988,1990,1992,1993,1995,1998,2003,2009, Gaussian, Inc.
                  All Rights Reserved.
  
 This is part of the Gaussian(R) 09 program.  It is based on
 the Gaussian(R) 03 system (copyright 2003, Gaussian, Inc.),
 the Gaussian(R) 98 system (copyright 1998, Gaussian, Inc.),
 the Gaussian(R) 94 system (copyright 1995, Gaussian, Inc.),
 the Gaussian 92(TM) system (copyright 1992, Gaussian, Inc.),
 the Gaussian 90(TM) system (copyright 1990, Gaussian, Inc.),
 the Gaussian 88(TM) system (copyright 1988, Gaussian, Inc.),
 the Gaussian 86(TM) system (copyright 1986, Carnegie Mellon
 University), and the Gaussian 82(TM) system (copyright 1983,
 Carnegie Mellon University). Gaussian is a federally registered
 trademark of Gaussian, Inc.
  
 This software contains proprietary and confidential information,
 including trade secrets, belonging to Gaussian, Inc.
  
 This software is provided under written license and may be
 used, copied, transmitted, or stored only in accord with that
 written license.
  
 The following legend is applicable only to US Government
 contracts under FAR:
  
                    RESTRICTED RIGHTS LEGEND
  
 Use, reproduction and disclosure by the US Government is
 subject to restrictions as set forth in subparagraphs (a)
 and (c) of the Commercial Computer Software - Restricted
 Rights clause in FAR 52.227-19.
  
 Gaussian, Inc.
 340 Quinnipiac St., Bldg. 40, Wallingford CT 06492
  
  
 ---------------------------------------------------------------
 Warning -- This program may not be used in any manner that
 competes with the business of Gaussian, Inc. or will provide
 assistance to any competitor of Gaussian, Inc.  The licensee
 of this program is prohibited from giving any competitor of
 Gaussian, Inc. access to this program.  By using this program,
 the user acknowledges that Gaussian, Inc. is engaged in the
 business of creating and licensing software in the field of
 computational chemistry and represents and warrants to the
 licensee that it is not a competitor of Gaussian, Inc. and that
 it will not use this program in any manner prohibited above.
 ---------------------------------------------------------------
  

 Cite this work as:
 Gaussian 09, Revision A.02,
 M. J. Frisch, G. W. Trucks, H. B. Schlegel, G. E. Scuseria, 
 M. A. Robb, J. R. Cheeseman, G. Scalmani, V. Barone, B. Mennucci, 
 G. A. Petersson, H. Nakatsuji, M. Caricato, X. Li, H. P. Hratchian, 
 A. F. Izmaylov, J. Bloino, G. Zheng, J. L. Sonnenberg, M. Hada, 
 M. Ehara, K. Toyota, R. Fukuda, J. Hasegawa, M. Ishida, T. Nakajima, 
 Y. Honda, O. Kitao, H. Nakai, T. Vreven, J. A. Montgomery, Jr., 
 J. E. Peralta, F. Ogliaro, M. Bearpark, J. J. Heyd, E. Brothers, 
 K. N. Kudin, V. N. Staroverov, R. Kobayashi, J. Normand, 
 K. Raghavachari, A. Rendell, J. C. Burant, S. S. Iyengar, J. Tomasi, 
 M. Cossi, N. Rega, J. M. Millam, M. Klene, J. E. Knox, J. B. Cross, 
 V. Bakken, C. Adamo, J. Jaramillo, R. Gomperts, R. E. Stratmann, 
 O. Yazyev, A. J. Austin, R. Cammi, C. Pomelli, J. W. Ochterski, 
 R. L. Martin, K. Morokuma, V. G. Zakrzewski, G. A. Voth, 
 P. Salvador, J. J. Dannenberg, S. Dapprich, A. D. Daniels, 
 O. Farkas, J. B. Foresman, J. V. Ortiz, J. Cioslowski, 
 and D. J. Fox, Gaussian, Inc., Wallingford CT, 2009.
 
 ******************************************
 Gaussian 09:  IA32W-G09RevA.02 11-Jun-2009
                29-Sep-2015 
 ******************************************
 %chk=C:\Users\214584429\Dropbox\Dropbox content\New folder\meohhsmd.chk
 ---------------------------------------------------------------
 # x3lyp/6-31+g(d) scrf=(solvent=methanol,smd) geom=connectivity
 ---------------------------------------------------------------
 1/38=1,57=2/1;
 2/12=2,17=6,18=5,40=1/2;
 3/5=1,6=6,7=11,11=2,16=1,25=1,30=1,70=32201,72=3,74=-33/1,2,3;
 4//1;
 5/5=2,38=5,53=3/2;
 6/7=2,8=2,9=2,10=2,28=1/1;
 99/5=1,9=1/99;
 -------------------
 Title Card Required
 -------------------
 Symbolic Z-matrix:
 Charge =  1 Multiplicity = 1
 O                     0.71955   0.00001  -0.08942 
 H                     1.15563  -0.80306   0.27152 
 C                    -0.79897  -0.00001   0.01888 
 H                    -1.1047    0.90146  -0.5076 
 H                    -1.10458  -0.9012   -0.50812 
 H                    -1.06458  -0.00028   1.07483 
 H                     1.15565   0.80308   0.27147 
 
                          Input orientation:                          
 ---------------------------------------------------------------------
 Center     Atomic      Atomic             Coordinates (Angstroms)
 Number     Number       Type             X           Y           Z
 ---------------------------------------------------------------------
      1          8           0        0.719550    0.000005   -0.089423
      2          1           0        1.155627   -0.803061    0.271515
      3          6           0       -0.798969   -0.000006    0.018879
      4          1           0       -1.104698    0.901459   -0.507597
      5          1           0       -1.104584   -0.901198   -0.508117
      6          1           0       -1.064577   -0.000282    1.074830
      7          1           0        1.155646    0.803079    0.271473
 ---------------------------------------------------------------------
                    Distance matrix (angstroms):
                    1          2          3          4          5
     1  O    0.000000
     2  H    0.982524   0.000000
     3  C    1.522376   2.128184   0.000000
     4  H    2.077347   2.936235   1.087790   0.000000
     5  H    2.077242   2.392908   1.087783   1.802657   0.000000
     6  H    2.130398   2.493807   1.088844   1.821763   1.821804
     7  H    0.982524   1.606140   2.128208   2.392861   2.936147
                    6          7
     6  H    0.000000
     7  H    2.494025   0.000000
 Stoichiometry    CH5O(1+)
 Framework group  C1[X(CH5O)]
 Deg. of freedom    15
 Full point group                 C1      NOp   1
 Largest Abelian subgroup         C1      NOp   1
 Largest concise Abelian subgroup C1      NOp   1
                         Standard orientation:                         
 ---------------------------------------------------------------------
 Center     Atomic      Atomic             Coordinates (Angstroms)
 Number     Number       Type             X           Y           Z
 ---------------------------------------------------------------------
      1          8           0        0.719550    0.000005   -0.089423
      2          1           0        1.155627   -0.803061    0.271515
      3          6           0       -0.798969   -0.000006    0.018879
      4          1           0       -1.104698    0.901459   -0.507597
      5          1           0       -1.104584   -0.901198   -0.508117
      6          1           0       -1.064577   -0.000282    1.074830
      7          1           0        1.155646    0.803079    0.271473
 ---------------------------------------------------------------------
 Rotational constants (GHZ):    103.6716126     20.9162723     20.0849551
 Standard basis: 6-31+G(d) (6D, 7F)
 There are    48 symmetry adapted basis functions of A   symmetry.
 Integral buffers will be    262144 words long.
 Raffenetti 2 integral format.
 Two-electron integral symmetry is turned on.
    48 basis functions,    84 primitive gaussians,    48 cartesian basis functions
     9 alpha electrons        9 beta electrons
       nuclear repulsion energy        45.5338015713 Hartrees.
 NAtoms=    7 NActive=    7 NUniq=    7 SFac= 7.50D-01 NAtFMM=   80 NAOKFM=F Big=F
 ------------------------------------------------------------------------------
 Polarizable Continuum Model (PCM)
 =================================
 Model                : PCM.
 Atomic radii         : SMD-Coulomb.
 Polarization charges : Total charges.
 Charge compensation  : None.
 Solution method      : Matrix inversion.
 Cavity type          : VdW (van der Waals Surface) (Alpha=1.000).
 Cavity algorithm     : GePol (No added spheres)
                        Default sphere list used, NSphG=    7.
                        Lebedev-Laikov grids with approx.  5.0 points / Ang**2.
                        Smoothing algorithm: Karplus/York (Gamma=1.0000).
                        Polarization charges: spherical gaussians, with
                                              point-specific exponents (IZeta= 3).
                        Self-potential: point-specific (ISelfS= 7).
                        Self-field    : sphere-specific E.n sum rule (ISelfD= 2).
 Solvent              : Methanol, Eps=  32.613000 Eps(inf)=   1.765709
 ------------------------------------------------------------------------------
 Spheres list:
 ISph  on   Nord    Re0     Alpha      Xe            Ye            Ze
    1   O      1    1.520   1.000      0.719550      0.000005     -0.089423
    2   H      2    1.200   1.000      1.155627     -0.803061      0.271515
    3   C      3    1.850   1.000     -0.798969     -0.000006      0.018879
    4   H      4    1.200   1.000     -1.104698      0.901459     -0.507597
    5   H      5    1.200   1.000     -1.104584     -0.901198     -0.508117
    6   H      6    1.200   1.000     -1.064577     -0.000282      1.074830
    7   H      7    1.200   1.000      1.155646      0.803079      0.271473
 ------------------------------------------------------------------------------
 ------------------------------------------------------------------------------
 Atomic radii for non-electrostatic terms: SMD-CDS.
 ------------------------------------------------------------------------------
 Nuclear repulsion after PCM non-electrostatic terms =       45.5354964156 Hartrees.
 One-electron integrals computed using PRISM.
 NBasis=    48 RedAO= T  NBF=    48
 NBsUse=    48 1.00D-06 NBFU=    48
 Harris functional with IExCor= 3102 diagonalized for initial guess.
 ExpMin= 4.38D-02 ExpMax= 5.48D+03 ExpMxC= 8.25D+02 IAcc=2 IRadAn=         0 AccDes= 0.00D+00
 HarFok:  IExCor= 3102 AccDes= 0.00D+00 IRadAn=         0 IDoV= 1
 ScaDFX=  1.000000  1.000000  1.000000  1.000000
 FoFCou: FMM=F IPFlag=           0 FMFlag=      100000 FMFlg1=           0
         NFxFlg=           0 DoJE=T BraDBF=F KetDBF=T FulRan=T
         Omega=  0.000000  0.000000  1.000000  0.000000  0.000000 ICntrl=     500 IOpCl=  0
         NMat0=    1 NMatS0=    1 NMatT0=    0 NMatD0=    1 NMtDS0=    0 NMtDT0=    0
         I1Cent=           4 NGrid=           0.
 Petite list used in FoFCou.
 Initial guess orbital symmetries:
       Occupied  (A) (A) (A) (A) (A) (A) (A) (A) (A)
       Virtual   (A) (A) (A) (A) (A) (A) (A) (A) (A) (A) (A) (A)
                 (A) (A) (A) (A) (A) (A) (A) (A) (A) (A) (A) (A)
                 (A) (A) (A) (A) (A) (A) (A) (A) (A) (A) (A) (A)
                 (A) (A) (A)
 The electronic state of the initial guess is 1-A.
 Requested convergence on RMS density matrix=1.00D-08 within 128 cycles.
 Requested convergence on MAX density matrix=1.00D-06.
 Requested convergence on             energy=1.00D-06.
 No special actions if energy rises.
 Keep R1 ints in memory in canonical form, NReq=3966910.
 Error on total polarization charges =  0.01785
 SCF Done:  E(RX3LYP) =  -116.095858175     A.U. after    9 cycles
             Convg  =    0.2816D-08             -V/T =  2.0107
 SMD-CDS (non-electrostatic) energy             (kcal/mol) =       1.06
 (included in total energy above)

 **********************************************************************

            Population analysis using the SCF density.

 **********************************************************************

 Orbital symmetries:
       Occupied  (A) (A) (A) (A) (A) (A) (A) (A) (A)
       Virtual   (A) (A) (A) (A) (A) (A) (A) (A) (A) (A) (A) (A)
                 (A) (A) (A) (A) (A) (A) (A) (A) (A) (A) (A) (A)
                 (A) (A) (A) (A) (A) (A) (A) (A) (A) (A) (A) (A)
                 (A) (A) (A)
 The electronic state is 1-A.
 Alpha  occ. eigenvalues --  -19.32751 -10.29795  -1.15749  -0.75715  -0.65304
 Alpha  occ. eigenvalues --   -0.55505  -0.49925  -0.44264  -0.40179
 Alpha virt. eigenvalues --   -0.02127   0.01972   0.04791   0.05546   0.11317
 Alpha virt. eigenvalues --    0.12351   0.13104   0.16254   0.17633   0.18663
 Alpha virt. eigenvalues --    0.20588   0.22424   0.26027   0.31873   0.61301
 Alpha virt. eigenvalues --    0.62386   0.63308   0.87753   0.88744   0.93526
 Alpha virt. eigenvalues --    1.00159   1.01248   1.08971   1.10504   1.11823
 Alpha virt. eigenvalues --    1.21496   1.43058   1.51086   1.51864   1.85769
 Alpha virt. eigenvalues --    1.99325   2.00159   2.23220   2.23590   2.24651
 Alpha virt. eigenvalues --    2.54733   2.72163   3.87085   4.23096
          Condensed to atoms (all electrons):
              1          2          3          4          5          6
     1  O    8.241995   0.224372   0.085682  -0.030013  -0.030026  -0.039912
     2  H    0.224372   0.187430  -0.009916   0.002167  -0.002183  -0.000857
     3  C    0.085682  -0.009916   5.137847   0.382621   0.382628   0.385810
     4  H   -0.030013   0.002167   0.382621   0.416959  -0.019900  -0.022155
     5  H   -0.030026  -0.002183   0.382628  -0.019900   0.416968  -0.022153
     6  H   -0.039912  -0.000857   0.385810  -0.022155  -0.022153   0.431142
     7  H    0.224370  -0.009635  -0.009914  -0.002184   0.002167  -0.000856
              7
     1  O    0.224370
     2  H   -0.009635
     3  C   -0.009914
     4  H   -0.002184
     5  H    0.002167
     6  H   -0.000856
     7  H    0.187431
 Mulliken atomic charges:
              1
     1  O   -0.676470
     2  H    0.608623
     3  C   -0.354758
     4  H    0.272505
     5  H    0.272499
     6  H    0.268981
     7  H    0.608621
 Sum of Mulliken atomic charges =   1.00000
 Mulliken charges with hydrogens summed into heavy atoms:
              1
     1  O    0.540774
     3  C    0.459226
 Sum of Mulliken charges with hydrogens summed into heavy atoms =   1.00000
 Electronic spatial extent (au):  <R**2>=             87.2227
 Charge=              1.0000 electrons
 Dipole moment (field-independent basis, Debye):
    X=              1.9270    Y=              0.0001    Z=              1.5823  Tot=              2.4934
 Quadrupole moment (field-independent basis, Debye-Ang):
   XX=             -5.7290   YY=             -8.3274   ZZ=            -11.9226
   XY=             -0.0001   XZ=              1.9924   YZ=              0.0000
 Traceless Quadrupole moment (field-independent basis, Debye-Ang):
   XX=              2.9306   YY=              0.3323   ZZ=             -3.2629
   XY=             -0.0001   XZ=              1.9924   YZ=              0.0000
 Octapole moment (field-independent basis, Debye-Ang**2):
  XXX=              9.2577  YYY=              0.0010  ZZZ=              1.8669  XYY=              4.5237
  XXY=              0.0005  XXZ=              2.3807  XZZ=              0.5086  YZZ=             -0.0009
  YYZ=              0.1582  XYZ=             -0.0001
 Hexadecapole moment (field-independent basis, Debye-Ang**3):
 XXXX=            -54.2094 YYYY=            -15.2781 ZZZZ=            -17.4205 XXXY=             -0.0004
 XXXZ=              3.7028 YYYX=             -0.0010 YYYZ=              0.0000 ZZZX=              0.1086
 ZZZY=              0.0000 XXYY=             -7.9788 XXZZ=            -12.6736 YYZZ=             -5.6074
 XXYZ=             -0.0002 YYXZ=              2.6988 ZZXY=              0.0009
 N-N= 4.553549641564D+01 E-N=-3.565653903125D+02  KE= 1.148631738355D+02
 1|1|UNPC-WST-PGHS-011|SP|RX3LYP|6-31+G(d)|C1H5O1(1+)|214584429|29-Sep-
 2015|0||# x3lyp/6-31+g(d) scrf=(solvent=methanol,smd) geom=connectivit
 y||Title Card Required||1,1|O,0,0.71955,0.000005,-0.089423|H,0,1.15562
 7,-0.803061,0.271515|C,0,-0.798969,-0.000006,0.018879|H,0,-1.104698,0.
 901459,-0.507597|H,0,-1.104584,-0.901198,-0.508117|H,0,-1.064577,-0.00
 0282,1.07483|H,0,1.155646,0.803079,0.271473||Version=IA32W-G09RevA.02|
 State=1-A|HF=-116.0958582|RMSD=2.816e-009|Dipole=0.7581541,0.0000353,0
 .6225279|Quadrupole=2.1788548,0.2470383,-2.4258931,-0.0000866,1.481332
 9,-0.0000247|PG=C01 [X(C1H5O1)]||@


 The chemist is a guest at the physicist's table and
 frequently dines well.
                   -- Richard Bersohn
 Job cpu time:  0 days  0 hours  0 minutes  9.0 seconds.
 File lengths (MBytes):  RWF=     10 Int=      0 D2E=      0 Chk=      1 Scr=      1
 Normal termination of Gaussian 09 at Tue Sep 29 17:15:17 2015.
