 Entering Link 1 = C:\G09W\l1.exe PID=      5168.
  
 Copyright (c) 1988,1990,1992,1993,1995,1998,2003,2009, Gaussian, Inc.
                  All Rights Reserved.
  
 This is part of the Gaussian(R) 09 program.  It is based on
 the Gaussian(R) 03 system (copyright 2003, Gaussian, Inc.),
 the Gaussian(R) 98 system (copyright 1998, Gaussian, Inc.),
 the Gaussian(R) 94 system (copyright 1995, Gaussian, Inc.),
 the Gaussian 92(TM) system (copyright 1992, Gaussian, Inc.),
 the Gaussian 90(TM) system (copyright 1990, Gaussian, Inc.),
 the Gaussian 88(TM) system (copyright 1988, Gaussian, Inc.),
 the Gaussian 86(TM) system (copyright 1986, Carnegie Mellon
 University), and the Gaussian 82(TM) system (copyright 1983,
 Carnegie Mellon University). Gaussian is a federally registered
 trademark of Gaussian, Inc.
  
 This software contains proprietary and confidential information,
 including trade secrets, belonging to Gaussian, Inc.
  
 This software is provided under written license and may be
 used, copied, transmitted, or stored only in accord with that
 written license.
  
 The following legend is applicable only to US Government
 contracts under FAR:
  
                    RESTRICTED RIGHTS LEGEND
  
 Use, reproduction and disclosure by the US Government is
 subject to restrictions as set forth in subparagraphs (a)
 and (c) of the Commercial Computer Software - Restricted
 Rights clause in FAR 52.227-19.
  
 Gaussian, Inc.
 340 Quinnipiac St., Bldg. 40, Wallingford CT 06492
  
  
 ---------------------------------------------------------------
 Warning -- This program may not be used in any manner that
 competes with the business of Gaussian, Inc. or will provide
 assistance to any competitor of Gaussian, Inc.  The licensee
 of this program is prohibited from giving any competitor of
 Gaussian, Inc. access to this program.  By using this program,
 the user acknowledges that Gaussian, Inc. is engaged in the
 business of creating and licensing software in the field of
 computational chemistry and represents and warrants to the
 licensee that it is not a competitor of Gaussian, Inc. and that
 it will not use this program in any manner prohibited above.
 ---------------------------------------------------------------
  

 Cite this work as:
 Gaussian 09, Revision A.02,
 M. J. Frisch, G. W. Trucks, H. B. Schlegel, G. E. Scuseria, 
 M. A. Robb, J. R. Cheeseman, G. Scalmani, V. Barone, B. Mennucci, 
 G. A. Petersson, H. Nakatsuji, M. Caricato, X. Li, H. P. Hratchian, 
 A. F. Izmaylov, J. Bloino, G. Zheng, J. L. Sonnenberg, M. Hada, 
 M. Ehara, K. Toyota, R. Fukuda, J. Hasegawa, M. Ishida, T. Nakajima, 
 Y. Honda, O. Kitao, H. Nakai, T. Vreven, J. A. Montgomery, Jr., 
 J. E. Peralta, F. Ogliaro, M. Bearpark, J. J. Heyd, E. Brothers, 
 K. N. Kudin, V. N. Staroverov, R. Kobayashi, J. Normand, 
 K. Raghavachari, A. Rendell, J. C. Burant, S. S. Iyengar, J. Tomasi, 
 M. Cossi, N. Rega, J. M. Millam, M. Klene, J. E. Knox, J. B. Cross, 
 V. Bakken, C. Adamo, J. Jaramillo, R. Gomperts, R. E. Stratmann, 
 O. Yazyev, A. J. Austin, R. Cammi, C. Pomelli, J. W. Ochterski, 
 R. L. Martin, K. Morokuma, V. G. Zakrzewski, G. A. Voth, 
 P. Salvador, J. J. Dannenberg, S. Dapprich, A. D. Daniels, 
 O. Farkas, J. B. Foresman, J. V. Ortiz, J. Cioslowski, 
 and D. J. Fox, Gaussian, Inc., Wallingford CT, 2009.
 
 ******************************************
 Gaussian 09:  IA32W-G09RevA.02 11-Jun-2009
                01-Oct-2015 
 ******************************************
 %chk=C:\Users\214584429\Google Drive\214584429 MONSURAT\Silva-2014remix\meohac-h
 30irc.chk
 ----------------------------------------------
 # irc=calcfc x3lyp/6-31+g(d) geom=connectivity
 ----------------------------------------------
 1/10=4,14=-1,18=20,26=3,38=1,44=3,57=2/1,23;
 2/9=110,12=2,17=6,18=5,29=1,40=1/2;
 3/5=1,6=6,7=11,11=2,16=1,25=1,30=1,71=2,74=-33/1,2,3;
 4//1;
 5/5=2,38=5/2;
 8/6=4,10=90,11=11/1;
 11/6=1,8=1,9=11,15=111,16=1/1,2,10;
 10/6=1,7=6,13=1/2;
 6/7=2,8=2,9=2,10=2,28=1/1;
 7/10=1,18=20,25=1/1,2,3,16;
 1/10=4,14=-1,18=20,44=3/23(3);
 2/9=110,29=1/2;
 7/9=1,25=1,44=-1/16;
 99//99;
 2/9=110,29=1/2;
 3/5=1,6=6,7=11,11=2,16=1,25=1,30=1,71=2,74=-33/1,2,3;
 4/5=5,16=3/1;
 5/5=2,38=5/2;
 8/6=4,10=90,11=11/1;
 11/6=1,8=1,9=11,15=111,16=1/1,2,10;
 10/6=1,7=6,13=1/2;
 7/10=1,18=20,25=1/1,2,3,16;
 1/14=-1,18=20,44=3/23(-8);
 2/9=110,29=1/2;
 6/7=2,8=2,9=2,10=2,19=2,28=1/1;
 7/9=1,25=1,44=-1/16;
 99/9=1/99;
 -------------------
 Title Card Required
 -------------------
 Symbolic Z-matrix:
 Charge =  1 Multiplicity = 1
 C                    -0.0714    1.84626   0.01492 
 H                     0.69902   2.54122  -0.39326 
 H                    -0.24433   2.20881   1.05409 
 H                    -1.00248   2.04771  -0.54602 
 C                     0.3536    0.43983  -0.013 
 O                    -0.41035  -0.59277  -0.02499 
 O                     1.65336   0.24669  -0.01016 
 C                     2.18626  -1.12977   0.00852 
 H                     3.20299  -0.972    -0.38881 
 H                     2.20562  -1.46244   1.05352 
 H                     1.59499  -1.7957   -0.62845 
 O                    -2.90852  -0.52373   0.05322 
 H                    -3.06394  -1.35008   0.59166 
 H                    -3.28867  -0.74285  -0.83859 
 H                    -1.58982  -0.45408  -0.11136 
 
 IRC-IRC-IRC-IRC-IRC-IRC-IRC-IRC-IRC-IRC-IRC-IRC-IRC-IRC-IRC-IRC-IRC-IRC
 ------------------------------------------------------------------------
 INPUT DATA FOR L123
 ------------------------------------------------------------------------
 GENERAL PARAMETERS:
 Follow reaction path in both directions.
 Maximum points per path      =  10
 Step size                    =   0.100 bohr
 Integration scheme           = HPC                                 
    Redo corrector integration= Yes                                 
    Max correction cycles     =  20
 Initial Hessian              = CalcFC
 Hessian eveluation           = All updating
    Hessian updating method   = Bofill                              
 ------------------------------------------------------------------------
 IRC-IRC-IRC-IRC-IRC-IRC-IRC-IRC-IRC-IRC-IRC-IRC-IRC-IRC-IRC-IRC-IRC-IRC
                          Input orientation:                          
 ---------------------------------------------------------------------
 Center     Atomic      Atomic             Coordinates (Angstroms)
 Number     Number       Type             X           Y           Z
 ---------------------------------------------------------------------
      1          6           0       -0.071399    1.846257    0.014920
      2          1           0        0.699021    2.541219   -0.393258
      3          1           0       -0.244326    2.208812    1.054092
      4          1           0       -1.002481    2.047705   -0.546024
      5          6           0        0.353595    0.439832   -0.012998
      6          8           0       -0.410352   -0.592769   -0.024991
      7          8           0        1.653359    0.246691   -0.010158
      8          6           0        2.186260   -1.129770    0.008517
      9          1           0        3.202992   -0.971995   -0.388814
     10          1           0        2.205623   -1.462442    1.053524
     11          1           0        1.594986   -1.795704   -0.628450
     12          8           0       -2.908522   -0.523734    0.053223
     13          1           0       -3.063938   -1.350082    0.591657
     14          1           0       -3.288668   -0.742854   -0.838591
     15          1           0       -1.589824   -0.454081   -0.111364
 ---------------------------------------------------------------------
                    Distance matrix (angstroms):
                    1          2          3          4          5
     1  C    0.000000
     2  H    1.114957   0.000000
     3  H    1.114104   1.759324   0.000000
     4  H    1.105510   1.778202   1.777955   0.000000
     5  C    1.469500   2.163272   2.150693   2.169865   0.000000
     6  O    2.462789   3.344878   3.006799   2.755757   1.284532
     7  O    2.352452   2.514435   2.929805   3.253351   1.314039
     8  C    3.735479   3.981138   4.259942   4.535629   2.413043
     9  H    4.339030   4.314228   4.907496   5.179701   3.202117
    10  H    4.148616   4.515787   4.413656   5.017132   2.861140
    11  H    4.056432   4.434746   4.717008   4.639550   2.630105
    12  O    3.696971   4.754750   3.945439   3.256438   3.402095
    13  H    4.416390   5.502012   4.563966   4.133870   3.904988
    14  H    4.216965   5.185086   4.643555   3.619318   3.917452
    15  H    2.759188   3.780225   3.203069   2.606307   2.141409
                    6          7          8          9         10
     6  O    0.000000
     7  O    2.227962   0.000000
     8  C    2.651770   1.476136   0.000000
     9  H    3.651361   2.007471   1.102955   0.000000
    10  H    2.960211   2.087475   1.096852   1.820885   0.000000
    11  H    2.415077   2.134729   1.094897   1.822527   1.820159
    12  O    2.500347   4.626914   5.130895   6.143854   5.294927
    13  H    2.827596   5.016449   5.287076   6.354422   5.290956
    14  H    2.994858   5.107752   5.553569   6.511256   5.855351
    15  H    1.190735   3.319572   3.837934   4.828695   4.096239
                   11         12         13         14         15
    11  H    0.000000
    12  O    4.729077   0.000000
    13  H    4.836612   0.998457   0.000000
    14  H    5.000273   0.993910   1.569980   0.000000
    15  H    3.494330   1.330753   1.862812   1.870380   0.000000
 Symmetry turned off by external request.
 Stoichiometry    C3H9O3(1+)
 Framework group  C1[X(C3H9O3)]
 Deg. of freedom    39
 Full point group                 C1      NOp   1
 Rotational constants (GHZ):      5.1322951      1.7589404      1.3403909
 Standard basis: 6-31+G(d) (6D, 7F)
 Integral buffers will be    262144 words long.
 Raffenetti 2 integral format.
 Two-electron integral symmetry is turned off.
   132 basis functions,   228 primitive gaussians,   132 cartesian basis functions
    25 alpha electrons       25 beta electrons
       nuclear repulsion energy       257.2299386589 Hartrees.
 NAtoms=   15 NActive=   15 NUniq=   15 SFac= 7.50D-01 NAtFMM=   80 NAOKFM=F Big=F
 One-electron integrals computed using PRISM.
 NBasis=   132 RedAO= T  NBF=   132
 NBsUse=   132 1.00D-06 NBFU=   132
 Harris functional with IExCor= 3102 diagonalized for initial guess.
 ExpMin= 4.38D-02 ExpMax= 5.48D+03 ExpMxC= 8.25D+02 IAcc=2 IRadAn=         0 AccDes= 0.00D+00
 HarFok:  IExCor= 3102 AccDes= 0.00D+00 IRadAn=         0 IDoV= 1
 ScaDFX=  1.000000  1.000000  1.000000  1.000000
 FoFCou: FMM=F IPFlag=           0 FMFlag=      100000 FMFlg1=           0
         NFxFlg=           0 DoJE=T BraDBF=F KetDBF=T FulRan=T
         Omega=  0.000000  0.000000  1.000000  0.000000  0.000000 ICntrl=     500 IOpCl=  0
         NMat0=    1 NMatS0=    1 NMatT0=    0 NMatD0=    1 NMtDS0=    0 NMtDT0=    0
         I1Cent=           4 NGrid=           0.
 Symmetry not used in FoFCou.
 Requested convergence on RMS density matrix=1.00D-08 within 128 cycles.
 Requested convergence on MAX density matrix=1.00D-06.
 Requested convergence on             energy=1.00D-06.
 No special actions if energy rises.
 SCF Done:  E(RX3LYP) =  -345.022205269     A.U. after   12 cycles
             Convg  =    0.7702D-08             -V/T =  2.0098
 Range of M.O.s used for correlation:     1   132
 NBasis=   132 NAE=    25 NBE=    25 NFC=     0 NFV=     0
 NROrb=    132 NOA=    25 NOB=    25 NVA=   107 NVB=   107

 **** Warning!!: The largest alpha MO coefficient is  0.36604492D+02

 Symmetrizing basis deriv contribution to polar:
 IMax=3 JMax=2 DiffMx= 0.00D+00
 G2DrvN: will do    16 centers at a time, making    1 passes doing MaxLOS=2.
 Calling FoFCou, ICntrl=  3107 FMM=F I1Cent=   0 AccDes= 0.00D+00.
 FoFDir/FoFCou used for L=0 through L=2.
 End of G2Drv Frequency-dependent properties file   721 does not exist.
 End of G2Drv Frequency-dependent properties file   722 does not exist.
          IDoAtm=111111111111111
          Differentiating once with respect to nuclear coordinates.
          There are    48 degrees of freedom in the 1st order CPHF.  IDoFFX=5.
     42 vectors produced by pass  0 Test12= 5.57D-11 2.08D-07 XBig12= 1.69D-01 1.23D-01.
 AX will form    42 AO Fock derivatives at one time.
     42 vectors produced by pass  1 Test12= 5.57D-11 2.08D-07 XBig12= 4.92D-02 1.06D-01.
     42 vectors produced by pass  2 Test12= 5.57D-11 2.08D-07 XBig12= 7.84D-05 2.36D-03.
     41 vectors produced by pass  3 Test12= 5.57D-11 2.08D-07 XBig12= 2.40D-07 6.80D-05.
     20 vectors produced by pass  4 Test12= 5.57D-11 2.08D-07 XBig12= 3.63D-10 2.61D-06.
 Inverted reduced A of dimension   187 with in-core refinement.
 End of Minotr Frequency-dependent properties file   721 does not exist.
 End of Minotr Frequency-dependent properties file   722 does not exist.

 **********************************************************************

            Population analysis using the SCF density.

 **********************************************************************

 Alpha  occ. eigenvalues --  -19.45163 -19.43382 -19.42175 -10.56956 -10.42793
 Alpha  occ. eigenvalues --  -10.39997  -1.32577  -1.27383  -1.23727  -0.96648
 Alpha  occ. eigenvalues --   -0.88710  -0.81339  -0.76967  -0.73017  -0.70286
 Alpha  occ. eigenvalues --   -0.68181  -0.66961  -0.61250  -0.60635  -0.58608
 Alpha  occ. eigenvalues --   -0.57528  -0.56428  -0.54248  -0.53238  -0.51177
 Alpha virt. eigenvalues --   -0.21476  -0.17569  -0.12411  -0.10729  -0.09306
 Alpha virt. eigenvalues --   -0.08570  -0.07060  -0.06797  -0.06153  -0.05455
 Alpha virt. eigenvalues --   -0.04920  -0.02849  -0.02342  -0.01711  -0.00599
 Alpha virt. eigenvalues --    0.01368   0.01740   0.02386   0.03013   0.03667
 Alpha virt. eigenvalues --    0.04645   0.05208   0.06794   0.07871   0.09245
 Alpha virt. eigenvalues --    0.10606   0.11122   0.13090   0.13931   0.14513
 Alpha virt. eigenvalues --    0.16017   0.17964   0.19211   0.20935   0.23105
 Alpha virt. eigenvalues --    0.23819   0.25553   0.27104   0.49300   0.50283
 Alpha virt. eigenvalues --    0.50553   0.51827   0.55778   0.56373   0.58341
 Alpha virt. eigenvalues --    0.63390   0.67078   0.73315   0.77532   0.77638
 Alpha virt. eigenvalues --    0.80126   0.82917   0.84224   0.87069   0.90438
 Alpha virt. eigenvalues --    0.93052   0.94119   0.95969   0.97572   0.98294
 Alpha virt. eigenvalues --    0.99604   1.03261   1.06302   1.09329   1.12035
 Alpha virt. eigenvalues --    1.18629   1.19987   1.21310   1.29869   1.34180
 Alpha virt. eigenvalues --    1.37007   1.39544   1.42293   1.47700   1.51362
 Alpha virt. eigenvalues --    1.51542   1.55568   1.56639   1.58439   1.67429
 Alpha virt. eigenvalues --    1.73994   1.77069   1.79787   1.82529   1.96137
 Alpha virt. eigenvalues --    1.97285   1.99731   2.02378   2.05716   2.11490
 Alpha virt. eigenvalues --    2.13086   2.21097   2.30093   2.35324   2.40465
 Alpha virt. eigenvalues --    2.42709   2.44855   2.67085   2.76543   2.84845
 Alpha virt. eigenvalues --    2.92370   3.68065   4.02871   4.06070   4.16770
 Alpha virt. eigenvalues --    4.21529   4.36803
          Condensed to atoms (all electrons):
              1          2          3          4          5          6
     1  C    6.131973   0.432001   0.344824   0.393987  -0.274238  -0.013541
     2  H    0.432001   0.408415  -0.018288  -0.022997  -0.093524   0.006162
     3  H    0.344824  -0.018288   0.411479  -0.020135  -0.006103  -0.001569
     4  H    0.393987  -0.022997  -0.020135   0.448429  -0.064364  -0.002233
     5  C   -0.274238  -0.093524  -0.006103  -0.064364   5.255195   0.258496
     6  O   -0.013541   0.006162  -0.001569  -0.002233   0.258496   8.387638
     7  O   -0.144587  -0.001722  -0.004430   0.007044   0.345695  -0.091482
     8  C   -0.016250  -0.001460  -0.001486   0.001412  -0.130996  -0.032312
     9  H   -0.003953  -0.000014  -0.000002   0.000004   0.008296   0.000072
    10  H    0.002618  -0.000010   0.000045  -0.000005  -0.010970   0.000851
    11  H    0.001592   0.000006  -0.000012   0.000012  -0.017024   0.007950
    12  O   -0.015313  -0.000039   0.000060   0.000954   0.020329  -0.039208
    13  H    0.004193   0.000000  -0.000006   0.000021  -0.004944   0.000480
    14  H   -0.001440   0.000001  -0.000001  -0.000051   0.001255  -0.003799
    15  H   -0.033152   0.000021   0.000104   0.000931   0.028642   0.113754
              7          8          9         10         11         12
     1  C   -0.144587  -0.016250  -0.003953   0.002618   0.001592  -0.015313
     2  H   -0.001722  -0.001460  -0.000014  -0.000010   0.000006  -0.000039
     3  H   -0.004430  -0.001486  -0.000002   0.000045  -0.000012   0.000060
     4  H    0.007044   0.001412   0.000004  -0.000005   0.000012   0.000954
     5  C    0.345695  -0.130996   0.008296  -0.010970  -0.017024   0.020329
     6  O   -0.091482  -0.032312   0.000072   0.000851   0.007950  -0.039208
     7  O    8.139564   0.093054  -0.048257  -0.027929  -0.026630  -0.001361
     8  C    0.093054   5.292766   0.390265   0.383625   0.380080  -0.004067
     9  H   -0.048257   0.390265   0.441208  -0.021269  -0.023018   0.000003
    10  H   -0.027929   0.383625  -0.021269   0.445567  -0.026058  -0.000004
    11  H   -0.026630   0.380080  -0.023018  -0.026058   0.454212  -0.000041
    12  O   -0.001361  -0.004067   0.000003  -0.000004  -0.000041   8.501731
    13  H    0.000026  -0.000180   0.000000   0.000000   0.000001   0.228356
    14  H   -0.000038   0.000338   0.000000   0.000000  -0.000001   0.226880
    15  H    0.007116   0.006201  -0.000001  -0.000053  -0.000014   0.053844
             13         14         15
     1  C    0.004193  -0.001440  -0.033152
     2  H    0.000000   0.000001   0.000021
     3  H   -0.000006  -0.000001   0.000104
     4  H    0.000021  -0.000051   0.000931
     5  C   -0.004944   0.001255   0.028642
     6  O    0.000480  -0.003799   0.113754
     7  O    0.000026  -0.000038   0.007116
     8  C   -0.000180   0.000338   0.006201
     9  H    0.000000   0.000000  -0.000001
    10  H    0.000000   0.000000  -0.000053
    11  H    0.000001  -0.000001  -0.000014
    12  O    0.228356   0.226880   0.053844
    13  H    0.242486  -0.021311  -0.005339
    14  H   -0.021311   0.245151  -0.003309
    15  H   -0.005339  -0.003309   0.252071
 Mulliken atomic charges:
              1
     1  C   -0.808714
     2  H    0.291448
     3  H    0.295521
     4  H    0.256990
     5  C    0.684255
     6  O   -0.591258
     7  O   -0.246061
     8  C   -0.360989
     9  H    0.256667
    10  H    0.253591
    11  H    0.248945
    12  O   -0.972125
    13  H    0.556218
    14  H    0.556327
    15  H    0.579185
 Sum of Mulliken atomic charges =   1.00000
 Mulliken charges with hydrogens summed into heavy atoms:
              1
     1  C    0.035245
     5  C    0.684255
     6  O   -0.012073
     7  O   -0.246061
     8  C    0.398214
    12  O    0.140421
 Sum of Mulliken charges with hydrogens summed into heavy atoms =   1.00000
 APT atomic charges:
              1
     1  C   -1.661308
     2  H    0.632486
     3  H    0.569071
     4  H    0.509493
     5  C    0.523648
     6  O   -0.564570
     7  O    0.001237
     8  C   -1.330990
     9  H    0.719083
    10  H    0.490507
    11  H    0.358308
    12  O   -1.458546
    13  H    0.786258
    14  H    0.807659
    15  H    0.617665
 Sum of APT charges=   1.00000
 APT Atomic charges with hydrogens summed into heavy atoms:
              1
     1  C    0.049741
     2  H    0.000000
     3  H    0.000000
     4  H    0.000000
     5  C    0.523648
     6  O    0.053095
     7  O    0.001237
     8  C    0.236908
     9  H    0.000000
    10  H    0.000000
    11  H    0.000000
    12  O    0.135371
    13  H    0.000000
    14  H    0.000000
    15  H    0.000000
 Sum of APT charges=   1.00000
 Electronic spatial extent (au):  <R**2>=            854.8305
 Charge=              1.0000 electrons
 Dipole moment (field-independent basis, Debye):
    X=             -3.8067    Y=             -1.5642    Z=             -0.6475  Tot=              4.1662
 Quadrupole moment (field-independent basis, Debye-Ang):
   XX=             -8.5883   YY=            -24.2082   ZZ=            -32.4090
   XY=              4.6844   XZ=              2.8683   YZ=             -0.2801
 Traceless Quadrupole moment (field-independent basis, Debye-Ang):
   XX=             13.1468   YY=             -2.4730   ZZ=            -10.6738
   XY=              4.6844   XZ=              2.8683   YZ=             -0.2801
 Octapole moment (field-independent basis, Debye-Ang**2):
  XXX=            -54.4140  YYY=              1.7444  ZZZ=              0.7307  XYY=            -10.6252
  XXY=            -45.2913  XXZ=            -11.5952  XZZ=             -9.7199  YZZ=             -3.1945
  YYZ=              1.9380  XYZ=              0.6874
 Hexadecapole moment (field-independent basis, Debye-Ang**3):
 XXXX=           -416.5922 YYYY=           -249.9274 ZZZZ=            -43.7032 XXXY=             86.9877
 XXXZ=             32.9287 YYYX=             23.8560 YYYZ=             -1.8766 ZZZX=              6.0063
 ZZZY=              1.1833 XXYY=           -108.5735 XXZZ=            -94.4105 YYZZ=            -49.0432
 XXYZ=             -5.3664 YYXZ=             -4.9540 ZZXY=              8.0664
 N-N= 2.572299386589D+02 E-N=-1.312148933405D+03  KE= 3.416596273589D+02
  Exact polarizability:   0.000   0.000   0.000   0.000   0.000   0.000
 Approx polarizability:  78.000   1.938  65.357   0.633   0.162  51.051
 Calling FoFJK, ICntrl=    100147 FMM=F ISym2X=0 I1Cent= 0 IOpClX= 0 NMat=1 NMatS=1 NMatT=0.
 -------------------------------------------------------------------
 Center     Atomic                   Forces (Hartrees/Bohr)
 Number     Number              X              Y              Z
 -------------------------------------------------------------------
      1        6          -0.006085952    0.035309066   -0.002056128
      2        1          -0.004915526   -0.014302716    0.003706236
      3        1           0.000892553   -0.009422122   -0.006470270
      4        1           0.004475955   -0.007397547    0.004384689
      5        6           0.019207914   -0.026656795   -0.001035893
      6        8          -0.017498733    0.022434357   -0.005841518
      7        8          -0.026960002   -0.001727805    0.000808094
      8        6           0.011893811    0.007343247   -0.002842930
      9        1          -0.007749529   -0.006582031    0.004833820
     10        1          -0.000126912    0.000036470   -0.004606900
     11        1           0.001325563    0.004031947    0.002592532
     12        8           0.001359859   -0.025116224   -0.013681234
     13        1           0.000687289    0.017032206   -0.005979930
     14        1           0.000742945    0.006541470    0.013418399
     15        1           0.022750763   -0.001523522    0.012771032
 -------------------------------------------------------------------
 Cartesian Forces:  Max     0.035309066 RMS     0.012328265
 IRC-IRC-IRC-IRC-IRC-IRC-IRC-IRC-IRC-IRC-IRC-IRC-IRC-IRC-IRC-IRC-IRC-IRC
          ******** Start new reaction path calculation ********
 Supplied step size of   0.1000 bohr.
    Integration on MW PES will use step size of   0.1147 sqrt(amu)*bohr.
 Point Number:   0          Path Number:   1
 Calculating another point on the path.
 IRC-IRC-IRC-IRC-IRC-IRC-IRC-IRC-IRC-IRC-IRC-IRC-IRC-IRC-IRC-IRC-IRC-IRC
                          Input orientation:                          
 ---------------------------------------------------------------------
 Center     Atomic      Atomic             Coordinates (Angstroms)
 Number     Number       Type             X           Y           Z
 ---------------------------------------------------------------------
      1          6           0       -0.086251    1.846230    0.012884
      2          1           0        0.684358    2.540646   -0.395790
      3          1           0       -0.258679    2.209789    1.051632
      4          1           0       -1.016682    2.049147   -0.548736
      5          6           0        0.335558    0.437344   -0.014865
      6          8           0       -0.429264   -0.590355   -0.025606
      7          8           0        1.638480    0.246863   -0.013062
      8          6           0        2.169885   -1.128733    0.005993
      9          1           0        3.187004   -0.972610   -0.391230
     10          1           0        2.189393   -1.462645    1.050682
     11          1           0        1.578601   -1.794949   -0.630792
     12          8           0       -2.919215   -0.524302    0.049839
     13          1           0       -3.072905   -1.350762    0.590739
     14          1           0       -3.300080   -0.742724   -0.843046
     15          1           0       -1.656996   -0.453873   -0.108521
 ---------------------------------------------------------------------
                    Distance matrix (angstroms):
                    1          2          3          4          5
     1  C    0.000000
     2  H    1.114929   0.000000
     3  H    1.113959   1.758925   0.000000
     4  H    1.105574   1.777217   1.778075   0.000000
     5  C    1.470936   2.165789   2.152230   2.170595   0.000000
     6  O    2.460911   3.343704   3.005053   2.754214   1.281106
     7  O    2.352307   2.513617   2.930165   3.253469   1.316773
     8  C    3.733712   3.979015   4.258757   4.534408   2.412009
     9  H    4.338591   4.313493   4.907367   5.179459   3.203180
    10  H    4.147799   4.514837   4.413596   5.016945   2.860429
    11  H    4.055149   4.433089   4.716362   4.638890   2.628241
    12  O    3.694113   4.751656   3.944273   3.255851   3.394481
    13  H    4.413023   5.498483   4.561777   4.133502   3.896371
    14  H    4.214735   5.182306   4.642979   3.618711   3.911050
    15  H    2.787912   3.812034   3.224335   2.620858   2.184791
                    6          7          8          9         10
     6  O    0.000000
     7  O    2.230842   0.000000
     8  C    2.654510   1.474794   0.000000
     9  H    3.654749   2.007000   1.103038   0.000000
    10  H    2.962541   2.087456   1.096929   1.820569   0.000000
    11  H    2.418433   2.134050   1.094968   1.822249   1.819573
    12  O    2.491970   4.622904   5.125056   6.138520   5.289617
    13  H    2.819032   5.011401   5.279969   6.347734   5.283545
    14  H    2.988814   5.104658   5.548908   6.506861   5.851393
    15  H    1.238075   3.370505   3.887617   4.879892   4.141990
                   11         12         13         14         15
    11  H    0.000000
    12  O    4.723151   0.000000
    13  H    4.829695   0.999614   0.000000
    14  H    4.995373   0.994993   1.573867   0.000000
    15  H    3.541234   1.274063   1.816087   1.822824   0.000000
 Symmetry turned off by external request.
 Stoichiometry    C3H9O3(1+)
 Framework group  C1[X(C3H9O3)]
 Deg. of freedom    39
 Full point group                 C1      NOp   1
 Rotational constants (GHZ):      5.1366518      1.7610513      1.3419182
 Standard basis: 6-31+G(d) (6D, 7F)
 Integral buffers will be    262144 words long.
 Raffenetti 2 integral format.
 Two-electron integral symmetry is turned off.
   132 basis functions,   228 primitive gaussians,   132 cartesian basis functions
    25 alpha electrons       25 beta electrons
       nuclear repulsion energy       257.2575168364 Hartrees.
 NAtoms=   15 NActive=   15 NUniq=   15 SFac= 7.50D-01 NAtFMM=   80 NAOKFM=F Big=F
 One-electron integrals computed using PRISM.
 NBasis=   132 RedAO= T  NBF=   132
 NBsUse=   132 1.00D-06 NBFU=   132
 Initial guess read from the read-write file.
 B after Tr=     0.000000    0.000000    0.000000
         Rot=    1.000000    0.000000    0.000000    0.000000 Ang=   0.00 deg.
 Harris functional with IExCor= 3102 diagonalized for initial guess.
 ExpMin= 4.38D-02 ExpMax= 5.48D+03 ExpMxC= 8.25D+02 IAcc=2 IRadAn=         0 AccDes= 0.00D+00
 HarFok:  IExCor= 3102 AccDes= 0.00D+00 IRadAn=         0 IDoV= 1
 ScaDFX=  1.000000  1.000000  1.000000  1.000000
 FoFCou: FMM=F IPFlag=           0 FMFlag=      100000 FMFlg1=           0
         NFxFlg=           0 DoJE=T BraDBF=F KetDBF=T FulRan=T
         Omega=  0.000000  0.000000  1.000000  0.000000  0.000000 ICntrl=     500 IOpCl=  0
         NMat0=    1 NMatS0=    1 NMatT0=    0 NMatD0=    1 NMtDS0=    0 NMtDT0=    0
         I1Cent=           4 NGrid=           0.
 Symmetry not used in FoFCou.
 Requested convergence on RMS density matrix=1.00D-08 within 128 cycles.
 Requested convergence on MAX density matrix=1.00D-06.
 Requested convergence on             energy=1.00D-06.
 No special actions if energy rises.
 SCF Done:  E(RX3LYP) =  -345.020362834     A.U. after   10 cycles
             Convg  =    0.6843D-08             -V/T =  2.0098
 Range of M.O.s used for correlation:     1   132
 NBasis=   132 NAE=    25 NBE=    25 NFC=     0 NFV=     0
 NROrb=    132 NOA=    25 NOB=    25 NVA=   107 NVB=   107

 **** Warning!!: The largest alpha MO coefficient is  0.35412379D+02

 Symmetrizing basis deriv contribution to polar:
 IMax=3 JMax=2 DiffMx= 0.00D+00
 Calling FoFJK, ICntrl=      2147 FMM=F ISym2X=0 I1Cent= 0 IOpClX= 0 NMat=1 NMatS=1 NMatT=0.
 -------------------------------------------------------------------
 Center     Atomic                   Forces (Hartrees/Bohr)
 Number     Number              X              Y              Z
 -------------------------------------------------------------------
      1        6          -0.005873782    0.035279699   -0.002011900
      2        1          -0.004893482   -0.014311744    0.003703891
      3        1           0.000914004   -0.009408155   -0.006472002
      4        1           0.004500276   -0.007376104    0.004373333
      5        6           0.018847996   -0.027259490   -0.000953944
      6        8          -0.016836492    0.022955338   -0.005385619
      7        8          -0.026631312   -0.001720854    0.000714156
      8        6           0.011806182    0.007503764   -0.002839041
      9        1          -0.007748687   -0.006596270    0.004839396
     10        1          -0.000134665    0.000027798   -0.004609990
     11        1           0.001318214    0.004039876    0.002593864
     12        8           0.002106087   -0.025323690   -0.014035212
     13        1           0.000782839    0.016997627   -0.005932448
     14        1           0.000790694    0.006547766    0.013333812
     15        1           0.021052129   -0.001355561    0.012681704
 -------------------------------------------------------------------
 Cartesian Forces:  Max     0.035279699 RMS     0.012268694
 IRC-IRC-IRC-IRC-IRC-IRC-IRC-IRC-IRC-IRC-IRC-IRC-IRC-IRC-IRC-IRC-IRC-IRC
 Pt  1 Step number   1 out of a maximum of  20
 CORRECTOR INTEGRATION CONVERGENCE:
   Recorrection delta-x convergence threshold:    0.010000
   Delta-x Convergence NOT Met
 IRC-IRC-IRC-IRC-IRC-IRC-IRC-IRC-IRC-IRC-IRC-IRC-IRC-IRC-IRC-IRC-IRC-IRC
                          Input orientation:                          
 ---------------------------------------------------------------------
 Center     Atomic      Atomic             Coordinates (Angstroms)
 Number     Number       Type             X           Y           Z
 ---------------------------------------------------------------------
      1          6           0       -0.087149    1.848219    0.012685
      2          1           0        0.681351    2.532108   -0.393632
      3          1           0       -0.259023    2.203204    1.048251
      4          1           0       -1.015212    2.043576   -0.545919
      5          6           0        0.337719    0.437181   -0.015095
      6          8           0       -0.428565   -0.590500   -0.026647
      7          8           0        1.636757    0.246769   -0.012681
      8          6           0        2.170728   -1.128719    0.006008
      9          1           0        3.182777   -0.976558   -0.388222
     10          1           0        2.189413   -1.462548    1.048267
     11          1           0        1.579475   -1.792698   -0.629206
     12          8           0       -2.921686   -0.524889    0.049860
     13          1           0       -3.076482   -1.340547    0.587370
     14          1           0       -3.302604   -0.738546   -0.834513
     15          1           0       -1.615259   -0.454763   -0.102401
 ---------------------------------------------------------------------
                    Distance matrix (angstroms):
                    1          2          3          4          5
     1  C    0.000000
     2  H    1.106070   0.000000
     3  H    1.108130   1.752571   0.000000
     4  H    1.100683   1.772055   1.771632   0.000000
     5  C    1.473876   2.156407   2.146076   2.166264   0.000000
     6  O    2.462816   3.334257   2.998155   2.748119   1.281972
     7  O    2.353112   2.506132   2.923559   3.247429   1.312921
     8  C    3.736336   3.972355   4.253430   4.529711   2.410894
     9  H    4.339643   4.309048   4.901054   5.173894   3.198787
    10  H    4.149258   4.506728   4.408240   5.010384   2.858056
    11  H    4.055359   4.423355   4.707566   4.632098   2.625158
    12  O    3.696975   4.745924   3.940692   3.253707   3.399047
    13  H    4.408469   5.484627   4.550677   4.121343   3.896158
    14  H    4.212866   5.173340   4.632718   3.613260   3.912254
    15  H    2.766241   3.778972   3.198150   2.607386   2.148792
                    6          7          8          9         10
     6  O    0.000000
     7  O    2.228625   0.000000
     8  C    2.654631   1.475615   0.000000
     9  H    3.649872   2.006923   1.096729   0.000000
    10  H    2.961370   2.086338   1.094576   1.812860   0.000000
    11  H    2.416730   2.131387   1.092678   1.815140   1.815196
    12  O    2.495158   4.623718   5.128276   6.136807   5.291442
    13  H    2.819761   5.009416   5.283565   6.345281   5.287434
    14  H    2.989091   5.103287   5.551222   6.505074   5.850751
    15  H    1.196832   3.328033   3.847033   4.834781   4.100633
                   11         12         13         14         15
    11  H    0.000000
    12  O    4.725350   0.000000
    13  H    4.833470   0.989029   0.000000
    14  H    4.998808   0.986339   1.560542   0.000000
    15  H    3.503415   1.317139   1.842707   1.861090   0.000000
 Symmetry turned off by external request.
 Stoichiometry    C3H9O3(1+)
 Framework group  C1[X(C3H9O3)]
 Deg. of freedom    39
 Full point group                 C1      NOp   1
 Rotational constants (GHZ):      5.1403455      1.7609146      1.3418021
 Standard basis: 6-31+G(d) (6D, 7F)
 Integral buffers will be    262144 words long.
 Raffenetti 2 integral format.
 Two-electron integral symmetry is turned off.
   132 basis functions,   228 primitive gaussians,   132 cartesian basis functions
    25 alpha electrons       25 beta electrons
       nuclear repulsion energy       257.5199502465 Hartrees.
 NAtoms=   15 NActive=   15 NUniq=   15 SFac= 7.50D-01 NAtFMM=   80 NAOKFM=F Big=F
 One-electron integrals computed using PRISM.
 NBasis=   132 RedAO= T  NBF=   132
 NBsUse=   132 1.00D-06 NBFU=   132
 Initial guess read from the read-write file.
 B after Tr=     0.000000    0.000000    0.000000
         Rot=    1.000000    0.000000    0.000000    0.000000 Ang=   0.00 deg.
 Harris functional with IExCor= 3102 diagonalized for initial guess.
 ExpMin= 4.38D-02 ExpMax= 5.48D+03 ExpMxC= 8.25D+02 IAcc=2 IRadAn=         0 AccDes= 0.00D+00
 HarFok:  IExCor= 3102 AccDes= 0.00D+00 IRadAn=         0 IDoV= 1
 ScaDFX=  1.000000  1.000000  1.000000  1.000000
 FoFCou: FMM=F IPFlag=           0 FMFlag=      100000 FMFlg1=           0
         NFxFlg=           0 DoJE=T BraDBF=F KetDBF=T FulRan=T
         Omega=  0.000000  0.000000  1.000000  0.000000  0.000000 ICntrl=     500 IOpCl=  0
         NMat0=    1 NMatS0=    1 NMatT0=    0 NMatD0=    1 NMtDS0=    0 NMtDT0=    0
         I1Cent=           4 NGrid=           0.
 Symmetry not used in FoFCou.
 Requested convergence on RMS density matrix=1.00D-08 within 128 cycles.
 Requested convergence on MAX density matrix=1.00D-06.
 Requested convergence on             energy=1.00D-06.
 No special actions if energy rises.
 SCF Done:  E(RX3LYP) =  -345.023657280     A.U. after   10 cycles
             Convg  =    0.7534D-08             -V/T =  2.0096
 Range of M.O.s used for correlation:     1   132
 NBasis=   132 NAE=    25 NBE=    25 NFC=     0 NFV=     0
 NROrb=    132 NOA=    25 NOB=    25 NVA=   107 NVB=   107

 **** Warning!!: The largest alpha MO coefficient is  0.36643388D+02

 Symmetrizing basis deriv contribution to polar:
 IMax=3 JMax=2 DiffMx= 0.00D+00
 Calling FoFJK, ICntrl=      2147 FMM=F ISym2X=0 I1Cent= 0 IOpClX= 0 NMat=1 NMatS=1 NMatT=0.
 -------------------------------------------------------------------
 Center     Atomic                   Forces (Hartrees/Bohr)
 Number     Number              X              Y              Z
 -------------------------------------------------------------------
      1        6          -0.005688280    0.027353853   -0.001694176
      2        1          -0.001803706   -0.010539273    0.001905571
      3        1           0.000385744   -0.007772059   -0.003423338
      4        1           0.002155991   -0.006324189    0.002817049
      5        6           0.017636115   -0.022479294   -0.000946691
      6        8          -0.017132028    0.020286242   -0.005029406
      7        8          -0.025517187   -0.002387539    0.000691388
      8        6           0.008940949    0.007295550   -0.001936447
      9        1          -0.004237629   -0.005485646    0.003289595
     10        1          -0.000211313   -0.000255889   -0.003062303
     11        1           0.000541461    0.003066808    0.001675897
     12        8           0.004799532   -0.017372225   -0.011205538
     13        1          -0.000893544    0.010507079   -0.001837802
     14        1          -0.001307556    0.005064187    0.007565493
     15        1           0.022331450   -0.000957604    0.011190708
 -------------------------------------------------------------------
 Cartesian Forces:  Max     0.027353853 RMS     0.010245155
 IRC-IRC-IRC-IRC-IRC-IRC-IRC-IRC-IRC-IRC-IRC-IRC-IRC-IRC-IRC-IRC-IRC-IRC
 Error in corrector energy =          -0.0000003176
 Magnitude of corrector gradient =     0.0687475381
 Magnitude of analytic gradient =      0.0687265876
 Magnitude of difference =             0.0004829745
 Angle between gradients (degrees)=    0.4022
 Pt  1 Step number   2 out of a maximum of  20
 CORRECTOR INTEGRATION CONVERGENCE:
   Recorrection delta-x convergence threshold:    0.010000
   Delta-x Convergence NOT Met
 IRC-IRC-IRC-IRC-IRC-IRC-IRC-IRC-IRC-IRC-IRC-IRC-IRC-IRC-IRC-IRC-IRC-IRC
                          Input orientation:                          
 ---------------------------------------------------------------------
 Center     Atomic      Atomic             Coordinates (Angstroms)
 Number     Number       Type             X           Y           Z
 ---------------------------------------------------------------------
      1          6           0       -0.087220    1.847438    0.012698
      2          1           0        0.682128    2.536176   -0.394443
      3          1           0       -0.259551    2.205750    1.049844
      4          1           0       -1.016600    2.045478   -0.546940
      5          6           0        0.337666    0.438378   -0.015140
      6          8           0       -0.427616   -0.591385   -0.026868
      7          8           0        1.637055    0.246809   -0.012553
      8          6           0        2.170545   -1.129091    0.006135
      9          1           0        3.184652   -0.974489   -0.389454
     10          1           0        2.189527   -1.462430    1.049596
     11          1           0        1.579281   -1.793934   -0.629845
     12          8           0       -2.922831   -0.524322    0.050348
     13          1           0       -3.077895   -1.344658    0.588293
     14          1           0       -3.303427   -0.740359   -0.837287
     15          1           0       -1.611654   -0.454390   -0.107245
 ---------------------------------------------------------------------
                    Distance matrix (angstroms):
                    1          2          3          4          5
     1  C    0.000000
     2  H    1.109964   0.000000
     3  H    1.110745   1.755535   0.000000
     4  H    1.102798   1.774744   1.774410   0.000000
     5  C    1.471990   2.159463   2.148130   2.167861   0.000000
     6  O    2.462782   3.338904   3.001919   2.751440   1.283045
     7  O    2.352823   2.509766   2.926303   3.250026   1.313437
     8  C    3.735943   3.976183   4.256273   4.532292   2.411816
     9  H    4.339372   4.311313   4.903879   5.176439   3.200255
    10  H    4.148971   4.510693   4.410615   5.013342   2.859392
    11  H    4.055820   4.428335   4.711701   4.635359   2.627296
    12  O    3.696938   4.749759   3.942759   3.254895   3.400282
    13  H    4.411907   5.492214   4.556478   4.126828   3.899924
    14  H    4.214636   5.178459   4.637457   3.615905   3.914449
    15  H    2.763458   3.779868   3.200529   2.607060   2.146012
                    6          7          8          9         10
     6  O    0.000000
     7  O    2.228372   0.000000
     8  C    2.653424   1.475826   0.000000
     9  H    3.650578   2.007157   1.099457   0.000000
    10  H    2.960900   2.086836   1.095576   1.816377   0.000000
    11  H    2.416059   2.132843   1.093654   1.818376   1.817365
    12  O    2.497310   4.625058   5.129345   6.139823   5.292895
    13  H    2.823088   5.012439   5.285027   6.349214   5.288895
    14  H    2.991532   5.105199   5.552193   6.507729   5.852713
    15  H    1.194644   3.324870   3.843580   4.832670   4.099195
                   11         12         13         14         15
    11  H    0.000000
    12  O    4.726901   0.000000
    13  H    4.834770   0.993167   0.000000
    14  H    4.999389   0.989657   1.564710   0.000000
    15  H    3.499937   1.322464   1.851003   1.864627   0.000000
 Symmetry turned off by external request.
 Stoichiometry    C3H9O3(1+)
 Framework group  C1[X(C3H9O3)]
 Deg. of freedom    39
 Full point group                 C1      NOp   1
 Rotational constants (GHZ):      5.1368713      1.7600813      1.3412056
 Standard basis: 6-31+G(d) (6D, 7F)
 Integral buffers will be    262144 words long.
 Raffenetti 2 integral format.
 Two-electron integral symmetry is turned off.
   132 basis functions,   228 primitive gaussians,   132 cartesian basis functions
    25 alpha electrons       25 beta electrons
       nuclear repulsion energy       257.3930800206 Hartrees.
 NAtoms=   15 NActive=   15 NUniq=   15 SFac= 7.50D-01 NAtFMM=   80 NAOKFM=F Big=F
 One-electron integrals computed using PRISM.
 NBasis=   132 RedAO= T  NBF=   132
 NBsUse=   132 1.00D-06 NBFU=   132
 Initial guess read from the read-write file.
 B after Tr=     0.000000    0.000000    0.000000
         Rot=    1.000000    0.000000    0.000000    0.000000 Ang=   0.00 deg.
 Harris functional with IExCor= 3102 diagonalized for initial guess.
 ExpMin= 4.38D-02 ExpMax= 5.48D+03 ExpMxC= 8.25D+02 IAcc=2 IRadAn=         0 AccDes= 0.00D+00
 HarFok:  IExCor= 3102 AccDes= 0.00D+00 IRadAn=         0 IDoV= 1
 ScaDFX=  1.000000  1.000000  1.000000  1.000000
 FoFCou: FMM=F IPFlag=           0 FMFlag=      100000 FMFlg1=           0
         NFxFlg=           0 DoJE=T BraDBF=F KetDBF=T FulRan=T
         Omega=  0.000000  0.000000  1.000000  0.000000  0.000000 ICntrl=     500 IOpCl=  0
         NMat0=    1 NMatS0=    1 NMatT0=    0 NMatD0=    1 NMtDS0=    0 NMtDT0=    0
         I1Cent=           4 NGrid=           0.
 Symmetry not used in FoFCou.
 Requested convergence on RMS density matrix=1.00D-08 within 128 cycles.
 Requested convergence on MAX density matrix=1.00D-06.
 Requested convergence on             energy=1.00D-06.
 No special actions if energy rises.
 SCF Done:  E(RX3LYP) =  -345.023069134     A.U. after    9 cycles
             Convg  =    0.8632D-08             -V/T =  2.0097
 Range of M.O.s used for correlation:     1   132
 NBasis=   132 NAE=    25 NBE=    25 NFC=     0 NFV=     0
 NROrb=    132 NOA=    25 NOB=    25 NVA=   107 NVB=   107

 **** Warning!!: The largest alpha MO coefficient is  0.36631669D+02

 Symmetrizing basis deriv contribution to polar:
 IMax=3 JMax=2 DiffMx= 0.00D+00
 Calling FoFJK, ICntrl=      2147 FMM=F ISym2X=0 I1Cent= 0 IOpClX= 0 NMat=1 NMatS=1 NMatT=0.
 -------------------------------------------------------------------
 Center     Atomic                   Forces (Hartrees/Bohr)
 Number     Number              X              Y              Z
 -------------------------------------------------------------------
      1        6          -0.005839686    0.030846854   -0.001856309
      2        1          -0.003194266   -0.012207108    0.002708401
      3        1           0.000609812   -0.008497415   -0.004773637
      4        1           0.003181240   -0.006793658    0.003509155
      5        6           0.018313670   -0.024289648   -0.000985535
      6        8          -0.017294664    0.021223644   -0.005379918
      7        8          -0.026147508   -0.002101053    0.000741613
      8        6           0.010250287    0.007311108   -0.002337924
      9        1          -0.005793669   -0.005966121    0.003972448
     10        1          -0.000173520   -0.000126216   -0.003742858
     11        1           0.000887666    0.003492011    0.002079444
     12        8           0.003276363   -0.020811622   -0.012292490
     13        1          -0.000184188    0.013410352   -0.003691653
     14        1          -0.000392041    0.005713646    0.010159539
     15        1           0.022500505   -0.001204775    0.011889725
 -------------------------------------------------------------------
 Cartesian Forces:  Max     0.030846854 RMS     0.011122487
 IRC-IRC-IRC-IRC-IRC-IRC-IRC-IRC-IRC-IRC-IRC-IRC-IRC-IRC-IRC-IRC-IRC-IRC
 Error in corrector energy =          -0.0000340003
 Magnitude of corrector gradient =     0.0736370064
 Magnitude of analytic gradient =      0.0746119138
 Magnitude of difference =             0.0049120990
 Angle between gradients (degrees)=    3.7221
 Pt  1 Step number   3 out of a maximum of  20
 CORRECTOR INTEGRATION CONVERGENCE:
   Recorrection delta-x convergence threshold:    0.010000
   Delta-x Convergence NOT Met
 IRC-IRC-IRC-IRC-IRC-IRC-IRC-IRC-IRC-IRC-IRC-IRC-IRC-IRC-IRC-IRC-IRC-IRC
                          Input orientation:                          
 ---------------------------------------------------------------------
 Center     Atomic      Atomic             Coordinates (Angstroms)
 Number     Number       Type             X           Y           Z
 ---------------------------------------------------------------------
      1          6           0       -0.087271    1.847008    0.012704
      2          1           0        0.682452    2.538381   -0.394841
      3          1           0       -0.259847    2.207147    1.050651
      4          1           0       -1.017329    2.046522   -0.547467
      5          6           0        0.337656    0.439084   -0.015168
      6          8           0       -0.427037   -0.591914   -0.027012
      7          8           0        1.637219    0.246835   -0.012472
      8          6           0        2.170450   -1.129314    0.006209
      9          1           0        3.185605   -0.973335   -0.390105
     10          1           0        2.189598   -1.462349    1.050310
     11          1           0        1.579201   -1.794614   -0.630178
     12          8           0       -2.923548   -0.524001    0.050637
     13          1           0       -3.078701   -1.346792    0.588675
     14          1           0       -3.303867   -0.741350   -0.838669
     15          1           0       -1.609216   -0.454195   -0.110006
 ---------------------------------------------------------------------
                    Distance matrix (angstroms):
                    1          2          3          4          5
     1  C    0.000000
     2  H    1.112009   0.000000
     3  H    1.112122   1.757012   0.000000
     4  H    1.103904   1.776084   1.775826   0.000000
     5  C    1.470915   2.161038   2.149193   2.168682   0.000000
     6  O    2.462795   3.341409   3.004006   2.753301   1.283687
     7  O    2.352670   2.511766   2.927783   3.251418   1.313709
     8  C    3.735752   3.978312   4.257837   4.533699   2.412356
     9  H    4.339159   4.312533   4.905342   5.177736   3.200987
    10  H    4.148808   4.512848   4.411914   5.014923   2.860137
    11  H    4.056087   4.431071   4.713956   4.637147   2.628512
    12  O    3.696971   4.751828   3.943919   3.255609   3.401075
    13  H    4.413701   5.496194   4.559587   4.129728   3.901983
    14  H    4.215558   5.181155   4.639959   3.617359   3.915644
    15  H    2.761686   3.779998   3.201665   2.606778   2.144120
                    6          7          8          9         10
     6  O    0.000000
     7  O    2.228198   0.000000
     8  C    2.652704   1.475964   0.000000
     9  H    3.650822   2.007217   1.100878   0.000000
    10  H    2.960584   2.087089   1.096096   1.818230   0.000000
    11  H    2.415634   2.133645   1.094161   1.820074   1.818523
    12  O    2.498641   4.625880   5.130029   6.141490   5.293780
    13  H    2.824930   5.014073   5.285844   6.351299   5.289748
    14  H    2.992870   5.106216   5.552700   6.509092   5.853737
    15  H    1.193064   3.322694   3.841245   4.830970   4.098011
                   11         12         13         14         15
    11  H    0.000000
    12  O    4.727866   0.000000
    13  H    4.835514   0.995260   0.000000
    14  H    4.999719   0.991336   1.566707   0.000000
    15  H    3.497614   1.325952   1.855874   1.866882   0.000000
 Symmetry turned off by external request.
 Stoichiometry    C3H9O3(1+)
 Framework group  C1[X(C3H9O3)]
 Deg. of freedom    39
 Full point group                 C1      NOp   1
 Rotational constants (GHZ):      5.1349316      1.7595906      1.3408524
 Standard basis: 6-31+G(d) (6D, 7F)
 Integral buffers will be    262144 words long.
 Raffenetti 2 integral format.
 Two-electron integral symmetry is turned off.
   132 basis functions,   228 primitive gaussians,   132 cartesian basis functions
    25 alpha electrons       25 beta electrons
       nuclear repulsion energy       257.3250613505 Hartrees.
 NAtoms=   15 NActive=   15 NUniq=   15 SFac= 7.50D-01 NAtFMM=   80 NAOKFM=F Big=F
 One-electron integrals computed using PRISM.
 NBasis=   132 RedAO= T  NBF=   132
 NBsUse=   132 1.00D-06 NBFU=   132
 Initial guess read from the read-write file.
 B after Tr=     0.000000    0.000000    0.000000
         Rot=    1.000000    0.000000    0.000000    0.000000 Ang=   0.00 deg.
 Harris functional with IExCor= 3102 diagonalized for initial guess.
 ExpMin= 4.38D-02 ExpMax= 5.48D+03 ExpMxC= 8.25D+02 IAcc=2 IRadAn=         0 AccDes= 0.00D+00
 HarFok:  IExCor= 3102 AccDes= 0.00D+00 IRadAn=         0 IDoV= 1
 ScaDFX=  1.000000  1.000000  1.000000  1.000000
 FoFCou: FMM=F IPFlag=           0 FMFlag=      100000 FMFlg1=           0
         NFxFlg=           0 DoJE=T BraDBF=F KetDBF=T FulRan=T
         Omega=  0.000000  0.000000  1.000000  0.000000  0.000000 ICntrl=     500 IOpCl=  0
         NMat0=    1 NMatS0=    1 NMatT0=    0 NMatD0=    1 NMtDS0=    0 NMtDT0=    0
         I1Cent=           4 NGrid=           0.
 Symmetry not used in FoFCou.
 Requested convergence on RMS density matrix=1.00D-08 within 128 cycles.
 Requested convergence on MAX density matrix=1.00D-06.
 Requested convergence on             energy=1.00D-06.
 No special actions if energy rises.
 SCF Done:  E(RX3LYP) =  -345.022724049     A.U. after    9 cycles
             Convg  =    0.4864D-08             -V/T =  2.0098
 Range of M.O.s used for correlation:     1   132
 NBasis=   132 NAE=    25 NBE=    25 NFC=     0 NFV=     0
 NROrb=    132 NOA=    25 NOB=    25 NVA=   107 NVB=   107

 **** Warning!!: The largest alpha MO coefficient is  0.36625480D+02

 Symmetrizing basis deriv contribution to polar:
 IMax=3 JMax=2 DiffMx= 0.00D+00
 Calling FoFJK, ICntrl=      2147 FMM=F ISym2X=0 I1Cent= 0 IOpClX= 0 NMat=1 NMatS=1 NMatT=0.
 -------------------------------------------------------------------
 Center     Atomic                   Forces (Hartrees/Bohr)
 Number     Number              X              Y              Z
 -------------------------------------------------------------------
      1        6          -0.005947658    0.032727679   -0.001939663
      2        1          -0.003896513   -0.013080116    0.003117564
      3        1           0.000724988   -0.008886992   -0.005468327
      4        1           0.003707615   -0.007050132    0.003868024
      5        6           0.018705852   -0.025322567   -0.001007617
      6        8          -0.017395011    0.021754369   -0.005580976
      7        8          -0.026506823   -0.001936133    0.000770405
      8        6           0.010927819    0.007336600   -0.002545535
      9        1          -0.006590855   -0.006226625    0.004326380
     10        1          -0.000153354   -0.000062348   -0.004097298
     11        1           0.001065296    0.003714165    0.002289896
     12        8           0.002519456   -0.022542433   -0.012869768
     13        1           0.000172989    0.014862484   -0.004597713
     14        1           0.000049995    0.006052009    0.011455973
     15        1           0.022616203   -0.001339960    0.012278656
 -------------------------------------------------------------------
 Cartesian Forces:  Max     0.032727679 RMS     0.011615994
 IRC-IRC-IRC-IRC-IRC-IRC-IRC-IRC-IRC-IRC-IRC-IRC-IRC-IRC-IRC-IRC-IRC-IRC
 Error in corrector energy =          -0.0000106430
 Magnitude of corrector gradient =     0.0770360339
 Magnitude of analytic gradient =      0.0779224541
 Magnitude of difference =             0.0040712131
 Angle between gradients (degrees)=    2.9388
 Pt  1 Step number   4 out of a maximum of  20
 CORRECTOR INTEGRATION CONVERGENCE:
   Recorrection delta-x convergence threshold:    0.010000
   Delta-x Convergence Met
 Point Number:   1          Path Number:   1
   CHANGE IN THE REACTION COORDINATE =    0.01195
   NET REACTION COORDINATE UP TO THIS POINT =    0.01195
  # OF POINTS ALONG THE PATH =   1
  # OF STEPS =   4

 Calculating another point on the path.
 IRC-IRC-IRC-IRC-IRC-IRC-IRC-IRC-IRC-IRC-IRC-IRC-IRC-IRC-IRC-IRC-IRC-IRC
                          Input orientation:                          
 ---------------------------------------------------------------------
 Center     Atomic      Atomic             Coordinates (Angstroms)
 Number     Number       Type             X           Y           Z
 ---------------------------------------------------------------------
      1          6           0       -0.088024    1.850306    0.012484
      2          1           0        0.676672    2.520105   -0.390324
      3          1           0       -0.258816    2.194907    1.042754
      4          1           0       -1.011923    2.036886   -0.542074
      5          6           0        0.339654    0.436868   -0.015334
      6          8           0       -0.427963   -0.590550   -0.027669
      7          8           0        1.635234    0.246833   -0.012342
      8          6           0        2.171650   -1.128556    0.005969
      9          1           0        3.176229   -0.981784   -0.384000
     10          1           0        2.189442   -1.462322    1.044512
     11          1           0        1.580838   -1.789314   -0.627017
     12          8           0       -2.923869   -0.525717    0.049639
     13          1           0       -3.077697   -1.326043    0.581809
     14          1           0       -3.303159   -0.733084   -0.822742
     15          1           0       -1.581517   -0.456264   -0.092848
 ---------------------------------------------------------------------
                    Distance matrix (angstroms):
                    1          2          3          4          5
     1  C    0.000000
     2  H    1.093455   0.000000
     3  H    1.099716   1.742011   0.000000
     4  H    1.093589   1.762919   1.761767   0.000000
     5  C    1.476987   2.143380   2.137386   2.159693   0.000000
     6  O    2.464742   3.320830   2.988844   2.740263   1.282566
     7  O    2.354009   2.495891   2.914728   3.239189   1.309446
     8  C    3.738955   3.962920   4.245879   4.522777   2.409816
     9  H    4.339733   4.302447   4.891474   5.165072   3.192906
    10  H    4.150354   4.495214   4.401056   5.001045   2.855155
    11  H    4.054738   4.409607   4.695368   4.622708   2.621179
    12  O    3.699850   4.736507   3.935808   3.251553   3.403141
    13  H    4.399031   5.461976   4.533835   4.103636   3.891365
    14  H    4.208159   5.158419   4.617493   3.605728   3.910343
    15  H    2.749888   3.747890   3.172986   2.596543   2.120045
                    6          7          8          9         10
     6  O    0.000000
     7  O    2.226708   0.000000
     8  C    2.654914   1.476406   0.000000
     9  H    3.642833   2.005566   1.087565   0.000000
    10  H    2.959791   2.084538   1.091002   1.801475   0.000000
    11  H    2.414857   2.127600   1.089188   1.804559   1.808682
    12  O    2.497944   4.624510   5.131241   6.132473   5.292725
    13  H    2.816648   5.003866   5.284528   6.337420   5.289179
    14  H    2.986505   5.099482   5.551279   6.498986   5.846972
    15  H    1.163172   3.293678   3.814185   4.795528   4.065202
                   11         12         13         14         15
    11  H    0.000000
    12  O    4.727253   0.000000
    13  H    4.835063   0.973339   0.000000
    14  H    5.000736   0.973607   1.541168   0.000000
    15  H    3.473161   1.351678   1.857480   1.890351   0.000000
 Symmetry turned off by external request.
 Stoichiometry    C3H9O3(1+)
 Framework group  C1[X(C3H9O3)]
 Deg. of freedom    39
 Full point group                 C1      NOp   1
 Rotational constants (GHZ):      5.1472449      1.7610879      1.3419438
 Standard basis: 6-31+G(d) (6D, 7F)
 Integral buffers will be    262144 words long.
 Raffenetti 2 integral format.
 Two-electron integral symmetry is turned off.
   132 basis functions,   228 primitive gaussians,   132 cartesian basis functions
    25 alpha electrons       25 beta electrons
       nuclear repulsion energy       257.9001437877 Hartrees.
 NAtoms=   15 NActive=   15 NUniq=   15 SFac= 7.50D-01 NAtFMM=   80 NAOKFM=F Big=F
 One-electron integrals computed using PRISM.
 NBasis=   132 RedAO= T  NBF=   132
 NBsUse=   132 1.00D-06 NBFU=   132
 Initial guess read from the read-write file.
 B after Tr=     0.000000    0.000000    0.000000
         Rot=    1.000000    0.000000    0.000000    0.000000 Ang=   0.00 deg.
 Harris functional with IExCor= 3102 diagonalized for initial guess.
 ExpMin= 4.38D-02 ExpMax= 5.48D+03 ExpMxC= 8.25D+02 IAcc=2 IRadAn=         0 AccDes= 0.00D+00
 HarFok:  IExCor= 3102 AccDes= 0.00D+00 IRadAn=         0 IDoV= 1
 ScaDFX=  1.000000  1.000000  1.000000  1.000000
 FoFCou: FMM=F IPFlag=           0 FMFlag=      100000 FMFlg1=           0
         NFxFlg=           0 DoJE=T BraDBF=F KetDBF=T FulRan=T
         Omega=  0.000000  0.000000  1.000000  0.000000  0.000000 ICntrl=     500 IOpCl=  0
         NMat0=    1 NMatS0=    1 NMatT0=    0 NMatD0=    1 NMtDS0=    0 NMtDT0=    0
         I1Cent=           4 NGrid=           0.
 Symmetry not used in FoFCou.
 Requested convergence on RMS density matrix=1.00D-08 within 128 cycles.
 Requested convergence on MAX density matrix=1.00D-06.
 Requested convergence on             energy=1.00D-06.
 No special actions if energy rises.
 SCF Done:  E(RX3LYP) =  -345.026233597     A.U. after   10 cycles
             Convg  =    0.8784D-08             -V/T =  2.0093
 Range of M.O.s used for correlation:     1   132
 NBasis=   132 NAE=    25 NBE=    25 NFC=     0 NFV=     0
 NROrb=    132 NOA=    25 NOB=    25 NVA=   107 NVB=   107

 **** Warning!!: The largest alpha MO coefficient is  0.37679881D+02

 Symmetrizing basis deriv contribution to polar:
 IMax=3 JMax=2 DiffMx= 0.00D+00
 Calling FoFJK, ICntrl=      2147 FMM=F ISym2X=0 I1Cent= 0 IOpClX= 0 NMat=1 NMatS=1 NMatT=0.
 -------------------------------------------------------------------
 Center     Atomic                   Forces (Hartrees/Bohr)
 Number     Number              X              Y              Z
 -------------------------------------------------------------------
      1        6          -0.005757027    0.016969273   -0.001168791
      2        1           0.003128769   -0.005006284   -0.000895696
      3        1          -0.000414256   -0.005522108    0.001247035
      4        1          -0.001466445   -0.004946312    0.000458725
      5        6           0.016244553   -0.018418080   -0.000886264
      6        8          -0.015731379    0.017760642   -0.004274495
      7        8          -0.024181677   -0.002992971    0.000601376
      8        6           0.004559496    0.007514439   -0.000609766
      9        1           0.001200058   -0.003995838    0.000958673
     10        1          -0.000339688   -0.000773816   -0.000683378
     11        1          -0.000712121    0.001582745    0.000282037
     12        8           0.009951363   -0.004318736   -0.007564105
     13        1          -0.003582750   -0.000483506    0.005470871
     14        1          -0.005182619    0.002798432   -0.002185005
     15        1           0.022283722   -0.000167879    0.009248783
 -------------------------------------------------------------------
 Cartesian Forces:  Max     0.024181677 RMS     0.008348048
 IRC-IRC-IRC-IRC-IRC-IRC-IRC-IRC-IRC-IRC-IRC-IRC-IRC-IRC-IRC-IRC-IRC-IRC
 Pt  2 Step number   1 out of a maximum of  20
 CORRECTOR INTEGRATION CONVERGENCE:
   Recorrection delta-x convergence threshold:    0.010000
   Delta-x Convergence NOT Met
 IRC-IRC-IRC-IRC-IRC-IRC-IRC-IRC-IRC-IRC-IRC-IRC-IRC-IRC-IRC-IRC-IRC-IRC
                          Input orientation:                          
 ---------------------------------------------------------------------
 Center     Atomic      Atomic             Coordinates (Angstroms)
 Number     Number       Type             X           Y           Z
 ---------------------------------------------------------------------
      1          6           0       -0.088031    1.850162    0.012496
      2          1           0        0.680618    2.523061   -0.392433
      3          1           0       -0.259425    2.195427    1.046270
      4          1           0       -1.014720    2.036873   -0.543508
      5          6           0        0.339949    0.436593   -0.015299
      6          8           0       -0.428425   -0.590238   -0.027548
      7          8           0        1.634790    0.246563   -0.012367
      8          6           0        2.171482   -1.128504    0.006016
      9          1           0        3.180040   -0.981619   -0.385429
     10          1           0        2.189219   -1.462858    1.046030
     11          1           0        1.579772   -1.790153   -0.627835
     12          8           0       -2.923397   -0.525353    0.049779
     13          1           0       -3.080919   -1.332241    0.587073
     14          1           0       -3.306766   -0.733819   -0.828365
     15          1           0       -1.572436   -0.455503   -0.093033
 ---------------------------------------------------------------------
                    Distance matrix (angstroms):
                    1          2          3          4          5
     1  C    0.000000
     2  H    1.098900   0.000000
     3  H    1.103301   1.749539   0.000000
     4  H    1.096701   1.770133   1.767202   0.000000
     5  C    1.477199   2.147471   2.140017   2.162181   0.000000
     6  O    2.464351   3.325019   2.990247   2.740743   1.282549
     7  O    2.353775   2.497466   2.916647   3.241484   1.308714
     8  C    3.738702   3.964260   4.247346   4.524762   2.409252
     9  H    4.342535   4.304642   4.896254   5.170328   3.196003
    10  H    4.150923   4.498066   4.402148   5.003995   2.855544
    11  H    4.055056   4.412222   4.697884   4.624351   2.621213
    12  O    3.699157   4.741023   3.936037   3.249622   3.402793
    13  H    4.406269   5.474664   4.540499   4.110757   3.897944
    14  H    4.212394   5.166869   4.623962   3.607126   3.915287
    15  H    2.744209   3.746696   3.170085   2.593436   2.111657
                    6          7          8          9         10
     6  O    0.000000
     7  O    2.226505   0.000000
     8  C    2.655254   1.476206   0.000000
     9  H    3.647229   2.008832   1.091784   0.000000
    10  H    2.960759   2.085597   1.092582   1.806209   0.000000
    11  H    2.415159   2.128389   1.090719   1.809239   1.811179
    12  O    2.497013   4.623503   5.130643   6.135920   5.292473
    13  H    2.822065   5.008978   5.288370   6.345731   5.291697
    14  H    2.991115   5.103526   5.555463   6.506631   5.852410
    15  H    1.153778   3.284159   3.805216   4.790441   4.057373
                   11         12         13         14         15
    11  H    0.000000
    12  O    4.726247   0.000000
    13  H    4.838153   0.982123   0.000000
    14  H    5.003429   0.980595   1.553248   0.000000
    15  H    3.464639   1.360282   1.872628   1.904225   0.000000
 Symmetry turned off by external request.
 Stoichiometry    C3H9O3(1+)
 Framework group  C1[X(C3H9O3)]
 Deg. of freedom    39
 Full point group                 C1      NOp   1
 Rotational constants (GHZ):      5.1448732      1.7610205      1.3419686
 Standard basis: 6-31+G(d) (6D, 7F)
 Integral buffers will be    262144 words long.
 Raffenetti 2 integral format.
 Two-electron integral symmetry is turned off.
   132 basis functions,   228 primitive gaussians,   132 cartesian basis functions
    25 alpha electrons       25 beta electrons
       nuclear repulsion energy       257.7813244420 Hartrees.
 NAtoms=   15 NActive=   15 NUniq=   15 SFac= 7.50D-01 NAtFMM=   80 NAOKFM=F Big=F
 One-electron integrals computed using PRISM.
 NBasis=   132 RedAO= T  NBF=   132
 NBsUse=   132 1.00D-06 NBFU=   132
 Initial guess read from the read-write file.
 B after Tr=     0.000000    0.000000    0.000000
         Rot=    1.000000    0.000000    0.000000    0.000000 Ang=   0.00 deg.
 Harris functional with IExCor= 3102 diagonalized for initial guess.
 ExpMin= 4.38D-02 ExpMax= 5.48D+03 ExpMxC= 8.25D+02 IAcc=2 IRadAn=         0 AccDes= 0.00D+00
 HarFok:  IExCor= 3102 AccDes= 0.00D+00 IRadAn=         0 IDoV= 1
 ScaDFX=  1.000000  1.000000  1.000000  1.000000
 FoFCou: FMM=F IPFlag=           0 FMFlag=      100000 FMFlg1=           0
         NFxFlg=           0 DoJE=T BraDBF=F KetDBF=T FulRan=T
         Omega=  0.000000  0.000000  1.000000  0.000000  0.000000 ICntrl=     500 IOpCl=  0
         NMat0=    1 NMatS0=    1 NMatT0=    0 NMatD0=    1 NMtDS0=    0 NMtDT0=    0
         I1Cent=           4 NGrid=           0.
 Symmetry not used in FoFCou.
 Requested convergence on RMS density matrix=1.00D-08 within 128 cycles.
 Requested convergence on MAX density matrix=1.00D-06.
 Requested convergence on             energy=1.00D-06.
 No special actions if energy rises.
 SCF Done:  E(RX3LYP) =  -345.026652547     A.U. after   10 cycles
             Convg  =    0.4520D-08             -V/T =  2.0094
 Range of M.O.s used for correlation:     1   132
 NBasis=   132 NAE=    25 NBE=    25 NFC=     0 NFV=     0
 NROrb=    132 NOA=    25 NOB=    25 NVA=   107 NVB=   107

 **** Warning!!: The largest alpha MO coefficient is  0.38052522D+02

 Symmetrizing basis deriv contribution to polar:
 IMax=3 JMax=2 DiffMx= 0.00D+00
 Calling FoFJK, ICntrl=      2147 FMM=F ISym2X=0 I1Cent= 0 IOpClX= 0 NMat=1 NMatS=1 NMatT=0.
 -------------------------------------------------------------------
 Center     Atomic                   Forces (Hartrees/Bohr)
 Number     Number              X              Y              Z
 -------------------------------------------------------------------
      1        6          -0.005311149    0.019689068   -0.001418986
      2        1           0.000550043   -0.007096355    0.000472096
      3        1          -0.000035491   -0.006125039   -0.000934379
      4        1           0.000305918   -0.005199959    0.001518599
      5        6           0.016019309   -0.017266750   -0.000894064
      6        8          -0.014623433    0.017030303   -0.004265312
      7        8          -0.023890086   -0.003195907    0.000620980
      8        6           0.006568491    0.006798496   -0.001204497
      9        1          -0.001472030   -0.004327277    0.001983934
     10        1          -0.000311154   -0.000434985   -0.001701267
     11        1          -0.000092730    0.002183832    0.000870143
     12        8           0.005605829   -0.011816108   -0.008638783
     13        1          -0.002245004    0.006153948    0.000572927
     14        1          -0.002556913    0.003846174    0.003872798
     15        1           0.021488401   -0.000239441    0.009145812
 -------------------------------------------------------------------
 Cartesian Forces:  Max     0.023890086 RMS     0.008420364
 IRC-IRC-IRC-IRC-IRC-IRC-IRC-IRC-IRC-IRC-IRC-IRC-IRC-IRC-IRC-IRC-IRC-IRC
 Error in corrector energy =          -0.0001363495
 Magnitude of corrector gradient =     0.0584286105
 Magnitude of analytic gradient =      0.0564855202
 Magnitude of difference =             0.0092313813
 Angle between gradients (degrees)=    9.0098
 Pt  2 Step number   2 out of a maximum of  20
 CORRECTOR INTEGRATION CONVERGENCE:
   Recorrection delta-x convergence threshold:    0.010000
   Delta-x Convergence Met
 Point Number:   2          Path Number:   1
   CHANGE IN THE REACTION COORDINATE =    0.10970
   NET REACTION COORDINATE UP TO THIS POINT =    0.12165
  # OF POINTS ALONG THE PATH =   2
  # OF STEPS =   2

 Calculating another point on the path.
 IRC-IRC-IRC-IRC-IRC-IRC-IRC-IRC-IRC-IRC-IRC-IRC-IRC-IRC-IRC-IRC-IRC-IRC
                          Input orientation:                          
 ---------------------------------------------------------------------
 Center     Atomic      Atomic             Coordinates (Angstroms)
 Number     Number       Type             X           Y           Z
 ---------------------------------------------------------------------
      1          6           0       -0.088886    1.853632    0.012249
      2          1           0        0.679669    2.507961   -0.390463
      3          1           0       -0.259127    2.183340    1.042731
      4          1           0       -1.012730    2.026828   -0.539826
      5          6           0        0.342646    0.433848   -0.015458
      6          8           0       -0.429918   -0.588262   -0.028138
      7          8           0        1.631903    0.246187   -0.012255
      8          6           0        2.172743   -1.127471    0.005793
      9          1           0        3.175290   -0.990074   -0.380895
     10          1           0        2.188680   -1.463445    1.042005
     11          1           0        1.580128   -1.785548   -0.625701
     12          8           0       -2.923080   -0.527062    0.048714
     13          1           0       -3.084277   -1.317044    0.585611
     14          1           0       -3.310209   -0.725966   -0.817824
     15          1           0       -1.534202   -0.455977   -0.075628
 ---------------------------------------------------------------------
                    Distance matrix (angstroms):
                    1          2          3          4          5
     1  C    0.000000
     2  H    1.086738   0.000000
     3  H    1.095254   1.743778   0.000000
     4  H    1.090079   1.765790   1.759802   0.000000
     5  C    1.484175   2.134516   2.131342   2.156291   0.000000
     6  O    2.465924   3.308936   2.976190   2.727671   1.281298
     7  O    2.354909   2.483025   2.905435   3.231578   1.302847
     8  C    3.741922   3.950019   4.236826   4.516031   2.405706
     9  H    4.346961   4.297030   4.887994   5.163959   3.191390
    10  H    4.153397   4.483430   4.392129   4.993317   2.850577
    11  H    4.054161   4.393220   4.681730   4.611344   2.613326
    12  O    3.701579   4.731177   3.928230   3.243172   3.404766
    13  H    4.399352   5.454417   4.521407   4.091380   3.894959
    14  H    4.209545   5.153643   4.608126   3.596326   3.915649
    15  H    2.725978   3.712853   3.137282   2.579095   2.077972
                    6          7          8          9         10
     6  O    0.000000
     7  O    2.224334   0.000000
     8  C    2.658146   1.476404   0.000000
     9  H    3.644642   2.011537   1.083285   0.000000
    10  H    2.961115   2.084300   1.089435   1.795028   0.000000
    11  H    2.414717   2.122956   1.087677   1.799236   1.804253
    12  O    2.495097   4.620552   5.131251   6.130992   5.290891
    13  H    2.820183   5.004347   5.292294   6.342178   5.294695
    14  H    2.989756   5.100832   5.558984   6.505563   5.851548
    15  H    1.113193   3.243651   3.768153   4.749502   4.015464
                   11         12         13         14         15
    11  H    0.000000
    12  O    4.724140   0.000000
    13  H    4.841843   0.968666   0.000000
    14  H    5.007496   0.969701   1.539497   0.000000
    15  H    3.430655   1.396243   1.892460   1.943694   0.000000
 Symmetry turned off by external request.
 Stoichiometry    C3H9O3(1+)
 Framework group  C1[X(C3H9O3)]
 Deg. of freedom    39
 Full point group                 C1      NOp   1
 Rotational constants (GHZ):      5.1545529      1.7624690      1.3431031
 Standard basis: 6-31+G(d) (6D, 7F)
 Integral buffers will be    262144 words long.
 Raffenetti 2 integral format.
 Two-electron integral symmetry is turned off.
   132 basis functions,   228 primitive gaussians,   132 cartesian basis functions
    25 alpha electrons       25 beta electrons
       nuclear repulsion energy       258.2620425212 Hartrees.
 NAtoms=   15 NActive=   15 NUniq=   15 SFac= 7.50D-01 NAtFMM=   80 NAOKFM=F Big=F
 One-electron integrals computed using PRISM.
 NBasis=   132 RedAO= T  NBF=   132
 NBsUse=   132 1.00D-06 NBFU=   132
 Initial guess read from the read-write file.
 B after Tr=     0.000000    0.000000    0.000000
         Rot=    1.000000    0.000000    0.000000    0.000000 Ang=   0.00 deg.
 Harris functional with IExCor= 3102 diagonalized for initial guess.
 ExpMin= 4.38D-02 ExpMax= 5.48D+03 ExpMxC= 8.25D+02 IAcc=2 IRadAn=         0 AccDes= 0.00D+00
 HarFok:  IExCor= 3102 AccDes= 0.00D+00 IRadAn=         0 IDoV= 1
 ScaDFX=  1.000000  1.000000  1.000000  1.000000
 FoFCou: FMM=F IPFlag=           0 FMFlag=      100000 FMFlg1=           0
         NFxFlg=           0 DoJE=T BraDBF=F KetDBF=T FulRan=T
         Omega=  0.000000  0.000000  1.000000  0.000000  0.000000 ICntrl=     500 IOpCl=  0
         NMat0=    1 NMatS0=    1 NMatT0=    0 NMatD0=    1 NMtDS0=    0 NMtDT0=    0
         I1Cent=           4 NGrid=           0.
 Symmetry not used in FoFCou.
 Requested convergence on RMS density matrix=1.00D-08 within 128 cycles.
 Requested convergence on MAX density matrix=1.00D-06.
 Requested convergence on             energy=1.00D-06.
 No special actions if energy rises.
 SCF Done:  E(RX3LYP) =  -345.029312270     A.U. after   10 cycles
             Convg  =    0.8938D-08             -V/T =  2.0091
 Range of M.O.s used for correlation:     1   132
 NBasis=   132 NAE=    25 NBE=    25 NFC=     0 NFV=     0
 NROrb=    132 NOA=    25 NOB=    25 NVA=   107 NVB=   107

 **** Warning!!: The largest alpha MO coefficient is  0.39308568D+02

 Symmetrizing basis deriv contribution to polar:
 IMax=3 JMax=2 DiffMx= 0.00D+00
 Calling FoFJK, ICntrl=      2147 FMM=F ISym2X=0 I1Cent= 0 IOpClX= 0 NMat=1 NMatS=1 NMatT=0.
 -------------------------------------------------------------------
 Center     Atomic                   Forces (Hartrees/Bohr)
 Number     Number              X              Y              Z
 -------------------------------------------------------------------
      1        6          -0.004813715    0.006604171   -0.000747328
      2        1           0.004992873   -0.001103054   -0.002169617
      3        1          -0.000744895   -0.003402025    0.003375641
      4        1          -0.002909406   -0.003359930   -0.000740331
      5        6           0.012478322   -0.008763428   -0.000754925
      6        8          -0.008759702    0.011729241   -0.002783839
      7        8          -0.020285327   -0.004556310    0.000434902
      8        6           0.002008271    0.006011708    0.000167229
      9        1           0.003561280   -0.002408206   -0.000320406
     10        1          -0.000455192   -0.000737206    0.000507339
     11        1          -0.001093268    0.000763089   -0.000425372
     12        8           0.009246021    0.000087097   -0.004800961
     13        1          -0.004885167   -0.003565557    0.006607971
     14        1          -0.005744660    0.001558806   -0.004421241
     15        1           0.017404565    0.001141605    0.006070940
 -------------------------------------------------------------------
 Cartesian Forces:  Max     0.020285327 RMS     0.006103186
 IRC-IRC-IRC-IRC-IRC-IRC-IRC-IRC-IRC-IRC-IRC-IRC-IRC-IRC-IRC-IRC-IRC-IRC
 Pt  3 Step number   1 out of a maximum of  20
 CORRECTOR INTEGRATION CONVERGENCE:
   Recorrection delta-x convergence threshold:    0.010000
   Delta-x Convergence NOT Met
 IRC-IRC-IRC-IRC-IRC-IRC-IRC-IRC-IRC-IRC-IRC-IRC-IRC-IRC-IRC-IRC-IRC-IRC
                          Input orientation:                          
 ---------------------------------------------------------------------
 Center     Atomic      Atomic             Coordinates (Angstroms)
 Number     Number       Type             X           Y           Z
 ---------------------------------------------------------------------
      1          6           0       -0.088974    1.852924    0.012264
      2          1           0        0.683630    2.511407   -0.392647
      3          1           0       -0.259883    2.184102    1.046383
      4          1           0       -1.015603    2.027046   -0.541445
      5          6           0        0.342613    0.434214   -0.015473
[...]
     3  H    1.098677   1.774885   0.000000
     4  H    1.092760   1.797088   1.774257   0.000000
     5  C    1.488251   2.124451   2.111330   2.142450   0.000000
     6  O    2.455501   3.292423   2.934071   2.685092   1.277106
     7  O    2.360305   2.482423   2.891230   3.220854   1.281484
     8  C    3.748029   3.944127   4.215584   4.501436   2.399216
     9  H    4.375206   4.314317   4.888759   5.180994   3.201863
    10  H    4.152359   4.480560   4.359103   4.964585   2.834049
    11  H    4.054342   4.377748   4.657484   4.583674   2.608063
    12  O    3.700102   4.732682   3.902143   3.198051   3.423116
    13  H    4.447569   5.512253   4.506006   4.067307   4.028357
    14  H    4.235011   5.184985   4.593108   3.558170   4.006066
    15  H    2.664523   3.651549   3.040204   2.514536   2.003579
                    6          7          8          9         10
     6  O    0.000000
     7  O    2.195778   0.000000
     8  C    2.650017   1.470943   0.000000
     9  H    3.651664   2.032478   1.087499   0.000000
    10  H    2.928464   2.081531   1.090821   1.798357   0.000000
    11  H    2.415571   2.106610   1.088826   1.803525   1.801174
    12  O    2.512673   4.613606   5.139217   6.154613   5.270204
    13  H    2.990728   5.134277   5.476144   6.537618   5.440072
    14  H    3.104007   5.180573   5.678642   6.645385   5.935249
    15  H    1.035473   3.139702   3.683249   4.683912   3.895827
                   11         12         13         14         15
    11  H    0.000000
    12  O    4.736984   0.000000
    13  H    5.054745   0.973122   0.000000
    14  H    5.144835   0.973082   1.559639   0.000000
    15  H    3.369421   1.488456   2.084530   2.132383   0.000000
 Symmetry turned off by external request.
 Stoichiometry    C3H9O3(1+)
 Framework group  C1[X(C3H9O3)]
 Deg. of freedom    39
 Full point group                 C1      NOp   1
 Rotational constants (GHZ):      5.2026141      1.7514379      1.3402663
 Standard basis: 6-31+G(d) (6D, 7F)
 Integral buffers will be    262144 words long.
 Raffenetti 2 integral format.
 Two-electron integral symmetry is turned off.
   132 basis functions,   228 primitive gaussians,   132 cartesian basis functions
    25 alpha electrons       25 beta electrons
       nuclear repulsion energy       258.7880705987 Hartrees.
 NAtoms=   15 NActive=   15 NUniq=   15 SFac= 7.50D-01 NAtFMM=   80 NAOKFM=F Big=F
 One-electron integrals computed using PRISM.
 NBasis=   132 RedAO= T  NBF=   132
 NBsUse=   132 1.00D-06 NBFU=   132
 Initial guess read from the read-write file.
 B after Tr=     0.000000    0.000000    0.000000
         Rot=    1.000000    0.000000    0.000000    0.000000 Ang=   0.00 deg.
 Harris functional with IExCor= 3102 diagonalized for initial guess.
 ExpMin= 4.38D-02 ExpMax= 5.48D+03 ExpMxC= 8.25D+02 IAcc=2 IRadAn=         0 AccDes= 0.00D+00
 HarFok:  IExCor= 3102 AccDes= 0.00D+00 IRadAn=         0 IDoV= 1
 ScaDFX=  1.000000  1.000000  1.000000  1.000000
 FoFCou: FMM=F IPFlag=           0 FMFlag=      100000 FMFlg1=           0
         NFxFlg=           0 DoJE=T BraDBF=F KetDBF=T FulRan=T
         Omega=  0.000000  0.000000  1.000000  0.000000  0.000000 ICntrl=     500 IOpCl=  0
         NMat0=    1 NMatS0=    1 NMatT0=    0 NMatD0=    1 NMtDS0=    0 NMtDT0=    0
         I1Cent=           4 NGrid=           0.
 Symmetry not used in FoFCou.
 Requested convergence on RMS density matrix=1.00D-08 within 128 cycles.
 Requested convergence on MAX density matrix=1.00D-06.
 Requested convergence on             energy=1.00D-06.
 No special actions if energy rises.
 SCF Done:  E(RX3LYP) =  -345.034150920     A.U. after    9 cycles
             Convg  =    0.3344D-08             -V/T =  2.0089
 Range of M.O.s used for correlation:     1   132
 NBasis=   132 NAE=    25 NBE=    25 NFC=     0 NFV=     0
 NROrb=    132 NOA=    25 NOB=    25 NVA=   107 NVB=   107

 **** Warning!!: The largest alpha MO coefficient is  0.30582891D+02

 Symmetrizing basis deriv contribution to polar:
 IMax=3 JMax=2 DiffMx= 0.00D+00
 Calling FoFJK, ICntrl=      2147 FMM=F ISym2X=0 I1Cent= 0 IOpClX= 0 NMat=1 NMatS=1 NMatT=0.
 -------------------------------------------------------------------
 Center     Atomic                   Forces (Hartrees/Bohr)
 Number     Number              X              Y              Z
 -------------------------------------------------------------------
      1        6          -0.001031473   -0.000192844    0.000155127
      2        1          -0.000397593   -0.000050166    0.000128766
      3        1          -0.000091866   -0.000071865   -0.000129594
      4        1          -0.000004337   -0.000122553    0.000107864
      5        6           0.000695511   -0.000176598   -0.000109272
      6        8           0.002554829   -0.000946518    0.000483889
      7        8           0.000723613    0.000354713   -0.000482584
      8        6           0.000909299   -0.000052185   -0.000082165
      9        1          -0.000063232    0.000072179    0.000373655
     10        1          -0.000234172   -0.000079281   -0.000124712
     11        1           0.000299540    0.000102890   -0.000205104
     12        8          -0.001727691   -0.000234222   -0.000865258
     13        1          -0.000944519    0.000959454    0.000335827
     14        1          -0.000277365    0.000440174    0.000590749
     15        1          -0.000410543   -0.000003179   -0.000177188
 -------------------------------------------------------------------
 Cartesian Forces:  Max     0.002554829 RMS     0.000635322
 IRC-IRC-IRC-IRC-IRC-IRC-IRC-IRC-IRC-IRC-IRC-IRC-IRC-IRC-IRC-IRC-IRC-IRC
 Error in corrector energy =          -0.0000054804
 Magnitude of corrector gradient =     0.0032352022
 Magnitude of analytic gradient =      0.0042618681
 Magnitude of difference =             0.0022374052
 Angle between gradients (degrees)=   31.0531
 Pt  9 Step number   2 out of a maximum of  20
 CORRECTOR INTEGRATION CONVERGENCE:
   Recorrection delta-x convergence threshold:    0.010000
   Delta-x Convergence Met
 Point Number:   9          Path Number:   1
   CHANGE IN THE REACTION COORDINATE =    0.11367
   NET REACTION COORDINATE UP TO THIS POINT =    0.89689
  # OF POINTS ALONG THE PATH =   9
  # OF STEPS =   2

 Calculating another point on the path.
 IRC-IRC-IRC-IRC-IRC-IRC-IRC-IRC-IRC-IRC-IRC-IRC-IRC-IRC-IRC-IRC-IRC-IRC
                          Input orientation:                          
 ---------------------------------------------------------------------
 Center     Atomic      Atomic             Coordinates (Angstroms)
 Number     Number       Type             X           Y           Z
 ---------------------------------------------------------------------
      1          6           0       -0.101935    1.851538    0.013025
      2          1           0        0.671549    2.503634   -0.395094
      3          1           0       -0.276264    2.137287    1.058931
      4          1           0       -1.039557    1.975090   -0.533626
      5          6           0        0.358588    0.435987   -0.018207
      6          8           0       -0.408884   -0.584585   -0.026399
      7          8           0        1.624658    0.239074   -0.014789
      8          6           0        2.182244   -1.122650    0.005166
      9          1           0        3.203756   -0.996721   -0.344240
     10          1           0        2.156887   -1.478046    1.036022
     11          1           0        1.603908   -1.768813   -0.653120
     12          8           0       -2.928851   -0.535449    0.040324
     13          1           0       -3.286638   -1.185894    0.671820
     14          1           0       -3.437347   -0.637009   -0.781254
     15          1           0       -1.437699   -0.455518   -0.024971
 ---------------------------------------------------------------------
                    Distance matrix (angstroms):
                    1          2          3          4          5
     1  C    0.000000
     2  H    1.090902   0.000000
     3  H    1.098163   1.773908   0.000000
     4  H    1.092350   1.796228   1.773461   0.000000
     5  C    1.488907   2.124889   2.111323   2.142267   0.000000
     6  O    2.455701   3.292472   2.933278   2.684579   1.276968
     7  O    2.362613   2.486219   2.893025   3.221955   1.281296
     8  C    3.750111   3.948714   4.216856   4.501810   2.399087
     9  H    4.378106   4.320549   4.888909   5.183940   3.202176
    10  H    4.151497   4.484205   4.357910   4.960363   2.829982
    11  H    4.057165   4.380602   4.660878   4.584648   2.610570
    12  O    3.699988   4.731648   3.900935   3.194003   3.428465
    13  H    4.449982   5.515267   4.500638   4.061317   4.048989
    14  H    4.236594   5.186115   4.590801   3.554403   4.017796
    15  H    2.666124   3.652739   3.040792   2.514976   2.005361
                    6          7          8          9         10
     6  O    0.000000
     7  O    2.194047   0.000000
     8  C    2.646593   1.471595   0.000000
     9  H    3.649938   2.032062   1.086935   0.000000
    10  H    2.917224   2.082299   1.090694   1.797979   0.000000
    11  H    2.417955   2.107013   1.088733   1.803065   1.800980
    12  O    2.521329   4.619239   5.144836   6.161942   5.267318
    13  H    3.021680   5.159728   5.509728   6.572167   5.463512
    14  H    3.121561   5.194121   5.695096   6.665180   5.941826
    15  H    1.036880   3.140158   3.681027   4.683795   3.884883
                   11         12         13         14         15
    11  H    0.000000
    12  O    4.748469   0.000000
    13  H    5.100265   0.974617   0.000000
    14  H    5.168332   0.971531   1.560581   0.000000
    15  H    3.372045   1.494720   2.106548   2.145576   0.000000
 Symmetry turned off by external request.
 Stoichiometry    C3H9O3(1+)
 Framework group  C1[X(C3H9O3)]
 Deg. of freedom    39
 Full point group                 C1      NOp   1
 Rotational constants (GHZ):      5.2073562      1.7464277      1.3376927
 Standard basis: 6-31+G(d) (6D, 7F)
 Integral buffers will be    262144 words long.
 Raffenetti 2 integral format.
 Two-electron integral symmetry is turned off.
   132 basis functions,   228 primitive gaussians,   132 cartesian basis functions
    25 alpha electrons       25 beta electrons
       nuclear repulsion energy       258.6578253016 Hartrees.
 NAtoms=   15 NActive=   15 NUniq=   15 SFac= 7.50D-01 NAtFMM=   80 NAOKFM=F Big=F
 One-electron integrals computed using PRISM.
 NBasis=   132 RedAO= T  NBF=   132
 NBsUse=   132 1.00D-06 NBFU=   132
 Initial guess read from the read-write file.
 B after Tr=     0.000000    0.000000    0.000000
         Rot=    1.000000    0.000000    0.000000    0.000000 Ang=   0.00 deg.
 Harris functional with IExCor= 3102 diagonalized for initial guess.
 ExpMin= 4.38D-02 ExpMax= 5.48D+03 ExpMxC= 8.25D+02 IAcc=2 IRadAn=         0 AccDes= 0.00D+00
 HarFok:  IExCor= 3102 AccDes= 0.00D+00 IRadAn=         0 IDoV= 1
 ScaDFX=  1.000000  1.000000  1.000000  1.000000
 FoFCou: FMM=F IPFlag=           0 FMFlag=      100000 FMFlg1=           0
         NFxFlg=           0 DoJE=T BraDBF=F KetDBF=T FulRan=T
         Omega=  0.000000  0.000000  1.000000  0.000000  0.000000 ICntrl=     500 IOpCl=  0
         NMat0=    1 NMatS0=    1 NMatT0=    0 NMatD0=    1 NMtDS0=    0 NMtDT0=    0
         I1Cent=           4 NGrid=           0.
 Symmetry not used in FoFCou.
 Requested convergence on RMS density matrix=1.00D-08 within 128 cycles.
 Requested convergence on MAX density matrix=1.00D-06.
 Requested convergence on             energy=1.00D-06.
 No special actions if energy rises.
 SCF Done:  E(RX3LYP) =  -345.034333136     A.U. after    9 cycles
             Convg  =    0.9122D-08             -V/T =  2.0089
 Range of M.O.s used for correlation:     1   132
 NBasis=   132 NAE=    25 NBE=    25 NFC=     0 NFV=     0
 NROrb=    132 NOA=    25 NOB=    25 NVA=   107 NVB=   107

 **** Warning!!: The largest alpha MO coefficient is  0.30384426D+02

 Symmetrizing basis deriv contribution to polar:
 IMax=3 JMax=2 DiffMx= 0.00D+00
 Calling FoFJK, ICntrl=      2147 FMM=F ISym2X=0 I1Cent= 0 IOpClX= 0 NMat=1 NMatS=1 NMatT=0.
 -------------------------------------------------------------------
 Center     Atomic                   Forces (Hartrees/Bohr)
 Number     Number              X              Y              Z
 -------------------------------------------------------------------
      1        6          -0.000856230   -0.000933948    0.000156742
      2        1           0.000010412    0.000228382   -0.000086163
      3        1          -0.000120122   -0.000007962    0.000184594
      4        1          -0.000213024   -0.000102706   -0.000049433
      5        6           0.000423853   -0.000056018   -0.000002474
      6        8           0.000055706   -0.001202939    0.000455841
      7        8           0.000954928    0.000534146   -0.000483831
      8        6           0.000622306    0.000202835   -0.000012133
      9        1           0.000282125    0.000098601    0.000250989
     10        1          -0.000256289   -0.000087345   -0.000053700
     11        1           0.000234456    0.000099996   -0.000250586
     12        8          -0.001458034   -0.000663784    0.001425577
     13        1           0.000072653    0.001879133   -0.000780540
     14        1          -0.000759676    0.000145703   -0.000641720
     15        1           0.001006936   -0.000134096   -0.000113163
 -------------------------------------------------------------------
 Cartesian Forces:  Max     0.001879133 RMS     0.000608326
 IRC-IRC-IRC-IRC-IRC-IRC-IRC-IRC-IRC-IRC-IRC-IRC-IRC-IRC-IRC-IRC-IRC-IRC
 Pt 10 Step number   1 out of a maximum of  20
 CORRECTOR INTEGRATION CONVERGENCE:
   Recorrection delta-x convergence threshold:    0.010000
   Delta-x Convergence NOT Met
 IRC-IRC-IRC-IRC-IRC-IRC-IRC-IRC-IRC-IRC-IRC-IRC-IRC-IRC-IRC-IRC-IRC-IRC
                          Input orientation:                          
 ---------------------------------------------------------------------
 Center     Atomic      Atomic             Coordinates (Angstroms)
 Number     Number       Type             X           Y           Z
 ---------------------------------------------------------------------
      1          6           0       -0.102018    1.851021    0.013028
      2          1           0        0.671551    2.503739   -0.395300
      3          1           0       -0.276540    2.136780    1.059302
      4          1           0       -1.040004    1.974408   -0.533660
      5          6           0        0.358493    0.435768   -0.018149
      6          8           0       -0.409661   -0.584834   -0.026233
      7          8           0        1.624693    0.239212   -0.014952
      8          6           0        2.182558   -1.122392    0.005175
      9          1           0        3.204951   -0.996204   -0.342682
     10          1           0        2.155460   -1.478393    1.035875
     11          1           0        1.605172   -1.768115   -0.654516
     12          8           0       -2.928730   -0.535080    0.040544
     13          1           0       -3.283035   -1.185522    0.669623
     14          1           0       -3.439549   -0.635508   -0.781498
     15          1           0       -1.435459   -0.454235   -0.025887
 ---------------------------------------------------------------------
                    Distance matrix (angstroms):
                    1          2          3          4          5
     1  C    0.000000
     2  H    1.091413   0.000000
     3  H    1.098547   1.774655   0.000000
     4  H    1.092661   1.796873   1.773913   0.000000
     5  C    1.488618   2.125266   2.111305   2.142185   0.000000
     6  O    2.455519   3.293101   2.933136   2.684126   1.277401
     7  O    2.362254   2.486208   2.893005   3.221890   1.281369
     8  C    3.749738   3.948716   4.216699   4.501713   2.399087
     9  H    4.378272   4.320936   4.888960   5.184655   3.202840
    10  H    4.150593   4.484153   4.357138   4.959462   2.829146
    11  H    4.056878   4.380363   4.661139   4.584543   2.610799
    12  O    3.699261   4.731428   3.900105   3.192887   3.428094
    13  H    4.446412   5.512120   4.497616   4.057615   4.045039
    14  H    4.237123   5.187019   4.591161   3.553998   4.019386
    15  H    2.663415   3.650420   3.038764   2.512473   2.002605
                    6          7          8          9         10
     6  O    0.000000
     7  O    2.194943   0.000000
     8  C    2.647556   1.471592   0.000000
     9  H    3.651682   2.032455   1.087297   0.000000
    10  H    2.916568   2.082335   1.090785   1.798431   0.000000
    11  H    2.419596   2.106842   1.088818   1.803436   1.801159
    12  O    2.520445   4.619120   5.145042   6.162917   5.265882
    13  H    3.016840   5.155997   5.506195   6.569214   5.458676
    14  H    3.123015   5.196083   5.697719   6.668737   5.942847
    15  H    1.034078   3.137757   3.679327   4.682680   3.882131
                   11         12         13         14         15
    11  H    0.000000
    12  O    4.749710   0.000000
    13  H    5.097776   0.971776   0.000000
    14  H    5.171860   0.973024   1.559733   0.000000
    15  H    3.371482   1.496933   2.105245   2.149462   0.000000
 Symmetry turned off by external request.
 Stoichiometry    C3H9O3(1+)
 Framework group  C1[X(C3H9O3)]
 Deg. of freedom    39
 Full point group                 C1      NOp   1
 Rotational constants (GHZ):      5.2097311      1.7463863      1.3378186
 Standard basis: 6-31+G(d) (6D, 7F)
 Integral buffers will be    262144 words long.
 Raffenetti 2 integral format.
 Two-electron integral symmetry is turned off.
   132 basis functions,   228 primitive gaussians,   132 cartesian basis functions
    25 alpha electrons       25 beta electrons
       nuclear repulsion energy       258.6678579313 Hartrees.
 NAtoms=   15 NActive=   15 NUniq=   15 SFac= 7.50D-01 NAtFMM=   80 NAOKFM=F Big=F
 One-electron integrals computed using PRISM.
 NBasis=   132 RedAO= T  NBF=   132
 NBsUse=   132 1.00D-06 NBFU=   132
 Initial guess read from the read-write file.
 B after Tr=     0.000000    0.000000    0.000000
         Rot=    1.000000    0.000000    0.000000    0.000000 Ang=   0.00 deg.
 Harris functional with IExCor= 3102 diagonalized for initial guess.
 ExpMin= 4.38D-02 ExpMax= 5.48D+03 ExpMxC= 8.25D+02 IAcc=2 IRadAn=         0 AccDes= 0.00D+00
 HarFok:  IExCor= 3102 AccDes= 0.00D+00 IRadAn=         0 IDoV= 1
 ScaDFX=  1.000000  1.000000  1.000000  1.000000
 FoFCou: FMM=F IPFlag=           0 FMFlag=      100000 FMFlg1=           0
         NFxFlg=           0 DoJE=T BraDBF=F KetDBF=T FulRan=T
         Omega=  0.000000  0.000000  1.000000  0.000000  0.000000 ICntrl=     500 IOpCl=  0
         NMat0=    1 NMatS0=    1 NMatT0=    0 NMatD0=    1 NMtDS0=    0 NMtDT0=    0
         I1Cent=           4 NGrid=           0.
 Symmetry not used in FoFCou.
 Requested convergence on RMS density matrix=1.00D-08 within 128 cycles.
 Requested convergence on MAX density matrix=1.00D-06.
 Requested convergence on             energy=1.00D-06.
 No special actions if energy rises.
 SCF Done:  E(RX3LYP) =  -345.034338655     A.U. after    8 cycles
             Convg  =    0.8172D-08             -V/T =  2.0089
 Range of M.O.s used for correlation:     1   132
 NBasis=   132 NAE=    25 NBE=    25 NFC=     0 NFV=     0
 NROrb=    132 NOA=    25 NOB=    25 NVA=   107 NVB=   107

 **** Warning!!: The largest alpha MO coefficient is  0.30485774D+02

 Symmetrizing basis deriv contribution to polar:
 IMax=3 JMax=2 DiffMx= 0.00D+00
