 Entering Gaussian System, Link 0=g09
 Initial command:
 /opt/gridware/applications/gaussian/g09/l1.exe "/lustre/SCRATCH5/gau/mlawal/1127905.sched01/Gau-13938.inp" -scrdir="/lustre/SCRATCH5/gau/mlawal/1127905.sched01/"
 Entering Link 1 = /opt/gridware/applications/gaussian/g09/l1.exe PID=     13939.
  
 Copyright (c) 1988,1990,1992,1993,1995,1998,2003,2009,2013,
            Gaussian, Inc.  All Rights Reserved.
  
 This is part of the Gaussian(R) 09 program.  It is based on
 the Gaussian(R) 03 system (copyright 2003, Gaussian, Inc.),
 the Gaussian(R) 98 system (copyright 1998, Gaussian, Inc.),
 the Gaussian(R) 94 system (copyright 1995, Gaussian, Inc.),
 the Gaussian 92(TM) system (copyright 1992, Gaussian, Inc.),
 the Gaussian 90(TM) system (copyright 1990, Gaussian, Inc.),
 the Gaussian 88(TM) system (copyright 1988, Gaussian, Inc.),
 the Gaussian 86(TM) system (copyright 1986, Carnegie Mellon
 University), and the Gaussian 82(TM) system (copyright 1983,
 Carnegie Mellon University). Gaussian is a federally registered
 trademark of Gaussian, Inc.
  
 This software contains proprietary and confidential information,
 including trade secrets, belonging to Gaussian, Inc.
  
 This software is provided under written license and may be
 used, copied, transmitted, or stored only in accord with that
 written license.
  
 The following legend is applicable only to US Government
 contracts under FAR:
  
                    RESTRICTED RIGHTS LEGEND
  
 Use, reproduction and disclosure by the US Government is
 subject to restrictions as set forth in subparagraphs (a)
 and (c) of the Commercial Computer Software - Restricted
 Rights clause in FAR 52.227-19.
  
 Gaussian, Inc.
 340 Quinnipiac St., Bldg. 40, Wallingford CT 06492
  
  
 ---------------------------------------------------------------
 Warning -- This program may not be used in any manner that
 competes with the business of Gaussian, Inc. or will provide
 assistance to any competitor of Gaussian, Inc.  The licensee
 of this program is prohibited from giving any competitor of
 Gaussian, Inc. access to this program.  By using this program,
 the user acknowledges that Gaussian, Inc. is engaged in the
 business of creating and licensing software in the field of
 computational chemistry and represents and warrants to the
 licensee that it is not a competitor of Gaussian, Inc. and that
 it will not use this program in any manner prohibited above.
 ---------------------------------------------------------------
  

 Cite this work as:
 Gaussian 09, Revision D.01,
 M. J. Frisch, G. W. Trucks, H. B. Schlegel, G. E. Scuseria, 
 M. A. Robb, J. R. Cheeseman, G. Scalmani, V. Barone, B. Mennucci, 
 G. A. Petersson, H. Nakatsuji, M. Caricato, X. Li, H. P. Hratchian, 
 A. F. Izmaylov, J. Bloino, G. Zheng, J. L. Sonnenberg, M. Hada, 
 M. Ehara, K. Toyota, R. Fukuda, J. Hasegawa, M. Ishida, T. Nakajima, 
 Y. Honda, O. Kitao, H. Nakai, T. Vreven, J. A. Montgomery, Jr., 
 J. E. Peralta, F. Ogliaro, M. Bearpark, J. J. Heyd, E. Brothers, 
 K. N. Kudin, V. N. Staroverov, T. Keith, R. Kobayashi, J. Normand, 
 K. Raghavachari, A. Rendell, J. C. Burant, S. S. Iyengar, J. Tomasi, 
 M. Cossi, N. Rega, J. M. Millam, M. Klene, J. E. Knox, J. B. Cross, 
 V. Bakken, C. Adamo, J. Jaramillo, R. Gomperts, R. E. Stratmann, 
 O. Yazyev, A. J. Austin, R. Cammi, C. Pomelli, J. W. Ochterski, 
 R. L. Martin, K. Morokuma, V. G. Zakrzewski, G. A. Voth, 
 P. Salvador, J. J. Dannenberg, S. Dapprich, A. D. Daniels, 
 O. Farkas, J. B. Foresman, J. V. Ortiz, J. Cioslowski, 
 and D. J. Fox, Gaussian, Inc., Wallingford CT, 2013.
 
 ******************************************
 Gaussian 09:  EM64L-G09RevD.01 24-Apr-2013
                22-Sep-2015 
 ******************************************
 %nprocshared=8
 Will use up to    8 processors via shared memory.
 %nprocl=1
 Will use up to    1 processors via Linda.
 -----------------------------------------------
 # freq=noraman m062x/def2tzvp geom=connectivity
 -----------------------------------------------
 1/10=4,30=1,38=1,57=2/1,3;
 2/12=2,17=6,18=5,40=1/2;
 3/5=44,7=101,11=2,16=1,25=1,30=1,71=2,74=-55,140=1/1,2,3;
 4//1;
 5/5=2,38=5,98=1/2;
 8/6=4,10=90,11=11/1;
 11/6=1,8=1,9=11,15=111,16=1/1,2,10;
 10/6=1/2;
 6/7=2,8=2,9=2,10=2,18=1,28=1/1;
 7/8=1,10=1,25=1/1,2,3,16;
 1/10=4,30=1/3;
 99//99;
 --------------
 ts611oh hcl s9
 --------------
 Symbolic Z-matrix:
 Charge =  0 Multiplicity = 1
 H                    -1.1423   -0.78878  -0.58642 
 C                    -1.01538   1.78996  -0.61097 
 H                    -0.77989   2.76336  -0.18438 
 H                    -1.13187   1.87037  -1.69208 
 H                    -1.95441   1.3968   -0.22407 
 C                     0.09138   0.80731  -0.3122 
 O                    -0.08251  -0.43133  -0.78271 
 O                     2.57389  -0.40893   0.25112 
 H                     2.16444   0.29015  -0.53147 
 C                    -0.55316   0.45749   1.97117 
 H                    -1.06426  -0.4521    1.65068 
 H                    -0.0718    0.31576   2.93564 
 H                    -1.2757    1.26958   2.04685 
 O                     0.49083   0.80765   1.05697 
 H                     1.80816  -0.24447   0.90455 
 O                     1.3565    1.29584  -0.91867 
 H                     1.18264   1.45433  -1.85492 
 Cl                   -2.79166  -1.12873  -0.22766 
 C                     2.64262  -1.79651  -0.16174 
 H                     3.44327  -1.86301  -0.89193 
 H                     2.89091  -2.38783   0.71487 
 H                     1.6865   -2.09092  -0.58833 
 

 GradGradGradGradGradGradGradGradGradGradGradGradGradGradGradGradGradGrad
 Berny optimization.
 Initialization pass.
 Trust Radius=3.00D-01 FncErr=1.00D-07 GrdErr=1.00D-07
 Number of steps in this run=      2 maximum allowed number of steps=      2.
 GradGradGradGradGradGradGradGradGradGradGradGradGradGradGradGradGradGrad

                          Input orientation:                          
 ---------------------------------------------------------------------
 Center     Atomic      Atomic             Coordinates (Angstroms)
 Number     Number       Type             X           Y           Z
 ---------------------------------------------------------------------
      1          1           0       -1.142299   -0.788784   -0.586415
      2          6           0       -1.015378    1.789955   -0.610973
      3          1           0       -0.779887    2.763360   -0.184376
      4          1           0       -1.131865    1.870365   -1.692075
      5          1           0       -1.954407    1.396796   -0.224073
      6          6           0        0.091382    0.807311   -0.312199
      7          8           0       -0.082505   -0.431331   -0.782711
      8          8           0        2.573891   -0.408933    0.251119
      9          1           0        2.164441    0.290154   -0.531469
     10          6           0       -0.553160    0.457489    1.971168
     11          1           0       -1.064262   -0.452099    1.650676
     12          1           0       -0.071797    0.315757    2.935644
     13          1           0       -1.275702    1.269575    2.046854
     14          8           0        0.490834    0.807646    1.056971
     15          1           0        1.808160   -0.244471    0.904551
     16          8           0        1.356501    1.295840   -0.918672
     17          1           0        1.182637    1.454329   -1.854923
     18         17           0       -2.791661   -1.128734   -0.227660
     19          6           0        2.642615   -1.796507   -0.161735
     20          1           0        3.443274   -1.863009   -0.891931
     21          1           0        2.890912   -2.387831    0.714870
     22          1           0        1.686499   -2.090921   -0.588333
 ---------------------------------------------------------------------
                    Distance matrix (angstroms):
                    1          2          3          4          5
     1  H    0.000000
     2  C    2.581977   0.000000
     3  H    3.593147   1.088558   0.000000
     4  H    2.879873   1.090329   1.787312   0.000000
     5  H    2.359570   1.089055   1.802379   1.748105   0.000000
     6  C    2.035849   1.509892   2.145128   2.128491   2.130848
     7  O    1.135547   2.415338   3.324214   2.688104   2.675470
     8  O    3.828292   4.296646   4.636909   4.764854   4.898158
     9  H    3.478743   3.516671   3.860866   3.835323   4.275986
    10  C    2.905428   2.942204   3.164619   3.968686   2.768551
    11  H    2.263630   3.185004   3.713147   4.070920   2.779470
    12  H    3.843291   3.955009   4.028235   4.995631   3.833625
    13  H    3.344958   2.720773   2.730497   3.789621   2.373591
    14  O    2.813615   2.452681   2.642062   3.364488   2.822654
    15  H    3.350293   3.795796   4.114705   4.456315   4.257283
    16  O    3.271094   2.442261   2.693874   2.668370   3.384490
    17  H    3.470734   2.547808   2.890638   2.357228   3.536103
    18  Cl   1.721821   3.438147   4.381496   3.727469   2.660697
    19  C    3.939725   5.142513   5.701440   5.480382   5.597650
    20  H    4.719616   5.770846   6.303889   5.959044   6.340924
    21  H    4.529579   5.871189   6.388911   6.333116   6.219496
    22  H    3.114107   4.728832   5.459880   4.985299   5.055003
                    6          7          8          9         10
     6  C    0.000000
     7  O    1.336358   0.000000
     8  O    2.821246   2.850569   0.000000
     9  H    2.147814   2.373274   1.126417   0.000000
    10  C    2.398244   2.931786   3.672561   3.698182   0.000000
    11  H    2.602788   2.624052   3.898305   3.967016   1.091463
    12  H    3.288881   3.792680   3.838166   4.125808   1.087204
    13  H    2.765454   3.510447   4.567430   4.409263   1.089623
    14  O    1.426250   2.290898   2.543342   2.364720   1.431185
    15  H    2.352457   2.540942   1.019983   1.573186   2.684446
    16  O    1.485596   2.252186   2.399312   1.346884   3.563820
    17  H    1.997365   2.511162   3.137315   2.017616   4.318061
    18  Cl   3.473810   2.852013   5.434748   5.164154   3.515940
    19  C    3.648465   3.110562   1.449322   2.172443   4.454520
    20  H    4.324567   3.806934   2.043704   2.530110   5.436316
    21  H    4.370489   3.861586   2.057086   3.041829   4.640664
    22  H    3.319698   2.433392   2.078756   2.429234   4.249884
                   11         12         13         14         15
    11  H    0.000000
    12  H    1.796032   0.000000
    13  H    1.779277   1.774571   0.000000
    14  O    2.087526   2.021861   2.076992   0.000000
    15  H    2.974999   2.823727   3.620414   1.692788   0.000000
    16  O    3.939154   4.225677   3.965290   2.211533   2.429135
    17  H    4.579547   5.081288   4.615347   3.062012   3.300287
    18  Cl   2.640055   4.414828   3.636404   4.021768   4.818939
    19  C    4.339724   4.628547   5.443522   3.591242   2.059635
    20  H    5.364084   5.634987   6.381087   4.432552   2.919009
    21  H    4.501799   4.584634   5.701883   4.011045   2.408801
    22  H    3.907120   4.615422   5.197286   3.540951   2.377579
                   16         17         18         19         20
    16  O    0.000000
    17  H    0.965357   0.000000
    18  Cl   4.854205   5.011511   0.000000
    19  C    3.433606   3.945422   5.475548   0.000000
    20  H    3.785983   4.128264   6.313068   1.085663   0.000000
    21  H    4.311880   4.927904   5.896213   1.086164   1.778300
    22  H    3.418797   3.798279   4.594541   1.087577   1.797324
                   21         22
    21  H    0.000000
    22  H    1.799195   0.000000
 Stoichiometry    C4H13ClO4
 Framework group  C1[X(C4H13ClO4)]
 Deg. of freedom    60
 Full point group                 C1      NOp   1
 Largest Abelian subgroup         C1      NOp   1
 Largest concise Abelian subgroup C1      NOp   1
                         Standard orientation:                         
 ---------------------------------------------------------------------
 Center     Atomic      Atomic             Coordinates (Angstroms)
 Number     Number       Type             X           Y           Z
 ---------------------------------------------------------------------
      1          1           0       -1.142299   -0.788784   -0.586415
      2          6           0       -1.015378    1.789955   -0.610973
      3          1           0       -0.779887    2.763360   -0.184376
      4          1           0       -1.131865    1.870365   -1.692075
      5          1           0       -1.954407    1.396796   -0.224073
      6          6           0        0.091382    0.807311   -0.312199
      7          8           0       -0.082505   -0.431331   -0.782711
      8          8           0        2.573891   -0.408933    0.251119
      9          1           0        2.164441    0.290154   -0.531469
     10          6           0       -0.553160    0.457489    1.971168
     11          1           0       -1.064262   -0.452099    1.650676
     12          1           0       -0.071797    0.315757    2.935644
     13          1           0       -1.275702    1.269575    2.046854
     14          8           0        0.490834    0.807646    1.056971
     15          1           0        1.808160   -0.244471    0.904551
     16          8           0        1.356501    1.295840   -0.918672
     17          1           0        1.182637    1.454329   -1.854923
     18         17           0       -2.791661   -1.128734   -0.227660
     19          6           0        2.642615   -1.796507   -0.161735
     20          1           0        3.443274   -1.863009   -0.891931
     21          1           0        2.890912   -2.387831    0.714870
     22          1           0        1.686499   -2.090921   -0.588333
 ---------------------------------------------------------------------
 Rotational constants (GHZ):      1.5476624      0.7460750      0.6643728
 Standard basis: def2TZVP (5D, 7F)
 There are   408 symmetry adapted cartesian basis functions of A   symmetry.
 There are   363 symmetry adapted basis functions of A   symmetry.
   363 basis functions,   581 primitive gaussians,   408 cartesian basis functions
    43 alpha electrons       43 beta electrons
       nuclear repulsion energy       631.4370084961 Hartrees.
 NAtoms=   22 NActive=   22 NUniq=   22 SFac= 1.00D+00 NAtFMM=   60 NAOKFM=F Big=F
 Integral buffers will be    131072 words long.
 Raffenetti 2 integral format.
 Two-electron integral symmetry is turned on.
 One-electron integrals computed using PRISM.
 PrsmSu:  requested number of processors reduced to:   4 ShMem   1 Linda.
   1 Symmetry operations used in ECPInt.
 ECPInt:  NShTT=   11781 NPrTT=   35496 LenC2=   11341 LenP2D=   26237.
 LDataN:  DoStor=T MaxTD1= 6 Len=  172
 NBasis=   363 RedAO= T EigKep=  2.48D-04  NBF=   363
 NBsUse=   363 1.00D-06 EigRej= -1.00D+00 NBFU=   363
 ExpMin= 9.52D-02 ExpMax= 6.95D+04 ExpMxC= 2.37D+03 IAcc=2 IRadAn=         4 AccDes= 0.00D+00
 Harris functional with IExCor= 1009 and IRadAn=       4 diagonalized for initial guess.
 HarFok:  IExCor= 1009 AccDes= 0.00D+00 IRadAn=         4 IDoV= 1 UseB2=F ITyADJ=14
 ICtDFT=  3500011 ScaDFX=  1.000000  1.000000  1.000000  1.000000
 FoFCou: FMM=F IPFlag=           0 FMFlag=      100000 FMFlg1=           0
         NFxFlg=           0 DoJE=T BraDBF=F KetDBF=T FulRan=T
         wScrn=  0.000000 ICntrl=     500 IOpCl=  0 I1Cent=   200000004 NGrid=           0
         NMat0=    1 NMatS0=      1 NMatT0=    0 NMatD0=    1 NMtDS0=    0 NMtDT0=    0
 Petite list used in FoFCou.
 Requested convergence on RMS density matrix=1.00D-08 within 128 cycles.
 Requested convergence on MAX density matrix=1.00D-06.
 Requested convergence on             energy=1.00D-06.
 No special actions if energy rises.
 Integral accuracy reduced to 1.0D-05 until final iterations.
 Initial convergence to 1.0D-05 achieved.  Increase integral accuracy.
 SCF Done:  E(RM062X) =  -921.304885140     A.U. after   14 cycles
            NFock= 14  Conv=0.65D-08     -V/T= 2.0028
 DoSCS=F DFT=T ScalE2(SS,OS)=  1.000000  1.000000
 Range of M.O.s used for correlation:     1   363
 NBasis=   363 NAE=    43 NBE=    43 NFC=     0 NFV=     0
 NROrb=    363 NOA=    43 NOB=    43 NVA=   320 NVB=   320

 **** Warning!!: The largest alpha MO coefficient is  0.15395158D+02

 PrsmSu:  requested number of processors reduced to:   4 ShMem   1 Linda.
 PrsmSu:  requested number of processors reduced to:   3 ShMem   1 Linda.
   1 Symmetry operations used in ECPInt.
 ECPInt:  NShTT=   11781 NPrTT=   35496 LenC2=   11341 LenP2D=   26237.
 LDataN:  DoStor=T MaxTD1= 7 Len=  274
 Number of processors reduced to   2 by ecpmxn.
 Symmetrizing basis deriv contribution to polar:
 IMax=3 JMax=2 DiffMx= 0.00D+00
 G2DrvN: will do     2 centers at a time, making   12 passes.
 Estimated number of processors is:    7
 Calling FoFCou, ICntrl=  3107 FMM=F I1Cent=   0 AccDes= 0.00D+00.
 CoulSu:  requested number of processors reduced to:   7 ShMem   1 Linda.
 Calling FoFCou, ICntrl=  3107 FMM=F I1Cent=   0 AccDes= 0.00D+00.
 CoulSu:  requested number of processors reduced to:   7 ShMem   1 Linda.
 Calling FoFCou, ICntrl=  3107 FMM=F I1Cent=   0 AccDes= 0.00D+00.
 CoulSu:  requested number of processors reduced to:   7 ShMem   1 Linda.
 Calling FoFCou, ICntrl=  3107 FMM=F I1Cent=   0 AccDes= 0.00D+00.
 CoulSu:  requested number of processors reduced to:   7 ShMem   1 Linda.
 Calling FoFCou, ICntrl=  3107 FMM=F I1Cent=   0 AccDes= 0.00D+00.
 CoulSu:  requested number of processors reduced to:   7 ShMem   1 Linda.
 Calling FoFCou, ICntrl=  3107 FMM=F I1Cent=   0 AccDes= 0.00D+00.
 CoulSu:  requested number of processors reduced to:   7 ShMem   1 Linda.
 Calling FoFCou, ICntrl=  3107 FMM=F I1Cent=   0 AccDes= 0.00D+00.
 CoulSu:  requested number of processors reduced to:   7 ShMem   1 Linda.
 Calling FoFCou, ICntrl=  3107 FMM=F I1Cent=   0 AccDes= 0.00D+00.
 CoulSu:  requested number of processors reduced to:   7 ShMem   1 Linda.
 Calling FoFCou, ICntrl=  3107 FMM=F I1Cent=   0 AccDes= 0.00D+00.
 CoulSu:  requested number of processors reduced to:   7 ShMem   1 Linda.
 Calling FoFCou, ICntrl=  3107 FMM=F I1Cent=   0 AccDes= 0.00D+00.
 CoulSu:  requested number of processors reduced to:   7 ShMem   1 Linda.
 Calling FoFCou, ICntrl=  3107 FMM=F I1Cent=   0 AccDes= 0.00D+00.
 CoulSu:  requested number of processors reduced to:   7 ShMem   1 Linda.
 Calling FoFCou, ICntrl=  3107 FMM=F I1Cent=   0 AccDes= 0.00D+00.
 CoulSu:  requested number of processors reduced to:   7 ShMem   1 Linda.
 End of G2Drv F.D. properties file   721 does not exist.
 End of G2Drv F.D. properties file   722 does not exist.
 End of G2Drv F.D. properties file   788 does not exist.
          IDoAtm=1111111111111111111111
          Differentiating once with respect to electric field.
                with respect to dipole field.
          Differentiating once with respect to nuclear coordinates.
 PrRfSu:  requested number of processors reduced to:   5 ShMem   1 Linda.
 PrRfSu:  requested number of processors reduced to:   5 ShMem   1 Linda.
 PrRfSu:  requested number of processors reduced to:   5 ShMem   1 Linda.
 PrRfSu:  requested number of processors reduced to:   5 ShMem   1 Linda.
          There are    69 degrees of freedom in the 1st order CPHF.  IDoFFX=6 NUNeed=     3.
     69 vectors produced by pass  0 Test12= 1.99D-14 1.45D-09 XBig12= 4.03D+01 1.63D+00.
 AX will form    16 AO Fock derivatives at one time.
 PrRfSu:  requested number of processors reduced to:   5 ShMem   1 Linda.
 PrRfSu:  requested number of processors reduced to:   5 ShMem   1 Linda.
 PrRfSu:  requested number of processors reduced to:   5 ShMem   1 Linda.
 PrRfSu:  requested number of processors reduced to:   5 ShMem   1 Linda.
     66 vectors produced by pass  1 Test12= 1.99D-14 1.45D-09 XBig12= 3.27D+00 2.74D-01.
 PrRfSu:  requested number of processors reduced to:   5 ShMem   1 Linda.
 PrRfSu:  requested number of processors reduced to:   5 ShMem   1 Linda.
 PrRfSu:  requested number of processors reduced to:   5 ShMem   1 Linda.
 PrRfSu:  requested number of processors reduced to:   5 ShMem   1 Linda.
     66 vectors produced by pass  2 Test12= 1.99D-14 1.45D-09 XBig12= 7.88D-02 4.73D-02.
 PrRfSu:  requested number of processors reduced to:   5 ShMem   1 Linda.
 PrRfSu:  requested number of processors reduced to:   5 ShMem   1 Linda.
 PrRfSu:  requested number of processors reduced to:   5 ShMem   1 Linda.
 PrRfSu:  requested number of processors reduced to:   5 ShMem   1 Linda.
     66 vectors produced by pass  3 Test12= 1.99D-14 1.45D-09 XBig12= 8.18D-04 4.83D-03.
 PrRfSu:  requested number of processors reduced to:   5 ShMem   1 Linda.
 PrRfSu:  requested number of processors reduced to:   5 ShMem   1 Linda.
 PrRfSu:  requested number of processors reduced to:   5 ShMem   1 Linda.
 PrRfSu:  requested number of processors reduced to:   5 ShMem   1 Linda.
     66 vectors produced by pass  4 Test12= 1.99D-14 1.45D-09 XBig12= 5.26D-06 3.33D-04.
 PrRfSu:  requested number of processors reduced to:   5 ShMem   1 Linda.
 PrRfSu:  requested number of processors reduced to:   5 ShMem   1 Linda.
 PrRfSu:  requested number of processors reduced to:   5 ShMem   1 Linda.
 PrRfSu:  requested number of processors reduced to:   5 ShMem   1 Linda.
     66 vectors produced by pass  5 Test12= 1.99D-14 1.45D-09 XBig12= 5.47D-08 3.88D-05.
 PrRfSu:  requested number of processors reduced to:   5 ShMem   1 Linda.
 PrRfSu:  requested number of processors reduced to:   5 ShMem   1 Linda.
 PrRfSu:  requested number of processors reduced to:   5 ShMem   1 Linda.
 PrRfSu:  requested number of processors reduced to:   5 ShMem   1 Linda.
     52 vectors produced by pass  6 Test12= 1.99D-14 1.45D-09 XBig12= 3.22D-10 1.38D-06.
 PrRfSu:  requested number of processors reduced to:   5 ShMem   1 Linda.
 PrRfSu:  requested number of processors reduced to:   5 ShMem   1 Linda.
 PrRfSu:  requested number of processors reduced to:   5 ShMem   1 Linda.
      7 vectors produced by pass  7 Test12= 1.99D-14 1.45D-09 XBig12= 1.32D-12 9.08D-08.
 PrRfSu:  requested number of processors reduced to:   6 ShMem   1 Linda.
      3 vectors produced by pass  8 Test12= 1.99D-14 1.45D-09 XBig12= 6.03D-15 9.01D-09.
 InvSVY:  IOpt=1 It=  1 EMax= 7.11D-15
 Solved reduced A of dimension   461 with    69 vectors.
 Isotropic polarizability for W=    0.000000       87.40 Bohr**3.
 End of Minotr F.D. properties file   721 does not exist.
 End of Minotr F.D. properties file   722 does not exist.
 End of Minotr F.D. properties file   788 does not exist.

 **********************************************************************

            Population analysis using the SCF density.

 **********************************************************************

 Orbital symmetries:
       Occupied  (A) (A) (A) (A) (A) (A) (A) (A) (A) (A) (A) (A)
                 (A) (A) (A) (A) (A) (A) (A) (A) (A) (A) (A) (A)
                 (A) (A) (A) (A) (A) (A) (A) (A) (A) (A) (A) (A)
                 (A) (A) (A) (A) (A) (A) (A)
       Virtual   (A) (A) (A) (A) (A) (A) (A) (A) (A) (A) (A) (A)
                 (A) (A) (A) (A) (A) (A) (A) (A) (A) (A) (A) (A)
                 (A) (A) (A) (A) (A) (A) (A) (A) (A) (A) (A) (A)
                 (A) (A) (A) (A) (A) (A) (A) (A) (A) (A) (A) (A)
                 (A) (A) (A) (A) (A) (A) (A) (A) (A) (A) (A) (A)
                 (A) (A) (A) (A) (A) (A) (A) (A) (A) (A) (A) (A)
                 (A) (A) (A) (A) (A) (A) (A) (A) (A) (A) (A) (A)
                 (A) (A) (A) (A) (A) (A) (A) (A) (A) (A) (A) (A)
                 (A) (A) (A) (A) (A) (A) (A) (A) (A) (A) (A) (A)
                 (A) (A) (A) (A) (A) (A) (A) (A) (A) (A) (A) (A)
                 (A) (A) (A) (A) (A) (A) (A) (A) (A) (A) (A) (A)
                 (A) (A) (A) (A) (A) (A) (A) (A) (A) (A) (A) (A)
                 (A) (A) (A) (A) (A) (A) (A) (A) (A) (A) (A) (A)
                 (A) (A) (A) (A) (A) (A) (A) (A) (A) (A) (A) (A)
                 (A) (A) (A) (A) (A) (A) (A) (A) (A) (A) (A) (A)
                 (A) (A) (A) (A) (A) (A) (A) (A) (A) (A) (A) (A)
                 (A) (A) (A) (A) (A) (A) (A) (A) (A) (A) (A) (A)
                 (A) (A) (A) (A) (A) (A) (A) (A) (A) (A) (A) (A)
                 (A) (A) (A) (A) (A) (A) (A) (A) (A) (A) (A) (A)
                 (A) (A) (A) (A) (A) (A) (A) (A) (A) (A) (A) (A)
                 (A) (A) (A) (A) (A) (A) (A) (A) (A) (A) (A) (A)
                 (A) (A) (A) (A) (A) (A) (A) (A) (A) (A) (A) (A)
                 (A) (A) (A) (A) (A) (A) (A) (A) (A) (A) (A) (A)
                 (A) (A) (A) (A) (A) (A) (A) (A) (A) (A) (A) (A)
                 (A) (A) (A) (A) (A) (A) (A) (A) (A) (A) (A) (A)
                 (A) (A) (A) (A) (A) (A) (A) (A) (A) (A) (A) (A)
                 (A) (A) (A) (A) (A) (A) (A) (A)
 The electronic state is 1-A.
 Alpha  occ. eigenvalues -- -102.50587 -19.74115 -19.70734 -19.67476 -19.61921
 Alpha  occ. eigenvalues --  -10.72421 -10.63502 -10.59045 -10.54245  -9.66922
 Alpha  occ. eigenvalues --   -7.38877  -7.38758  -7.38754  -1.28037  -1.24271
 Alpha  occ. eigenvalues --   -1.18241  -1.13140  -0.86549  -0.85705  -0.82099
 Alpha  occ. eigenvalues --   -0.77915  -0.71768  -0.69761  -0.67350  -0.62675
 Alpha  occ. eigenvalues --   -0.62449  -0.59111  -0.58242  -0.55547  -0.54240
 Alpha  occ. eigenvalues --   -0.52016  -0.50510  -0.49470  -0.47991  -0.47013
 Alpha  occ. eigenvalues --   -0.44761  -0.44520  -0.43706  -0.38516  -0.37557
 Alpha  occ. eigenvalues --   -0.28914  -0.27576  -0.27468
 Alpha virt. eigenvalues --    0.02300   0.04823   0.07220   0.08186   0.10099
 Alpha virt. eigenvalues --    0.11546   0.11863   0.12810   0.13392   0.13534
 Alpha virt. eigenvalues --    0.15229   0.16542   0.16975   0.18038   0.18879
 Alpha virt. eigenvalues --    0.19736   0.20322   0.23505   0.23687   0.24165
 Alpha virt. eigenvalues --    0.25587   0.26136   0.27366   0.28973   0.29402
 Alpha virt. eigenvalues --    0.30576   0.31096   0.33001   0.34685   0.35200
 Alpha virt. eigenvalues --    0.37395   0.37532   0.38357   0.40302   0.40920
 Alpha virt. eigenvalues --    0.42050   0.42969   0.45254   0.45356   0.46822
 Alpha virt. eigenvalues --    0.47399   0.48018   0.48662   0.49035   0.49790
 Alpha virt. eigenvalues --    0.50383   0.50716   0.52177   0.53351   0.54329
 Alpha virt. eigenvalues --    0.55141   0.55882   0.56867   0.59048   0.60781
 Alpha virt. eigenvalues --    0.60988   0.62214   0.62734   0.64275   0.66318
 Alpha virt. eigenvalues --    0.68057   0.68824   0.70112   0.71548   0.74214
 Alpha virt. eigenvalues --    0.74975   0.76814   0.77557   0.78022   0.79807
 Alpha virt. eigenvalues --    0.81611   0.84360   0.85540   0.87906   0.90140
 Alpha virt. eigenvalues --    0.90701   0.92261   0.93374   0.95003   0.95647
 Alpha virt. eigenvalues --    0.99632   1.01058   1.02230   1.06128   1.07574
 Alpha virt. eigenvalues --    1.09030   1.11904   1.14504   1.16192   1.17080
 Alpha virt. eigenvalues --    1.21687   1.23071   1.27757   1.34453   1.36012
 Alpha virt. eigenvalues --    1.37794   1.44579   1.44888   1.46059   1.48236
 Alpha virt. eigenvalues --    1.49687   1.51491   1.52016   1.52845   1.54453
 Alpha virt. eigenvalues --    1.55141   1.56760   1.58051   1.58946   1.60459
 Alpha virt. eigenvalues --    1.60827   1.62204   1.64878   1.65286   1.67354
 Alpha virt. eigenvalues --    1.70776   1.73323   1.75198   1.76399   1.77867
 Alpha virt. eigenvalues --    1.79724   1.81863   1.83867   1.85342   1.86247
 Alpha virt. eigenvalues --    1.87298   1.89694   1.91928   1.92484   1.92804
 Alpha virt. eigenvalues --    1.93144   1.95474   1.96573   1.98447   1.99510
 Alpha virt. eigenvalues --    2.01079   2.02633   2.03227   2.05464   2.06714
 Alpha virt. eigenvalues --    2.07188   2.08540   2.11296   2.12587   2.13764
 Alpha virt. eigenvalues --    2.17142   2.17610   2.20871   2.21005   2.22282
 Alpha virt. eigenvalues --    2.23905   2.23957   2.24181   2.25149   2.26597
 Alpha virt. eigenvalues --    2.26830   2.27874   2.28624   2.29372   2.30335
 Alpha virt. eigenvalues --    2.31927   2.33333   2.34982   2.35352   2.36444
 Alpha virt. eigenvalues --    2.39123   2.39494   2.40671   2.41316   2.42780
 Alpha virt. eigenvalues --    2.44376   2.45761   2.46067   2.46815   2.50165
 Alpha virt. eigenvalues --    2.51819   2.52896   2.54377   2.55236   2.57358
 Alpha virt. eigenvalues --    2.57596   2.58973   2.60437   2.62090   2.62945
 Alpha virt. eigenvalues --    2.66503   2.69394   2.70832   2.71455   2.73965
 Alpha virt. eigenvalues --    2.76066   2.79530   2.80288   2.82286   2.85677
 Alpha virt. eigenvalues --    2.91808   2.93089   2.97428   2.98733   3.02136
 Alpha virt. eigenvalues --    3.03398   3.06730   3.08515   3.11106   3.12014
 Alpha virt. eigenvalues --    3.13528   3.15134   3.17029   3.17895   3.20437
 Alpha virt. eigenvalues --    3.21544   3.22581   3.25507   3.26247   3.27530
 Alpha virt. eigenvalues --    3.31127   3.32875   3.33078   3.33900   3.36236
 Alpha virt. eigenvalues --    3.37615   3.42391   3.43030   3.46304   3.47786
 Alpha virt. eigenvalues --    3.49118   3.49658   3.51379   3.51979   3.58022
 Alpha virt. eigenvalues --    3.58634   3.61996   3.63201   3.66399   3.68889
 Alpha virt. eigenvalues --    3.76438   3.81275   3.82690   3.84853   3.91509
 Alpha virt. eigenvalues --    3.95488   3.96816   3.99376   4.07945   4.11345
 Alpha virt. eigenvalues --    4.16174   4.21273   4.22408   4.30699   4.35384
 Alpha virt. eigenvalues --    4.38765   4.39123   4.42144   4.44702   4.49714
 Alpha virt. eigenvalues --    4.54251   4.60796   4.65656   4.79548   4.83228
 Alpha virt. eigenvalues --    5.16468   5.23672   5.26038   5.27081   5.29319
 Alpha virt. eigenvalues --    5.30758   5.33531   5.40133   5.41516   5.44026
 Alpha virt. eigenvalues --    5.53665   5.56512   5.59838   5.64134   5.65374
 Alpha virt. eigenvalues --    5.70008   5.74136   5.74524   5.78045   5.92095
 Alpha virt. eigenvalues --    5.94345   6.04870   6.09791   6.15268   6.17516
 Alpha virt. eigenvalues --    6.23500   6.26211   6.36789   6.48428   6.51036
 Alpha virt. eigenvalues --    6.53121   6.64872   6.67498   6.69654   6.70231
 Alpha virt. eigenvalues --    6.75785   6.77267   6.84644   6.87330   6.92707
 Alpha virt. eigenvalues --    7.00318   7.04140   7.06333   7.09343   7.18756
 Alpha virt. eigenvalues --    7.24341   7.28557   7.40442  10.92161  10.93872
 Alpha virt. eigenvalues --   11.06232  22.36889  22.43872  22.50744  22.88571
 Alpha virt. eigenvalues --   25.00544  43.88124  43.99492  44.27736  44.34587
          Condensed to atoms (all electrons):
               1          2          3          4          5          6
     1  H    0.300312   0.004330   0.000005  -0.000585  -0.008827  -0.000446
     2  C    0.004330   5.431277   0.389726   0.390474   0.357649   0.049139
     3  H    0.000005   0.389726   0.526760  -0.024217  -0.016617  -0.044744
     4  H   -0.000585   0.390474  -0.024217   0.509802  -0.010726  -0.019235
     5  H   -0.008827   0.357649  -0.016617  -0.010726   0.450321   0.003902
     6  C   -0.000446   0.049139  -0.044744  -0.019235   0.003902   5.067628
     7  O    0.157524  -0.051113   0.006094   0.000459  -0.002046   0.310923
     8  O   -0.000289   0.003193  -0.000036  -0.000003   0.000041   0.024525
     9  H    0.000114  -0.000385   0.000087  -0.000040  -0.000078   0.000057
    10  C   -0.006277   0.022658  -0.001966   0.000494  -0.002475  -0.066782
    11  H   -0.005215  -0.019105  -0.000091   0.000228   0.001132   0.026421
    12  H   -0.000135  -0.002228  -0.000055   0.000012   0.000882   0.006585
    13  H    0.000477   0.007061  -0.003853  -0.000033  -0.006309  -0.010289
    14  O    0.004218  -0.036229   0.004513   0.004666  -0.005605   0.130247
    15  H   -0.000185   0.001220  -0.000156  -0.000120  -0.000091  -0.007745
    16  O   -0.000279  -0.025297  -0.001514  -0.005155   0.004232   0.184627
    17  H    0.000095  -0.007070   0.000303   0.001481   0.000360  -0.008053
    18  Cl   0.204038  -0.057296   0.002418  -0.001476   0.041439   0.078487
    19  C   -0.000437   0.000173   0.000028  -0.000009   0.000013   0.002726
    20  H    0.000017   0.000016  -0.000002   0.000000  -0.000001   0.000338
    21  H    0.000026  -0.000002   0.000000   0.000000   0.000000   0.000085
    22  H    0.000670   0.000043  -0.000026   0.000005  -0.000042  -0.003001
               7          8          9         10         11         12
     1  H    0.157524  -0.000289   0.000114  -0.006277  -0.005215  -0.000135
     2  C   -0.051113   0.003193  -0.000385   0.022658  -0.019105  -0.002228
     3  H    0.006094  -0.000036   0.000087  -0.001966  -0.000091  -0.000055
     4  H    0.000459  -0.000003  -0.000040   0.000494   0.000228   0.000012
     5  H   -0.002046   0.000041  -0.000078  -0.002475   0.001132   0.000882
     6  C    0.310923   0.024525   0.000057  -0.066782   0.026421   0.006585
     7  O    8.377019  -0.006539   0.000702   0.000074   0.007172  -0.000414
     8  O   -0.006539   7.919379   0.231106   0.002741   0.000046   0.000503
     9  H    0.000702   0.231106   0.270433  -0.000357   0.000126  -0.000015
    10  C    0.000074   0.002741  -0.000357   4.993950   0.388878   0.380858
    11  H    0.007172   0.000046   0.000126   0.388878   0.482263  -0.019474
    12  H   -0.000414   0.000503  -0.000015   0.380858  -0.019474   0.542465
    13  H   -0.000479  -0.000260   0.000032   0.412281  -0.029414  -0.022857
    14  O   -0.074392  -0.055862  -0.000632   0.177897  -0.046637  -0.028776
    15  H    0.000670   0.273541  -0.022534  -0.006785  -0.000984  -0.002231
    16  O   -0.094118  -0.110659   0.122388   0.003365   0.000036   0.000027
    17  H    0.000985   0.002707  -0.002247  -0.000537  -0.000001   0.000033
    18  Cl  -0.126082  -0.000001   0.000237  -0.040195   0.035068   0.002328
    19  C   -0.012419   0.167227  -0.011109  -0.000709  -0.000382   0.000014
    20  H    0.000484  -0.027027  -0.006560   0.000018   0.000008  -0.000002
    21  H    0.000187  -0.024130   0.003691   0.000237   0.000014   0.000000
    22  H    0.006777  -0.037651  -0.000774  -0.000399   0.000152   0.000004
              13         14         15         16         17         18
     1  H    0.000477   0.004218  -0.000185  -0.000279   0.000095   0.204038
     2  C    0.007061  -0.036229   0.001220  -0.025297  -0.007070  -0.057296
     3  H   -0.003853   0.004513  -0.000156  -0.001514   0.000303   0.002418
     4  H   -0.000033   0.004666  -0.000120  -0.005155   0.001481  -0.001476
     5  H   -0.006309  -0.005605  -0.000091   0.004232   0.000360   0.041439
     6  C   -0.010289   0.130247  -0.007745   0.184627  -0.008053   0.078487
     7  O   -0.000479  -0.074392   0.000670  -0.094118   0.000985  -0.126082
     8  O   -0.000260  -0.055862   0.273541  -0.110659   0.002707  -0.000001
     9  H    0.000032  -0.000632  -0.022534   0.122388  -0.002247   0.000237
    10  C    0.412281   0.177897  -0.006785   0.003365  -0.000537  -0.040195
    11  H   -0.029414  -0.046637  -0.000984   0.000036  -0.000001   0.035068
    12  H   -0.022857  -0.028776  -0.002231   0.000027   0.000033   0.002328
    13  H    0.527708  -0.032662   0.001375   0.000006  -0.000008   0.001725
    14  O   -0.032662   8.327520   0.062139  -0.060573   0.004535  -0.003449
    15  H    0.001375   0.062139   0.304622   0.005384  -0.000225  -0.000086
    16  O    0.000006  -0.060573   0.005384   8.135936   0.298366  -0.000246
    17  H   -0.000008   0.004535  -0.000225   0.298366   0.347631   0.000286
    18  Cl   0.001725  -0.003449  -0.000086  -0.000246   0.000286  17.507067
    19  C    0.000034   0.004971  -0.011801   0.008430  -0.000351  -0.000334
    20  H    0.000000  -0.000198   0.004605   0.000323   0.000005   0.000004
    21  H   -0.000005  -0.000142  -0.008277  -0.000244   0.000027   0.000016
    22  H    0.000015   0.000747  -0.000397  -0.000028  -0.000136   0.000619
              19         20         21         22
     1  H   -0.000437   0.000017   0.000026   0.000670
     2  C    0.000173   0.000016  -0.000002   0.000043
     3  H    0.000028  -0.000002   0.000000  -0.000026
     4  H   -0.000009   0.000000   0.000000   0.000005
     5  H    0.000013  -0.000001   0.000000  -0.000042
     6  C    0.002726   0.000338   0.000085  -0.003001
     7  O   -0.012419   0.000484   0.000187   0.006777
     8  O    0.167227  -0.027027  -0.024130  -0.037651
     9  H   -0.011109  -0.006560   0.003691  -0.000774
    10  C   -0.000709   0.000018   0.000237  -0.000399
    11  H   -0.000382   0.000008   0.000014   0.000152
    12  H    0.000014  -0.000002   0.000000   0.000004
    13  H    0.000034   0.000000  -0.000005   0.000015
    14  O    0.004971  -0.000198  -0.000142   0.000747
    15  H   -0.011801   0.004605  -0.008277  -0.000397
    16  O    0.008430   0.000323  -0.000244  -0.000028
    17  H   -0.000351   0.000005   0.000027  -0.000136
    18  Cl  -0.000334   0.000004   0.000016   0.000619
    19  C    4.886924   0.402303   0.404715   0.416857
    20  H    0.402303   0.514999  -0.019648  -0.027133
    21  H    0.404715  -0.019648   0.508822  -0.025908
    22  H    0.416857  -0.027133  -0.025908   0.464585
 Mulliken charges:
               1
     1  H    0.350849
     2  C   -0.458235
     3  H    0.163345
     4  H    0.153981
     5  H    0.192844
     6  C    0.274607
     7  O   -0.501468
     8  O   -0.362552
     9  H    0.415759
    10  C   -0.256968
    11  H    0.179758
    12  H    0.142477
    13  H    0.155452
    14  O   -0.376295
    15  H    0.408063
    16  O   -0.465008
    17  H    0.361816
    18  Cl  -0.644566
    19  C   -0.256865
    20  H    0.157450
    21  H    0.160535
    22  H    0.205021
 Sum of Mulliken charges =   0.00000
 Mulliken charges with hydrogens summed into heavy atoms:
               1
     2  C    0.051935
     6  C    0.274607
     7  O   -0.150619
     8  O    0.461270
    10  C    0.220718
    14  O   -0.376295
    16  O   -0.103192
    18  Cl  -0.644566
    19  C    0.266141
 APT charges:
               1
     1  H    0.760707
     2  C   -0.132892
     3  H    0.016221
     4  H    0.023900
     5  H    0.095023
     6  C    1.338219
     7  O   -1.103742
     8  O   -0.847229
     9  H    0.708056
    10  C    0.387879
    11  H    0.053799
    12  H   -0.001958
    13  H   -0.001149
    14  O   -0.918587
    15  H    0.555019
    16  O   -0.910463
    17  H    0.301850
    18  Cl  -0.830752
    19  C    0.403630
    20  H    0.023709
    21  H    0.020209
    22  H    0.058549
 Sum of APT charges =   0.00000
 APT charges with hydrogens summed into heavy atoms:
               1
     2  C    0.002252
     6  C    1.338219
     7  O   -0.343035
     8  O    0.415845
    10  C    0.438572
    14  O   -0.918587
    16  O   -0.608613
    18  Cl  -0.830752
    19  C    0.506098
 Electronic spatial extent (au):  <R**2>=           1881.0109
 Charge=              0.0000 electrons
 Dipole moment (field-independent basis, Debye):
    X=              9.3376    Y=              2.4135    Z=              0.1093  Tot=              9.6451
 Quadrupole moment (field-independent basis, Debye-Ang):
   XX=            -76.6620   YY=            -62.6010   ZZ=            -56.6059
   XY=            -17.1228   XZ=             -5.9162   YZ=             -5.0692
 Traceless Quadrupole moment (field-independent basis, Debye-Ang):
   XX=            -11.3723   YY=              2.6886   ZZ=              8.6837
   XY=            -17.1228   XZ=             -5.9162   YZ=             -5.0692
 Octapole moment (field-independent basis, Debye-Ang**2):
  XXX=            100.5400  YYY=              1.7841  ZZZ=             -1.5023  XYY=             26.7296
  XXY=              8.5318  XXZ=             -2.6121  XZZ=             15.3074  YZZ=              9.9490
  YYZ=             -5.3181  XYZ=             -2.1719
 Hexadecapole moment (field-independent basis, Debye-Ang**3):
 XXXX=          -1548.9819 YYYY=           -598.4373 ZZZZ=           -341.1479 XXXY=           -122.6001
 XXXZ=            -44.8911 YYYX=            -51.2832 YYYZ=             -9.4263 ZZZX=            -16.8467
 ZZZY=            -22.9438 XXYY=           -334.6465 XXZZ=           -288.3233 YYZZ=           -154.8342
 XXYZ=             -7.3052 YYXZ=             -8.1385 ZZXY=             -3.0017
 N-N= 6.314370084961D+02 E-N=-3.439729687607D+03  KE= 9.187296369735D+02
  Exact polarizability:  97.938  -0.483  84.040  -1.789  -2.139  80.228
 Approx polarizability: 106.527   1.977  97.192  -2.082  -1.558  96.617
 PrsmSu:  requested number of processors reduced to:   4 ShMem   1 Linda.
 PrsmSu:  requested number of processors reduced to:   4 ShMem   1 Linda.
   1 Symmetry operations used in ECPInt.
 ECPInt:  NShTT=   11781 NPrTT=   35496 LenC2=   11341 LenP2D=   26237.
 LDataN:  DoStor=T MaxTD1= 8 Len=  415
 Calling FoFJK, ICntrl=    100127 FMM=F ISym2X=0 I1Cent= 0 IOpClX= 0 NMat=1 NMatS=1 NMatT=0.
 CoulSu:  requested number of processors reduced to:   4 ShMem   1 Linda.
 Full mass-weighted force constant matrix:
 Low frequencies --- -232.1579  -26.2212   -0.0025   -0.0024    0.0015   20.8374
 Low frequencies ---   31.4489   54.3644   77.4780
 ******    1 imaginary frequencies (negative Signs) ****** 
 Diagonal vibrational polarizability:
      489.0386874     110.5840621      39.2078288
 Harmonic frequencies (cm**-1), IR intensities (KM/Mole), Raman scattering
 activities (A**4/AMU), depolarization ratios for plane and unpolarized
 incident light, reduced masses (AMU), force constants (mDyne/A),
 and normal coordinates:
                      1                      2                      3
                      A                      A                      A
 Frequencies --   -231.5784                38.1567                77.2699
 Red. masses --      2.2186                 2.5029                 4.1116
 Frc consts  --      0.0701                 0.0021                 0.0145
 IR Inten    --    180.2358                 2.4211                 6.7033
  Atom  AN      X      Y      Z        X      Y      Z        X      Y      Z
     1   1    -0.19  -0.03   0.06     0.06  -0.01  -0.01     0.03   0.05   0.02
     2   6     0.03   0.03  -0.06     0.00  -0.01   0.04     0.03   0.09  -0.09
     3   1     0.05   0.03  -0.08    -0.03  -0.01   0.07    -0.03   0.09  -0.04
     4   1     0.07   0.00  -0.07     0.01   0.01   0.04     0.13   0.12  -0.10
     5   1     0.00   0.09  -0.07     0.00  -0.04   0.02     0.01   0.07  -0.18
     6   6    -0.08  -0.04   0.08     0.01   0.01   0.03     0.02   0.10  -0.01
     7   8    -0.06   0.00   0.06     0.03   0.01  -0.01     0.04   0.10  -0.01
     8   8     0.09  -0.01  -0.05    -0.03  -0.07  -0.01    -0.11  -0.10  -0.01
     9   1    -0.34   0.40  -0.08     0.00  -0.03   0.03    -0.04  -0.04   0.01
    10   6    -0.05   0.01   0.02    -0.08   0.27   0.05    -0.04  -0.06  -0.06
    11   1     0.06  -0.06   0.06    -0.42   0.47   0.01     0.26  -0.25   0.01
    12   1    -0.04   0.09   0.03    -0.10   0.04   0.02    -0.09   0.21   0.01
    13   1    -0.16  -0.08   0.01     0.22   0.54   0.12    -0.30  -0.28  -0.23
    14   8    -0.10   0.09   0.02     0.00  -0.04   0.02    -0.05   0.12   0.00
    15   1     0.33  -0.26   0.11    -0.04  -0.13  -0.01    -0.07  -0.05   0.00
    16   8     0.08  -0.09   0.05     0.01   0.02   0.04     0.06   0.08   0.05
    17   1     0.19  -0.45  -0.04     0.01   0.04   0.05     0.09   0.16   0.06
    18  17     0.00   0.00  -0.01     0.03  -0.07  -0.02     0.13  -0.09   0.07
    19   6     0.06   0.03  -0.10    -0.01  -0.04  -0.12    -0.24  -0.10  -0.04
    20   1     0.01   0.04  -0.15     0.01   0.03  -0.11    -0.27  -0.16  -0.06
    21   1     0.11  -0.05  -0.16    -0.02  -0.11  -0.16    -0.26  -0.13  -0.05
    22   1     0.04   0.02  -0.06     0.00  -0.01  -0.16    -0.28  -0.01  -0.01
                      4                      5                      6
                      A                      A                      A
 Frequencies --    102.7444               129.7111               151.0953
 Red. masses --      4.2220                 3.2350                 1.1960
 Frc consts  --      0.0263                 0.0321                 0.0161
 IR Inten    --     28.6676                24.7537                 4.8342
  Atom  AN      X      Y      Z        X      Y      Z        X      Y      Z
     1   1    -0.16   0.00   0.11     0.18  -0.06   0.07    -0.08   0.02   0.02
     2   6    -0.02   0.02   0.09    -0.09  -0.17  -0.08     0.02   0.05   0.02
     3   1     0.06   0.05  -0.04    -0.15  -0.07  -0.29     0.05   0.04   0.04
     4   1    -0.15  -0.09   0.09    -0.17  -0.40  -0.09     0.02   0.08   0.02
     5   1     0.02   0.08   0.24    -0.04  -0.17   0.04     0.02   0.07   0.01
     6   6    -0.01   0.02   0.05     0.02  -0.01   0.04     0.00   0.01   0.00
     7   8    -0.05   0.01   0.17     0.14  -0.10   0.16    -0.05   0.02   0.01
     8   8     0.01   0.02  -0.08    -0.07  -0.05  -0.02    -0.02   0.00   0.02
     9   1    -0.07   0.01  -0.12     0.04  -0.09   0.02     0.00   0.01   0.01
    10   6     0.19   0.05   0.09     0.02  -0.01   0.03     0.03   0.00   0.00
    11   1     0.15   0.09   0.04     0.17  -0.10   0.06     0.04   0.00   0.00
    12   1     0.27  -0.08   0.03     0.02   0.12   0.05     0.05   0.00   0.00
    13   1     0.21   0.05   0.26    -0.12  -0.12  -0.03     0.03  -0.01   0.02
    14   8     0.10   0.14   0.03    -0.01   0.11   0.04     0.02   0.02  -0.01
    15   1     0.10   0.12  -0.02    -0.10  -0.07  -0.04    -0.05  -0.01  -0.01
    16   8    -0.03  -0.02  -0.08    -0.05   0.05   0.03     0.01  -0.02  -0.03
    17   1    -0.10  -0.13  -0.08    -0.10   0.22   0.07     0.01  -0.07  -0.04
    18  17     0.00  -0.08  -0.15     0.01   0.09  -0.03    -0.01  -0.04   0.00
    19   6    -0.17  -0.04   0.09     0.02  -0.02  -0.12     0.02   0.01   0.00
    20   1    -0.33  -0.20  -0.07     0.22   0.05   0.09     0.41  -0.06   0.42
    21   1    -0.03   0.06   0.12    -0.21  -0.09  -0.10    -0.52  -0.07   0.10
    22   1    -0.27  -0.03   0.32     0.13   0.02  -0.38     0.20   0.14  -0.51
                      7                      8                      9
                      A                      A                      A
 Frequencies --    191.8805               208.7993               211.2957
 Red. masses --      2.8136                 2.8827                 1.3008
 Frc consts  --      0.0610                 0.0740                 0.0342
 IR Inten    --     56.0054                23.0220                 4.8246
  Atom  AN      X      Y      Z        X      Y      Z        X      Y      Z
     1   1    -0.02  -0.06  -0.03     0.00   0.03   0.03    -0.01  -0.01   0.03
     2   6     0.00  -0.08  -0.02     0.07   0.03  -0.07     0.01  -0.02   0.05
     3   1     0.06  -0.05  -0.12     0.12   0.07  -0.20    -0.11  -0.10   0.29
     4   1    -0.07  -0.18  -0.01     0.01  -0.10  -0.08     0.20   0.23   0.04
     5   1     0.02  -0.02   0.08     0.07   0.10   0.02    -0.03  -0.15  -0.20
     6   6    -0.01  -0.09  -0.01     0.06   0.03  -0.04     0.02  -0.02   0.00
     7   8     0.02  -0.06  -0.04    -0.01   0.00   0.05     0.00  -0.03   0.02
     8   8     0.09   0.11   0.06    -0.06  -0.01   0.22     0.02   0.02   0.03
     9   1     0.02   0.19   0.06     0.15  -0.06   0.24     0.08  -0.02   0.05
    10   6    -0.01  -0.01   0.03     0.07  -0.05  -0.03     0.01   0.07   0.00
    11   1    -0.14   0.07   0.00     0.00   0.04  -0.17     0.26  -0.16   0.25
    12   1     0.03  -0.14  -0.01     0.10  -0.25  -0.08    -0.08   0.54   0.11
    13   1     0.11   0.08   0.13     0.13  -0.01   0.15    -0.20  -0.08  -0.40
    14   8    -0.02  -0.08  -0.01     0.05   0.06  -0.02     0.05  -0.03   0.01
    15   1     0.13   0.14   0.08    -0.21  -0.03   0.10    -0.01   0.04   0.01
    16   8     0.01  -0.03   0.01     0.04  -0.02  -0.02    -0.01  -0.01  -0.02
    17   1     0.05  -0.19  -0.03     0.06  -0.05  -0.03    -0.03  -0.01  -0.01
    18  17     0.06   0.05   0.01    -0.08  -0.05   0.01    -0.03  -0.01  -0.02
    19   6    -0.25   0.12  -0.05    -0.01   0.09  -0.14    -0.03   0.04  -0.05
    20   1    -0.19  -0.05   0.04    -0.15   0.38  -0.33    -0.06   0.06  -0.08
    21   1    -0.51  -0.03  -0.07     0.23  -0.10  -0.35    -0.02  -0.02  -0.09
    22   1    -0.29   0.42  -0.17    -0.07   0.12  -0.04    -0.06   0.09  -0.03
                     10                     11                     12
                      A                      A                      A
 Frequencies --    225.3759               274.8993               291.3644
 Red. masses --      3.4098                 1.2496                 3.0704
 Frc consts  --      0.1020                 0.0556                 0.1536
 IR Inten    --    129.3824                11.1533                 7.1644
  Atom  AN      X      Y      Z        X      Y      Z        X      Y      Z
     1   1     0.19   0.04  -0.01     0.04  -0.02   0.00    -0.02  -0.03   0.12
     2   6     0.03  -0.04  -0.07    -0.04  -0.02   0.03     0.12   0.07   0.10
     3   1    -0.16  -0.04   0.04    -0.28  -0.15   0.44     0.34   0.07  -0.01
     4   1     0.20   0.03  -0.08     0.25   0.39   0.02    -0.02   0.00   0.11
     5   1     0.01  -0.18  -0.25    -0.09  -0.29  -0.35     0.10   0.26   0.25
     6   6     0.08   0.05   0.03    -0.01   0.01   0.00     0.05  -0.02   0.03
     7   8     0.08   0.01   0.05     0.02  -0.01   0.03     0.02  -0.06   0.17
     8   8     0.19   0.04  -0.10    -0.03  -0.01   0.02    -0.04   0.05  -0.06
     9   1     0.15  -0.01  -0.07    -0.06   0.03   0.01     0.06  -0.08  -0.08
    10   6    -0.06  -0.02  -0.08     0.00  -0.03  -0.03    -0.19  -0.03  -0.17
    11   1    -0.16   0.10  -0.27    -0.11   0.09  -0.20    -0.18   0.02  -0.34
    12   1    -0.12  -0.26  -0.08     0.03  -0.30  -0.09    -0.42  -0.13  -0.07
    13   1     0.03   0.06   0.04     0.09   0.03   0.18    -0.15   0.01  -0.29
    14   8     0.02   0.04   0.02     0.00   0.06  -0.01     0.03  -0.02   0.06
    15   1     0.28   0.10  -0.02    -0.01  -0.03   0.03    -0.09   0.10  -0.08
    16   8     0.06   0.06   0.08    -0.01  -0.03  -0.04    -0.04  -0.04  -0.11
    17   1     0.05   0.41   0.14    -0.01  -0.22  -0.08    -0.18   0.00  -0.08
    18  17    -0.16  -0.06   0.03     0.03   0.02   0.00     0.04   0.01   0.01
    19   6    -0.06  -0.03   0.01    -0.01   0.00   0.00    -0.01   0.04  -0.03
    20   1    -0.02  -0.25   0.07     0.00   0.03   0.01    -0.01   0.04  -0.03
    21   1    -0.23   0.01   0.08     0.00  -0.01  -0.01     0.02   0.07  -0.01
    22   1    -0.09   0.13  -0.01     0.00  -0.01  -0.01     0.00   0.01  -0.01
                     13                     14                     15
                      A                      A                      A
 Frequencies --    322.9021               389.9280               434.6595
 Red. masses --      2.3747                 3.2069                 3.2183
 Frc consts  --      0.1459                 0.2873                 0.3582
 IR Inten    --     48.4654                42.9726               290.5906
  Atom  AN      X      Y      Z        X      Y      Z        X      Y      Z
     1   1     0.12   0.05  -0.08     0.20  -0.02  -0.11     0.44  -0.08  -0.10
     2   6    -0.13  -0.05   0.16     0.07  -0.07   0.07     0.07   0.14   0.02
     3   1    -0.11   0.01   0.01     0.09  -0.06   0.03     0.33   0.04   0.11
     4   1    -0.47  -0.17   0.19    -0.03  -0.11   0.08     0.05   0.31   0.03
     5   1     0.02  -0.12   0.46     0.12  -0.10   0.16     0.01   0.31   0.04
     6   6     0.01   0.06  -0.01     0.07  -0.02   0.05    -0.01   0.02  -0.03
     7   8     0.03   0.06  -0.07     0.16   0.00  -0.09     0.19  -0.08  -0.06
     8   8     0.10  -0.06   0.08    -0.20   0.05  -0.09     0.08  -0.01   0.03
     9   1     0.01  -0.01   0.12    -0.30   0.32  -0.14     0.11  -0.17   0.07
    10   6    -0.04   0.02  -0.12    -0.01   0.00   0.04    -0.03  -0.01   0.15
    11   1     0.07  -0.03  -0.15     0.04  -0.04   0.07    -0.01  -0.05   0.23
    12   1    -0.11   0.07  -0.07     0.02   0.06   0.04     0.15   0.05   0.07
    13   1    -0.12  -0.05  -0.18    -0.04  -0.04   0.01    -0.08  -0.07   0.26
    14   8     0.01   0.09  -0.03     0.00   0.00   0.02    -0.15   0.06   0.00
    15   1     0.17  -0.11   0.13    -0.10  -0.05  -0.02     0.10   0.00   0.05
    16   8     0.01  -0.01  -0.04     0.13   0.04  -0.03    -0.14  -0.04  -0.08
    17   1     0.05  -0.36  -0.11     0.16  -0.62  -0.15    -0.25  -0.07  -0.07
    18  17    -0.01   0.00   0.00    -0.08  -0.02   0.01    -0.03  -0.01   0.00
    19   6     0.00  -0.06   0.00    -0.04   0.07   0.04     0.00  -0.04  -0.02
    20   1    -0.01  -0.07  -0.01     0.00   0.07   0.09    -0.01  -0.05  -0.04
    21   1    -0.04  -0.13  -0.04    -0.01   0.15   0.09    -0.02  -0.06  -0.03
    22   1    -0.02   0.05  -0.01     0.03  -0.11   0.01    -0.03   0.05  -0.01
                     16                     17                     18
                      A                      A                      A
 Frequencies --    451.6941               511.7286               572.3576
 Red. masses --      2.1347                 3.4488                 5.2268
 Frc consts  --      0.2566                 0.5321                 1.0088
 IR Inten    --     51.3407                29.2829                68.7969
  Atom  AN      X      Y      Z        X      Y      Z        X      Y      Z
     1   1    -0.08  -0.09   0.00    -0.08  -0.14   0.01    -0.19   0.01   0.23
     2   6     0.02   0.00   0.11     0.01   0.07   0.00    -0.09   0.05   0.00
     3   1     0.18  -0.11   0.27     0.30  -0.01   0.03    -0.15   0.01   0.11
     4   1    -0.20   0.20   0.15     0.09   0.18   0.00    -0.31   0.19   0.04
     5   1     0.07   0.00   0.24    -0.10   0.32  -0.03     0.02  -0.11   0.14
     6   6    -0.02  -0.09  -0.09    -0.09  -0.08  -0.01    -0.01   0.04  -0.12
     7   8    -0.01  -0.10  -0.01     0.05  -0.13   0.06     0.01  -0.01   0.22
     8   8    -0.04   0.02  -0.01     0.01  -0.03   0.02     0.06  -0.03   0.03
     9   1    -0.03   0.06  -0.07    -0.17   0.23   0.14     0.22   0.02   0.01
    10   6     0.03   0.03  -0.04     0.09   0.03  -0.15    -0.07  -0.04   0.11
    11   1     0.05   0.01  -0.02     0.05   0.04  -0.12    -0.15  -0.07   0.34
    12   1     0.11   0.02  -0.09     0.07   0.02  -0.14     0.15   0.09   0.01
    13   1    -0.01  -0.02   0.06     0.12   0.05  -0.15    -0.01   0.01   0.17
    14   8    -0.07   0.10  -0.09     0.04  -0.04  -0.12    -0.15  -0.16  -0.10
    15   1    -0.03   0.01  -0.02     0.09  -0.14   0.08    -0.12  -0.01  -0.13
    16   8     0.09  -0.06   0.07    -0.10   0.23   0.14     0.24   0.20  -0.19
    17   1     0.22   0.71   0.18     0.11  -0.56  -0.03     0.26  -0.02  -0.23
    18  17     0.00   0.00   0.00    -0.01   0.00   0.01    -0.01   0.00   0.00
    19   6    -0.01   0.03   0.00     0.00  -0.04   0.02     0.01  -0.04   0.00
    20   1    -0.01   0.05   0.00     0.00  -0.07   0.03    -0.01  -0.07  -0.03
    21   1     0.01   0.03   0.00    -0.02  -0.03   0.03     0.01  -0.06  -0.01
    22   1     0.00   0.00  -0.01     0.00  -0.04   0.02    -0.02   0.01   0.02
                     19                     20                     21
                      A                      A                      A
 Frequencies --    613.5721               755.3842               764.6137
 Red. masses --      4.7564                 2.1050                 2.5504
 Frc consts  --      1.0550                 0.7077                 0.8785
 IR Inten    --    214.3925               194.6669               114.4715
  Atom  AN      X      Y      Z        X      Y      Z        X      Y      Z
     1   1    -0.49   0.01   0.02    -0.03  -0.11  -0.08     0.17   0.10   0.03
     2   6     0.20  -0.19   0.04    -0.08   0.05  -0.01     0.15  -0.10   0.06
     3   1     0.28  -0.25   0.12     0.04   0.04  -0.06     0.00  -0.03  -0.02
     4   1     0.22  -0.09   0.05     0.10   0.00  -0.03     0.24  -0.27   0.04
     5   1     0.17  -0.13   0.02    -0.21   0.25  -0.12     0.15  -0.19  -0.02
     6   6     0.07  -0.13  -0.05    -0.10  -0.08   0.08     0.02   0.05   0.13
     7   8    -0.17  -0.04  -0.11     0.05  -0.02  -0.05    -0.01   0.10   0.05
     8   8     0.05  -0.03   0.04    -0.01  -0.03   0.05    -0.02  -0.01   0.04
     9   1     0.21  -0.05   0.09    -0.32   0.26  -0.03    -0.32   0.18  -0.01
    10   6    -0.07   0.00   0.08     0.00   0.00   0.00     0.04   0.01  -0.07
    11   1     0.02   0.00  -0.04     0.02   0.02  -0.08    -0.01  -0.02   0.10
    12   1    -0.09  -0.11   0.07    -0.14  -0.06   0.06     0.25   0.10  -0.16
    13   1    -0.14  -0.07   0.18     0.01   0.01  -0.07     0.05   0.01   0.04
    14   8    -0.04   0.17   0.10     0.08  -0.01   0.07    -0.10  -0.06  -0.15
    15   1     0.04   0.03   0.05     0.28  -0.24   0.28     0.27  -0.28   0.26
    16   8    -0.03   0.25  -0.10     0.05   0.05  -0.14    -0.07   0.00  -0.06
    17   1    -0.20  -0.08  -0.12    -0.01   0.56  -0.04    -0.23   0.35   0.03
    18  17     0.00   0.00   0.00    -0.01   0.00   0.00     0.01   0.00   0.00
    19   6     0.03  -0.08  -0.02    -0.01   0.00   0.02    -0.01   0.00   0.02
    20   1     0.02  -0.05  -0.02    -0.01   0.03   0.02     0.00   0.02   0.02
    21   1     0.03  -0.07  -0.01    -0.01  -0.09  -0.03    -0.01  -0.04  -0.01
    22   1     0.00  -0.02  -0.01     0.01  -0.01  -0.02     0.00   0.01   0.00
                     22                     23                     24
                      A                      A                      A
 Frequencies --    902.2820               981.9347              1041.7067
 Red. masses --      1.6287                 2.2332                 1.5818
 Frc consts  --      0.7812                 1.2687                 1.0113
 IR Inten    --     53.5699               183.7432               204.7213
  Atom  AN      X      Y      Z        X      Y      Z        X      Y      Z
     1   1     0.03  -0.04  -0.11    -0.07   0.09  -0.04     0.03  -0.10   0.05
     2   6    -0.04  -0.01   0.08     0.00  -0.15  -0.03     0.06   0.05   0.00
     3   1     0.06   0.06  -0.14     0.61  -0.38   0.17    -0.25   0.11   0.01
     4   1     0.38  -0.22   0.01     0.07   0.21  -0.01    -0.11  -0.10   0.01
     5   1    -0.25   0.24  -0.19    -0.11   0.24   0.07     0.19  -0.24   0.04
     6   6    -0.07  -0.04   0.15    -0.12  -0.02  -0.08    -0.04   0.00   0.01
     7   8     0.00   0.00  -0.03     0.08   0.18   0.06     0.01  -0.02  -0.01
     8   8     0.02   0.02   0.01     0.02   0.00   0.01     0.00   0.11   0.05
     9   1     0.36  -0.13  -0.09     0.00   0.13  -0.02    -0.02   0.49   0.01
    10   6     0.02   0.01  -0.03     0.01   0.00   0.00     0.00   0.00   0.01
    11   1     0.03   0.01  -0.04    -0.01   0.01  -0.01     0.01   0.01  -0.03
    12   1     0.09   0.02  -0.07    -0.09  -0.02   0.05    -0.05  -0.02   0.03
    13   1     0.02   0.01  -0.02     0.01   0.01  -0.04    -0.01   0.00  -0.03
    14   8    -0.05   0.03  -0.05     0.02  -0.01   0.02     0.03   0.00   0.01
    15   1    -0.40   0.17  -0.40    -0.22  -0.01  -0.21    -0.38  -0.26  -0.32
    16   8     0.08   0.00  -0.01    -0.04  -0.04   0.00    -0.04  -0.01  -0.01
    17   1    -0.16  -0.07   0.02     0.30   0.06  -0.05     0.19   0.10  -0.03
    18  17     0.00   0.00   0.00    -0.01   0.00   0.00     0.00   0.00   0.00
    19   6     0.01  -0.02  -0.01     0.01  -0.01   0.00     0.03  -0.13  -0.05
    20   1    -0.02  -0.03  -0.04    -0.02  -0.09  -0.03    -0.03  -0.34  -0.08
    21   1     0.00  -0.02  -0.01    -0.02  -0.03  -0.01    -0.06  -0.03   0.05
    22   1    -0.01   0.02   0.01     0.00   0.00   0.02    -0.04  -0.05   0.06
                     25                     26                     27
                      A                      A                      A
 Frequencies --   1055.1902              1061.1423              1082.3026
 Red. masses --      2.6032                 1.6403                 1.3303
 Frc consts  --      1.7077                 1.0882                 0.9181
 IR Inten    --     99.7817               336.6168               171.3438
  Atom  AN      X      Y      Z        X      Y      Z        X      Y      Z
     1   1    -0.05   0.09  -0.05     0.28  -0.01   0.07    -0.02  -0.33   0.88
     2   6    -0.04  -0.02  -0.02    -0.01  -0.02   0.10     0.00   0.01   0.05
     3   1     0.11  -0.07   0.03     0.07   0.08  -0.17    -0.08   0.09  -0.09
     4   1    -0.04   0.12  -0.01     0.40  -0.27   0.03     0.14  -0.15   0.01
     5   1    -0.08   0.12   0.02    -0.15   0.08  -0.17    -0.05   0.01  -0.09
     6   6     0.03  -0.02   0.00    -0.01   0.06  -0.06     0.00  -0.03  -0.06
     7   8     0.00   0.02   0.01    -0.04  -0.03   0.01     0.03   0.04  -0.03
     8   8    -0.05   0.21   0.03    -0.01   0.03  -0.01     0.00  -0.01  -0.01
     9   1    -0.10  -0.16  -0.01    -0.06  -0.02   0.10    -0.01  -0.05  -0.01
    10   6     0.05   0.02  -0.05    -0.09  -0.04   0.08     0.05   0.02  -0.06
    11   1     0.03   0.01   0.00    -0.11  -0.03   0.07     0.03   0.00   0.04
    12   1     0.04   0.02  -0.04    -0.02   0.01   0.05     0.01  -0.05  -0.05
    13   1     0.05   0.02  -0.02    -0.05   0.00   0.03     0.01  -0.02   0.03
    14   8    -0.05  -0.03   0.04     0.07   0.03  -0.08    -0.05  -0.01   0.06
    15   1     0.32   0.51   0.39     0.15   0.16   0.16     0.00   0.04   0.00
    16   8     0.05  -0.02   0.01    -0.02   0.00   0.00    -0.01   0.00   0.00
    17   1    -0.15  -0.07   0.04     0.62   0.03  -0.11     0.07  -0.01  -0.02
    18  17     0.00   0.00   0.00     0.01   0.00   0.00    -0.01   0.00  -0.01
    19   6    -0.01  -0.24  -0.06    -0.01  -0.04  -0.01     0.00   0.01   0.01
    20   1     0.08   0.20   0.00     0.04   0.06   0.03    -0.01   0.03   0.00
    21   1     0.12  -0.23  -0.09     0.04   0.01   0.00     0.01  -0.02  -0.02
    22   1     0.05  -0.26  -0.18     0.03  -0.11  -0.04     0.00   0.02  -0.01
                     28                     29                     30
                      A                      A                      A
 Frequencies --   1115.5686              1129.9399              1165.8395
 Red. masses --      1.6092                 1.4813                 1.7990
 Frc consts  --      1.1799                 1.1143                 1.4406
 IR Inten    --    135.6493               239.6427              1061.2460
  Atom  AN      X      Y      Z        X      Y      Z        X      Y      Z
     1   1     0.42  -0.24   0.56     0.02   0.15   0.15     0.52  -0.14  -0.11
     2   6    -0.01  -0.03  -0.08    -0.09  -0.03   0.00     0.03  -0.02  -0.03
     3   1     0.21  -0.18   0.17     0.22  -0.08  -0.05     0.15  -0.10   0.09
     4   1    -0.25   0.25  -0.02     0.09   0.15  -0.01    -0.03   0.01  -0.01
     5   1     0.06   0.02   0.14    -0.23   0.28  -0.03     0.11  -0.13   0.08
     6   6    -0.02   0.02   0.10     0.14   0.02   0.00    -0.10   0.09   0.04
     7   8    -0.05   0.00  -0.03    -0.03  -0.02  -0.01    -0.07  -0.05  -0.01
     8   8     0.00   0.01   0.01    -0.03   0.04   0.02     0.01  -0.02   0.00
     9   1    -0.01   0.02  -0.06     0.04   0.10   0.18     0.23  -0.03   0.16
    10   6    -0.06  -0.05   0.06    -0.01   0.01  -0.02     0.10   0.02  -0.05
    11   1    -0.15   0.00   0.05     0.01  -0.03   0.07     0.05   0.07  -0.14
    12   1    -0.04   0.04   0.05     0.15   0.03  -0.10    -0.11   0.00   0.06
    13   1     0.07   0.06  -0.11    -0.05  -0.03   0.12     0.08   0.01  -0.16
    14   8     0.08   0.03  -0.09    -0.01  -0.01   0.01    -0.07  -0.02   0.09
    15   1    -0.02   0.03  -0.04     0.01  -0.41   0.09     0.07   0.03   0.06
    16   8     0.03   0.01   0.01     0.01  -0.01   0.00     0.02   0.01  -0.03
    17   1    -0.27  -0.02   0.06    -0.07   0.01   0.02     0.26   0.00  -0.07
    18  17     0.00   0.00  -0.01     0.00   0.00   0.00     0.01   0.00   0.00
    19   6     0.00  -0.02   0.01     0.03   0.00  -0.07    -0.05   0.03  -0.05
    20   1    -0.01   0.06  -0.01     0.03  -0.42  -0.02     0.11  -0.01   0.13
    21   1     0.01  -0.08  -0.04    -0.11   0.36   0.21     0.07   0.40   0.16
    22   1     0.01   0.00  -0.03    -0.08   0.00   0.18     0.03  -0.32   0.02
                     31                     32                     33
                      A                      A                      A
 Frequencies --   1185.6128              1189.0167              1226.8772
 Red. masses --      1.4105                 1.3100                 1.4329
 Frc consts  --      1.1682                 1.0912                 1.2707
 IR Inten    --    202.8246                19.5142               254.5173
  Atom  AN      X      Y      Z        X      Y      Z        X      Y      Z
     1   1    -0.21   0.05   0.08     0.11  -0.05   0.05     0.09   0.07  -0.04
     2   6     0.00   0.02   0.00     0.00   0.00  -0.02    -0.02  -0.01  -0.03
     3   1    -0.14   0.06  -0.02     0.04  -0.03   0.03     0.06  -0.05   0.03
     4   1    -0.06  -0.01   0.00    -0.04   0.03  -0.01    -0.04   0.11  -0.01
     5   1    -0.01   0.02  -0.03     0.02  -0.01   0.02    -0.02   0.06   0.06
     6   6     0.02  -0.09   0.00    -0.02   0.01   0.02     0.06   0.02   0.05
     7   8     0.04   0.05   0.01    -0.01   0.00   0.00    -0.03  -0.03  -0.02
     8   8     0.04  -0.02   0.02     0.01   0.00   0.00     0.03  -0.01  -0.02
     9   1     0.19   0.26   0.08     0.03   0.00  -0.02     0.07   0.24  -0.06
    10   6    -0.04  -0.02   0.02    -0.04   0.13   0.02    -0.04  -0.01  -0.09
    11   1    -0.06  -0.02   0.07     0.48  -0.05  -0.28    -0.08  -0.11   0.26
    12   1     0.03   0.02  -0.01     0.10  -0.30  -0.11     0.44   0.21  -0.30
    13   1     0.01   0.02   0.02    -0.51  -0.32   0.37     0.06   0.05   0.23
    14   8     0.03   0.02  -0.04     0.04  -0.06  -0.02     0.01   0.00   0.08
    15   1     0.02   0.07  -0.02    -0.01   0.03  -0.02    -0.11  -0.03  -0.19
    16   8    -0.02  -0.01   0.01     0.00   0.00   0.00    -0.04   0.00  -0.02
    17   1    -0.14   0.02   0.04     0.00   0.00   0.00     0.31   0.05  -0.07
    18  17     0.00   0.00   0.00     0.00   0.00   0.00     0.00   0.00   0.00
    19   6    -0.10   0.01  -0.05    -0.02   0.00   0.01    -0.04  -0.01   0.06
    20   1     0.17   0.18   0.24     0.01   0.09   0.03    -0.02   0.33   0.05
    21   1     0.21   0.39   0.13     0.04  -0.02  -0.02     0.11  -0.25  -0.14
    22   1     0.12  -0.62  -0.10     0.02  -0.06  -0.04     0.07  -0.04  -0.15
                     34                     35                     36
                      A                      A                      A
 Frequencies --   1260.0915              1317.9593              1366.4836
 Red. masses --      1.5478                 1.5992                 1.2567
 Frc consts  --      1.4480                 1.6366                 1.3826
 IR Inten    --    161.7393               248.6821               399.9014
  Atom  AN      X      Y      Z        X      Y      Z        X      Y      Z
     1   1     0.00   0.20   0.10     0.04   0.09   0.07     0.35  -0.08  -0.12
     2   6    -0.04  -0.02   0.01     0.01   0.02  -0.04    -0.02   0.03   0.03
     3   1     0.07   0.00  -0.07    -0.24   0.03   0.08     0.16   0.04  -0.11
     4   1     0.06   0.10   0.00    -0.20   0.11   0.00     0.03  -0.08   0.01
     5   1    -0.11   0.13  -0.01     0.01   0.13   0.06    -0.02  -0.16  -0.14
     6   6     0.13   0.03   0.01     0.05  -0.12   0.12     0.00  -0.05  -0.09
     7   8    -0.02  -0.03  -0.01     0.01   0.05   0.00    -0.03   0.03   0.03
     8   8     0.02   0.00  -0.02    -0.05  -0.04  -0.01    -0.04  -0.02  -0.03
     9   1     0.02   0.31  -0.03     0.38   0.09   0.11     0.41   0.56   0.14
    10   6     0.08   0.01   0.07     0.01   0.01   0.01     0.00   0.00  -0.01
    11   1     0.08   0.14  -0.30     0.05   0.02  -0.10    -0.04   0.00   0.04
    12   1    -0.39  -0.18   0.28     0.01  -0.05   0.00     0.00   0.01   0.00
    13   1     0.00  -0.03  -0.31     0.00   0.00  -0.09    -0.03  -0.03   0.04
    14   8    -0.07  -0.01  -0.03    -0.03   0.00  -0.03     0.00   0.00   0.02
    15   1    -0.09  -0.20  -0.17     0.16   0.41   0.16     0.14   0.10   0.12
    16   8    -0.03   0.00  -0.01    -0.05   0.00  -0.02     0.02  -0.01   0.01
    17   1     0.08   0.04  -0.02     0.53   0.04  -0.11    -0.35  -0.03   0.07
    18  17     0.00   0.00   0.00     0.00   0.00   0.00     0.00   0.00   0.00
    19   6    -0.04  -0.01   0.06     0.06   0.01  -0.01     0.03   0.00   0.03
    20   1    -0.02   0.30   0.05    -0.03  -0.17  -0.09    -0.08  -0.05  -0.08
    21   1     0.11  -0.22  -0.12    -0.11   0.02   0.04    -0.05  -0.17  -0.06
    22   1     0.06  -0.05  -0.14    -0.06   0.20   0.10     0.03   0.07  -0.02
                     37                     38                     39
                      A                      A                      A
 Frequencies --   1422.3865              1443.6712              1457.1567
 Red. masses --      1.2391                 1.1510                 1.3466
 Frc consts  --      1.4770                 1.4134                 1.6846
 IR Inten    --     56.9199               311.9372               176.6725
  Atom  AN      X      Y      Z        X      Y      Z        X      Y      Z
     1   1     0.21  -0.28  -0.15     0.02   0.09   0.03    -0.06   0.64   0.25
     2   6     0.09  -0.09   0.04    -0.01  -0.01   0.01     0.07  -0.04   0.00
     3   1    -0.37   0.19  -0.33     0.07   0.03  -0.12    -0.24  -0.08   0.25
     4   1    -0.32   0.40   0.11     0.02   0.11   0.01    -0.21  -0.19   0.02
     5   1    -0.22   0.38  -0.22     0.00  -0.06  -0.01    -0.15   0.36  -0.12
     6   6     0.00  -0.01  -0.03     0.02   0.02   0.00    -0.09   0.09  -0.02
     7   8    -0.02   0.02   0.02    -0.01  -0.02   0.00     0.02  -0.06  -0.02
     8   8     0.01   0.01   0.00     0.01  -0.02   0.04    -0.01  -0.01  -0.01
     9   1    -0.06  -0.06   0.00    -0.22   0.06  -0.16     0.14   0.19   0.07
    10   6     0.00   0.00   0.00    -0.01   0.00   0.01     0.00   0.00  -0.02
    11   1    -0.04   0.03  -0.02     0.12  -0.03  -0.09    -0.01  -0.02   0.07
    12   1     0.04   0.02  -0.01     0.11  -0.03  -0.05    -0.06  -0.01   0.02
    13   1    -0.03  -0.03  -0.01     0.07   0.08  -0.10    -0.01  -0.01   0.08
    14   8     0.00   0.00   0.01    -0.02   0.00   0.01     0.02  -0.01   0.01
    15   1    -0.03  -0.10  -0.02    -0.04   0.34  -0.03     0.06   0.10   0.04
    16   8     0.01   0.01   0.00    -0.01   0.01   0.00     0.02  -0.01   0.00
    17   1    -0.02  -0.01   0.00    -0.02   0.02   0.00    -0.14  -0.01   0.03
    18  17     0.00   0.00   0.00     0.00   0.00   0.00     0.00   0.00   0.00
    19   6    -0.01   0.00   0.01     0.01   0.09  -0.01     0.01   0.00   0.00
    20   1    -0.01   0.02   0.00    -0.07  -0.49  -0.05    -0.02  -0.03  -0.03
    21   1     0.00  -0.01  -0.01    -0.14  -0.30  -0.22    -0.03  -0.05  -0.02
    22   1     0.02  -0.03  -0.02     0.17  -0.50   0.04     0.01  -0.01   0.01
                     40                     41                     42
                      A                      A                      A
 Frequencies --   1472.1455              1481.9439              1494.3944
 Red. masses --      1.2374                 1.0714                 1.1302
 Frc consts  --      1.5800                 1.3863                 1.4871
 IR Inten    --    249.5649                11.1909                84.4709
  Atom  AN      X      Y      Z        X      Y      Z        X      Y      Z
     1   1    -0.29  -0.03   0.08    -0.03  -0.33  -0.11     0.10   0.34   0.08
     2   6     0.00  -0.06   0.01    -0.01  -0.02  -0.04    -0.01   0.00   0.01
     3   1    -0.05   0.14  -0.39    -0.29  -0.06   0.25     0.10   0.11  -0.28
     4   1     0.30   0.47   0.02     0.30  -0.10  -0.06    -0.01   0.24   0.03
     5   1     0.15  -0.09   0.31     0.04   0.33   0.39     0.07  -0.24  -0.03
     6   6    -0.05   0.09   0.02     0.03   0.02  -0.01    -0.02  -0.05   0.03
     7   8     0.03  -0.03  -0.02    -0.01   0.01   0.01     0.00   0.00   0.00
     8   8    -0.02  -0.02   0.00     0.00   0.00   0.00     0.01   0.01   0.00
     9   1     0.15   0.23   0.07     0.06   0.06   0.01    -0.02  -0.13  -0.06
    10   6    -0.02   0.00  -0.01     0.03  -0.01  -0.03     0.06   0.01  -0.05
    11   1     0.19  -0.12   0.03    -0.17   0.09   0.01    -0.34   0.10   0.28
    12   1    -0.08  -0.02   0.02    -0.23   0.22   0.14    -0.32   0.04   0.14
    13   1     0.15   0.14   0.07    -0.11  -0.14   0.31    -0.24  -0.27   0.31
    14   8     0.01  -0.01  -0.01     0.00   0.00  -0.01     0.02   0.01  -0.01
    15   1     0.08   0.18   0.05     0.02   0.03   0.02    -0.03  -0.03  -0.03
    16   8     0.00  -0.02   0.00     0.00   0.00   0.00     0.00   0.01   0.00
    17   1    -0.07   0.03   0.02    -0.04   0.00   0.01     0.08   0.00  -0.02
    18  17     0.00   0.00   0.00     0.00   0.00   0.00     0.00   0.00   0.00
    19   6     0.01  -0.02  -0.01     0.00   0.02   0.01     0.01   0.01   0.00
    20   1     0.05   0.04   0.03    -0.05  -0.14  -0.03    -0.05   0.05  -0.06
    21   1     0.05   0.08   0.05    -0.01  -0.11  -0.07    -0.15  -0.03   0.01
    22   1    -0.06   0.17   0.03     0.07  -0.14  -0.05     0.03  -0.13   0.04
                     43                     44                     45
                      A                      A                      A
 Frequencies --   1505.4057              1512.6343              1516.6620
 Red. masses --      1.0453                 1.0529                 1.0584
 Frc consts  --      1.3957                 1.4194                 1.4345
 IR Inten    --      3.4343                72.8700                43.6313
  Atom  AN      X      Y      Z        X      Y      Z        X      Y      Z
     1   1     0.00   0.00   0.01     0.06  -0.07  -0.09     0.00   0.09   0.04
     2   6     0.00   0.00   0.00     0.00   0.00  -0.01     0.00   0.01   0.01
     3   1    -0.05   0.00   0.02    -0.07  -0.01   0.06     0.06   0.02  -0.05
     4   1     0.07   0.00  -0.01     0.05  -0.02  -0.01    -0.07   0.02   0.01
     5   1     0.02   0.03   0.08     0.01   0.08   0.09     0.00  -0.08  -0.08
     6   6     0.00   0.00  -0.01     0.01   0.00   0.00    -0.01  -0.02   0.01
     7   8     0.00   0.00   0.00    -0.01   0.00   0.00     0.00   0.00   0.00
     8   8     0.01   0.00   0.00     0.00   0.01   0.00    -0.01   0.01   0.00
     9   1    -0.01  -0.02   0.03     0.03  -0.04   0.01     0.03  -0.10   0.04
    10   6    -0.02   0.00   0.01     0.00   0.05  -0.03    -0.01  -0.01  -0.01
    11   1     0.11  -0.05  -0.06     0.06  -0.22   0.62     0.11  -0.03  -0.13
    12   1     0.05   0.00  -0.02    -0.15  -0.61  -0.04    -0.09   0.19   0.07
    13   1     0.09   0.09  -0.04     0.01   0.05  -0.21     0.11   0.07   0.19
    14   8     0.00   0.00   0.00     0.00   0.01  -0.01     0.00   0.00  -0.01
    15   1     0.00  -0.05   0.00     0.00  -0.05   0.01     0.01  -0.06   0.05
    16   8     0.00   0.00   0.00     0.00   0.00   0.00     0.00   0.00   0.00
    17   1    -0.01   0.00   0.00     0.02  -0.01   0.00     0.04  -0.01  -0.01
    18  17     0.00   0.00   0.00     0.00   0.00   0.00     0.00   0.00   0.00
    19   6     0.04  -0.02   0.02    -0.01   0.01   0.02    -0.03   0.00   0.05
    20   1    -0.38   0.33  -0.46    -0.08  -0.12  -0.05    -0.24  -0.35  -0.17
    21   1    -0.52   0.16   0.29     0.09   0.00  -0.02     0.38   0.16   0.03
    22   1     0.17  -0.23  -0.14     0.08  -0.02  -0.17     0.23   0.13  -0.60
                     46                     47                     48
                      A                      A                      A
 Frequencies --   1520.6708              1537.4799              1592.1481
 Red. masses --      1.0578                 1.2521                 1.1851
 Frc consts  --      1.4412                 1.7438                 1.7699
 IR Inten    --     43.0471               792.9254              1071.5013
  Atom  AN      X      Y      Z        X      Y      Z        X      Y      Z
     1   1     0.09  -0.06  -0.04     0.42   0.43   0.09    -0.26  -0.11   0.03
     2   6     0.00   0.01   0.01    -0.01   0.01  -0.01     0.01   0.00   0.00
     3   1     0.06  -0.02   0.05    -0.28   0.09  -0.04     0.06   0.00  -0.03
     4   1    -0.14  -0.08   0.01     0.33   0.09  -0.04    -0.07   0.03   0.01
     5   1    -0.07   0.00  -0.16     0.13   0.07   0.38     0.02  -0.09  -0.06
     6   6     0.03  -0.02   0.01    -0.04  -0.12  -0.05    -0.04   0.02   0.03
     7   8    -0.01   0.01   0.00    -0.02   0.02   0.01     0.02   0.00  -0.01
     8   8     0.00   0.00   0.00     0.00   0.02  -0.01    -0.02   0.06  -0.04
     9   1    -0.02  -0.03  -0.03    -0.01  -0.18   0.00     0.49  -0.23   0.24
    10   6    -0.02  -0.01  -0.04    -0.02   0.00   0.01    -0.01  -0.01   0.01
    11   1     0.41  -0.27   0.08     0.17  -0.06  -0.13     0.01   0.00  -0.05
    12   1    -0.40   0.08   0.18     0.10   0.02  -0.05     0.07   0.00  -0.02
    13   1     0.35   0.27   0.42     0.12   0.13  -0.07     0.02   0.03  -0.06
    14   8    -0.01   0.00  -0.02     0.00   0.01   0.02     0.01   0.00  -0.01
    15   1    -0.02  -0.03  -0.03    -0.04  -0.26   0.00     0.11  -0.47   0.18
    16   8     0.00   0.00   0.00     0.01   0.01   0.01     0.00  -0.01   0.00
    17   1     0.04   0.00  -0.01    -0.05  -0.04   0.01     0.09  -0.02  -0.01
    18  17     0.00   0.00   0.00     0.00   0.00   0.00     0.00   0.00   0.00
    19   6     0.00   0.00  -0.02    -0.02   0.01   0.00    -0.01   0.04   0.03
    20   1     0.09   0.09   0.08     0.07   0.00   0.10    -0.02  -0.05   0.04
    21   1    -0.10  -0.08  -0.04     0.06  -0.09  -0.08    -0.09  -0.33  -0.19
    22   1    -0.07  -0.06   0.20    -0.04   0.00   0.06     0.07  -0.28   0.07
                     49                     50                     51
                      A                      A                      A
 Frequencies --   1948.9642              2994.4630              3068.3445
 Red. masses --      1.0693                 1.0636                 1.0315
 Frc consts  --      2.3931                 5.6190                 5.7215
 IR Inten    --    224.1670              1129.2476                21.5620
  Atom  AN      X      Y      Z        X      Y      Z        X      Y      Z
     1   1     0.00   0.00   0.00     0.00   0.00   0.00     0.00   0.00   0.00
     2   6     0.00   0.00   0.00     0.00   0.00   0.00     0.01  -0.01   0.00
     3   1     0.00   0.00   0.00     0.00   0.00   0.00     0.03   0.13   0.06
     4   1    -0.01   0.01   0.00     0.00   0.00   0.01    -0.01   0.01  -0.15
     5   1     0.01  -0.02   0.01     0.00   0.00   0.00    -0.10  -0.04   0.04
     6   6     0.00  -0.02   0.02     0.00   0.00   0.01     0.00   0.00   0.00
     7   8     0.00   0.00   0.00     0.00   0.00   0.00     0.00   0.00   0.00
     8   8     0.02   0.00  -0.05     0.04  -0.01  -0.04     0.00   0.00   0.00
     9   1    -0.33  -0.02   0.89    -0.01   0.08  -0.10     0.00  -0.01   0.01
    10   6     0.00   0.00   0.00     0.00   0.00   0.00    -0.04  -0.01   0.02
    11   1     0.00   0.00   0.01     0.01   0.02   0.01     0.28   0.52   0.18
    12   1    -0.01   0.00   0.00    -0.02   0.00  -0.03    -0.19   0.06  -0.38
    13   1    -0.01  -0.01   0.01     0.04  -0.05   0.00     0.39  -0.46  -0.04
    14   8    -0.01   0.00   0.00     0.00   0.00   0.00     0.00   0.00   0.00
    15   1    -0.18   0.17  -0.11    -0.66   0.02   0.72     0.04  -0.01  -0.04
    16   8     0.02  -0.01  -0.01     0.00   0.00   0.00     0.00   0.00   0.00
    17   1    -0.05   0.05   0.02     0.00   0.00   0.00     0.00   0.00   0.00
    18  17     0.00   0.00   0.00     0.00   0.00   0.00     0.00   0.00   0.00
    19   6     0.00   0.00   0.01     0.00   0.00   0.00     0.00   0.00   0.00
[...]
 00018844,-0.00001692,0.00003662,-0.00001221,0.01548464,-0.05619954,0.0
 2675386,-0.01023865,0.00810430,-0.02337183,-0.01623652,0.05200403,0.00
 041883,0.00020770,-0.00001639,0.00005383,-0.00017678,0.00012475,0.0000
 3376,0.00003787,-0.00004683,-0.00010652,0.00004616,-0.00000258,-0.0000
 2380,-0.00003079,-0.00002087,0.00370830,0.00156433,0.00325116,-0.00049
 398,-0.00073373,-0.00015866,0.00063029,-0.00051120,0.00012747,-0.00055
 109,0.00059905,-0.00039697,-0.11182052,0.02957541,-0.25854794,-0.00419
 881,0.00174348,-0.00560915,0.11541979,-0.03618276,0.28865616,-0.000324
 47,-0.00017109,0.00027968,-0.00011252,0.00014950,-0.00003893,-0.000156
 70,-0.00019725,0.00030844,0.00036054,-0.00021610,-0.00010009,0.0003122
 1,0.00030170,-0.00093444,-0.00171202,0.00022475,-0.00392431,0.00077996
 ,0.00066657,0.00050567,-0.00147535,0.00097505,0.00102410,0.00006960,0.
 00023358,-0.00046813,-0.15646834,0.12897563,0.00697609,0.01169710,-0.0
 1044883,-0.00126500,-0.00745766,0.01125540,-0.00004661,0.17889847,0.00
 075576,-0.00002718,0.00017909,0.00058518,0.00047932,0.00063919,0.00006
 800,-0.00024479,-0.00008888,-0.00053496,-0.00006725,0.00008469,-0.0002
 5374,-0.00019461,0.00014051,0.00050008,-0.00001164,0.00019088,-0.00025
 810,0.00014900,-0.00032725,-0.00051201,0.00038848,0.00019594,0.0000849
 0,-0.00010526,0.00001589,0.13535299,-0.21256722,-0.01145768,0.01850032
 ,-0.01792109,0.00097948,0.00062733,-0.00199072,-0.00051511,-0.14382855
 ,0.21830686,0.00068737,0.00002833,-0.00010434,-0.00037817,0.00017237,-
 0.00064023,0.00012326,0.00032021,-0.00009779,-0.00004146,-0.00002008,0
 .00026067,-0.00038835,0.00020647,-0.00146934,0.00329224,-0.00234604,0.
 00386592,-0.00108235,-0.00029801,-0.00086896,0.00127928,-0.00081533,-0
 .00092487,0.00000066,-0.00028449,0.00047596,0.00049804,-0.00735726,-0.
 05040696,0.00641989,-0.00878436,0.00120511,-0.01804359,0.02230184,0.00
 368945,-0.01613502,0.00920342,0.05452794,-0.00085910,-0.00027468,0.001
 21157,-0.00175154,0.00289126,-0.03469203,0.00036466,-0.00014827,0.0003
 2550,-0.00504473,0.00429544,-0.00108343,0.00138855,-0.00138323,0.00137
 856,-0.11846107,0.00943534,-0.01780785,0.01017259,-0.01640680,-0.01868
 228,-0.02819328,0.02047723,0.02104328,-0.00306789,0.00538751,-0.005140
 90,-0.17545413,-0.03165597,0.04766046,-0.01854800,-0.00678538,0.021750
 67,0.00902022,0.00177364,-0.00280949,-0.02666683,-0.01059267,0.0259423
 6,0.34472643,0.00424039,0.00077738,-0.00156333,0.00597871,0.00270935,0
 .02456327,-0.00145460,0.00229288,0.00017619,0.00483862,-0.00225847,0.0
 0156022,-0.00006751,-0.00017447,0.00005969,0.00404230,-0.07611093,0.00
 489973,-0.01864231,-0.00626969,-0.05052302,0.01969893,-0.00284263,-0.0
 1522428,0.00517072,-0.00870308,0.00489583,-0.03493781,-0.07219036,0.02
 142153,-0.02304398,-0.00114519,0.02524847,-0.00560669,-0.00078060,0.00
 391649,0.01415605,0.01378856,-0.01504484,0.05311936,0.14469260,0.01568
 309,0.00468310,-0.00581574,-0.00768402,0.00259262,-0.02652049,0.000809
 48,0.00016755,-0.00003998,-0.00422785,0.00319454,0.00054205,0.00003883
 ,-0.00008384,-0.00068181,-0.04685926,0.01578217,-0.13234351,-0.0251864
 4,-0.04750520,-0.04627603,0.00775798,-0.00795739,0.00687194,-0.0056696
 4,0.00562888,-0.00486020,0.07471806,0.02896668,-0.13332445,0.00137118,
 0.00420555,-0.00051288,0.03651094,0.01124153,-0.02851432,0.01339139,0.
 00055494,-0.00915680,-0.08244785,-0.02980780,0.44900508,-0.00199361,-0
 .00091655,-0.00008505,-0.00073235,-0.00011321,0.00377982,-0.00005321,0
 .00027127,-0.00023542,0.00092052,-0.00060265,0.00059791,-0.00044731,0.
 00015757,-0.00021468,0.00007778,0.00341974,-0.02653326,0.00055991,0.00
 335219,0.00588093,-0.19106959,0.02634667,0.14102338,0.01724990,-0.0172
 1076,0.00773864,-0.00619337,-0.00304453,0.00848629,0.00016032,0.000276
 31,-0.00105073,0.00022837,0.00033339,-0.00057469,0.00207925,0.00015307
 ,-0.00160880,0.01659052,-0.01852547,0.00607692,0.16648645,-0.00017423,
 0.00018318,0.00008912,0.00026021,-0.00014107,-0.00259346,0.00012581,-0
 .00029232,0.00010766,-0.00054403,0.00045629,-0.00035045,0.00028010,-0.
 00001991,0.00016724,0.00231525,0.00383091,0.01702609,0.00110189,-0.004
 97629,-0.00207520,0.00585472,-0.06192272,0.00655962,-0.01804685,0.0143
 1903,0.00850872,0.00090912,0.00466241,-0.00583391,-0.00095819,-0.00020
 619,0.00070045,0.00016522,0.00012116,0.00047281,-0.00182513,-0.0005401
 9,0.00151964,-0.01366540,-0.00131103,-0.00207979,-0.00496884,0.0630948
 9,-0.00205993,-0.00083342,0.00081282,0.00051463,-0.00051642,-0.0029325
 7,0.00013817,-0.00029021,0.00014554,-0.00068476,0.00047138,-0.00036790
 ,0.00022275,-0.00008713,0.00010187,-0.01096698,0.00969514,0.01082157,0
 .00417971,-0.00243240,-0.00189268,0.12995331,-0.01847635,-0.15069044,0
 .01241095,0.01296344,-0.02941002,0.00361158,-0.00072664,-0.00180844,-0
 .00002537,0.00007387,0.00048519,0.00034593,-0.00030273,-0.00057520,-0.
 00031554,0.00021775,-0.00003357,-0.00734585,0.00601270,-0.01634506,-0.
 13779170,0.00334591,0.19325688,0.01765849,0.00187907,-0.00075118,-0.04
 669506,-0.01462948,0.02211638,0.00140812,-0.00043712,0.00035988,0.0025
 8430,-0.00169116,0.00078039,-0.00433987,0.00878862,-0.00237712,-0.1010
 5836,0.02249164,-0.02662587,-0.03533415,-0.05410606,0.00137138,-0.0114
 4897,0.04210149,-0.03689999,-0.00698194,-0.01964259,0.03382221,0.00232
 815,0.00042897,-0.00069125,-0.00017594,0.00009468,-0.00065575,-0.00017
 596,-0.00008762,0.00048494,0.00022003,-0.00015321,-0.00061697,0.005377
 23,-0.00481862,0.01441692,-0.01040591,0.00572736,0.00435659,0.26161661
 ,0.01735081,0.00109959,-0.00168184,0.01823259,0.00996169,-0.00810509,-
 0.00128055,0.00203733,0.00051743,-0.00103172,0.00016866,-0.00106723,0.
 00264854,-0.00280628,0.00089129,0.00131550,-0.07081549,0.00568987,-0.0
 6731899,-0.04090631,0.01142199,0.02762171,-0.03942495,0.03986766,-0.01
 364742,-0.01045418,-0.02196286,0.00160579,0.00043170,0.00002157,0.0001
 4293,-0.00006105,-0.00038708,-0.00025554,0.00004343,0.00018363,-0.0003
 7435,0.00010934,0.00048770,-0.01116112,0.00482118,0.01153228,0.0065331
 2,-0.00496225,-0.00369386,0.00618747,0.17089214,-0.00134174,-0.0008436
 9,0.00142977,0.00100138,0.00086487,0.00173302,-0.00034644,0.00025026,-
 0.00028705,0.00053512,-0.00031149,0.00185398,-0.00005269,-0.00006910,0
 .00126832,0.00731279,0.00645739,-0.07987626,-0.00235438,0.00327955,0.0
 1470262,-0.02285415,0.03569587,-0.01107794,0.01352477,-0.00833790,-0.0
 2307512,-0.00824327,0.00035989,-0.00136397,0.00018377,0.00018558,-0.00
 065680,0.00179478,0.00059186,-0.00167344,0.00050893,-0.00024140,-0.000
 38721,0.04822516,0.01895153,-0.05535544,0.00067894,-0.00087888,0.00157
 255,0.06946597,-0.12558370,0.64342126,-0.00029962,-0.00030371,-0.00000
 364,0.00079039,0.00033641,0.00139488,0.00002233,0.00007088,-0.00019914
 ,-0.00167534,0.00047827,-0.00142810,-0.00016636,-0.00025805,-0.0007449
 6,0.01177327,-0.00408509,0.03172844,-0.00089661,0.00026800,-0.00212742
 ,-0.00283282,0.00580331,-0.00210691,0.00428681,-0.00848387,-0.00550884
 ,0.00161456,-0.00026517,0.00079634,0.00001169,-0.00003206,0.00008969,-
 0.00045510,-0.00009336,0.00036253,-0.00006879,0.00011878,0.00009457,-0
 .00654509,-0.00212332,0.00607746,-0.00044207,-0.00016194,0.00068119,-0
 .06737725,0.02067008,-0.10733128,0.06222031,-0.00259508,-0.00068089,-0
 .00004982,0.00016226,-0.00017100,-0.00065980,0.00032002,-0.00036822,-0
 .00057699,0.00048212,0.00065153,0.00038007,0.00022720,-0.00030635,0.00
 024900,-0.00098829,-0.00055009,0.01436250,0.00255748,-0.00002983,-0.00
 303104,0.00349640,-0.00517266,0.00251243,-0.00511196,0.00490417,0.0062
 7579,-0.00004383,0.00070810,0.00026230,0.00008379,0.00001945,-0.000031
 85,-0.00001452,-0.00000522,-0.00002958,0.00000344,-0.00006855,0.000025
 82,-0.00042488,-0.00030571,-0.00069199,0.00011288,0.00012631,-0.000450
 06,0.01264845,-0.02351353,0.06900562,-0.01249685,0.02513370,0.00209099
 ,0.00039896,-0.00005060,-0.00135075,-0.00129466,0.00197455,0.00020888,
 -0.00000390,-0.00019465,-0.00005824,-0.00019350,0.00034082,-0.00054798
 ,0.00071176,-0.00002051,-0.00078692,0.00374934,-0.01692383,-0.00359040
 ,-0.00352416,0.00063497,0.00241232,-0.00388467,0.00362992,-0.00448391,
 0.00467279,-0.00400380,-0.00062804,0.00009605,0.00024297,0.00007064,0.
 00002112,-0.00015799,0.00015618,0.00001387,-0.00002283,0.00002667,0.00
 001275,-0.00009573,0.00299365,0.00096535,-0.00146669,0.00034664,-0.000
 26115,-0.00046946,-0.07508962,0.08644828,-0.48796838,0.07933286,-0.088
 14320,0.50409347,0.00928624,0.00844770,-0.00414157,0.00045226,-0.00251
 407,-0.00047613,0.00034382,-0.00057462,0.00014540,-0.00029151,-0.00012
 833,-0.00004267,-0.00207693,-0.00229868,0.00010655,0.00056950,0.022518
 63,0.01011519,-0.05951922,-0.03323874,0.00594741,-0.00171433,0.0013840
 9,-0.00085783,0.00253837,-0.00096722,0.00137028,-0.00258418,0.00061842
 ,0.00000216,-0.00237518,-0.00125926,-0.00099844,-0.00016285,-0.0006124
 6,-0.00048016,0.00014205,-0.00051624,-0.00016781,-0.00013478,-0.002232
 45,-0.00501771,0.00120376,-0.00004066,0.00081357,-0.00647713,-0.007520
 27,0.00072173,0.00012935,0.00113686,-0.00094594,0.06006281,0.00056551,
 -0.01393287,-0.00031516,-0.00080947,-0.00339125,-0.00111144,-0.0013407
 1,-0.00040063,0.00042497,0.00012536,0.00012691,0.00017789,-0.00200525,
 -0.00201547,0.00085529,0.00322510,0.00103493,0.00148652,-0.01526487,0.
 00239477,0.00193737,-0.00096082,0.00138076,-0.00027254,0.00113089,-0.0
 0113216,0.00092975,-0.00118293,0.00037170,-0.00082022,-0.00085916,-0.0
 0171203,-0.00089200,-0.00049406,-0.00033053,-0.00025415,0.00044491,0.0
 0052915,0.00049313,-0.00069557,0.00062441,-0.00105700,0.00082194,-0.00
 053991,-0.00005138,-0.00204668,0.00025323,0.00009058,0.00035616,-0.000
 03321,-0.00032091,0.01914991,0.01770792,-0.00780529,-0.00296541,-0.012
 64026,0.00019032,0.00053782,0.00087932,0.00017192,0.00021118,0.0001110
 2,-0.00057175,-0.00046547,0.00036021,0.00001399,0.00035928,-0.00109476
 ,-0.00037197,-0.00586104,-0.00594986,0.01554190,0.00883575,0.00643893,
 0.00007482,-0.00008473,0.00075598,-0.00069280,0.00039448,-0.00063818,0
 .00050288,0.00198448,-0.00353563,-0.00065456,-0.00163069,-0.00150383,-
 0.00077966,-0.00092166,-0.00021773,0.00016797,0.00015283,0.00023410,-0
 .00172656,-0.00042169,0.00485240,0.00055781,-0.00036291,-0.00071292,0.
 00153817,0.00150888,0.00048117,-0.00018484,-0.00026573,0.00008188,-0.0
 0586256,-0.00110373,0.01223144,-0.00089306,-0.00011602,0.00011099,0.00
 009872,-0.00009542,-0.00010585,0.00000977,-0.00004604,-0.00000337,-0.0
 0001821,0.00002077,-0.00002988,0.00001000,0.00000086,0.00001536,-0.000
 77538,0.00157315,0.00077574,0.00025716,0.00039908,-0.00016136,-0.07233
 680,-0.01634256,0.00658345,-0.00095231,0.00681229,0.00255813,-0.000313
 42,0.00043045,-0.00002686,-0.00004098,0.00000236,0.00005089,0.00001789
 ,-0.00002648,-0.00002312,-0.00010351,-0.00006659,0.00010144,-0.0026861
 5,0.00047349,0.00040590,0.00407195,0.02365431,0.00326650,-0.00006589,0
 .00013821,-0.00122702,-0.00000495,0.00034053,-0.00016597,0.00046489,-0
 .00000021,-0.00012392,0.62675649,0.00175277,0.00108769,-0.00029253,-0.
 00079469,-0.00073355,-0.00043348,0.00019985,-0.00022199,0.00002808,-0.
 00003549,0.00012775,-0.00003576,-0.00003515,0.00027593,0.00003241,0.00
 745269,0.00293422,0.00315886,-0.00266858,-0.00642057,-0.00232027,0.011
 44382,-0.19959731,-0.03431227,0.00640292,-0.02536756,0.00456568,0.0016
 4019,0.00096029,-0.00213763,-0.00018803,-0.00001396,0.00026347,0.00005
 958,-0.00002040,0.00013842,-0.00052433,-0.00009336,0.00037221,-0.00784
 105,0.00356517,0.00024559,0.01062212,-0.00920250,-0.00869233,-0.006690
 99,0.00593055,-0.00206919,-0.00034239,0.00033864,0.00077023,-0.0008199
 4,-0.00081798,-0.00006321,0.00576181,0.46159858,0.00031438,0.00046637,
 -0.00011217,-0.00051119,-0.00041628,0.00015805,0.00008518,-0.00008844,
 -0.00001334,0.00006826,-0.00000406,0.00004426,-0.00007565,0.00017093,0
 .00001296,0.00315478,0.00209854,-0.00054260,-0.00128477,-0.00237533,0.
 00003677,0.01307218,-0.02977734,-0.10529079,0.00889983,0.00505135,0.02
 045238,0.00044048,-0.00003868,-0.00009380,-0.00001272,0.00003463,0.000
 08465,-0.00002008,-0.00004703,-0.00002167,-0.00002140,0.00001269,-0.00
 004669,0.00049608,-0.00006786,0.00018796,-0.00410298,-0.02346684,-0.00
 378010,-0.00680539,0.00551242,-0.00549814,-0.00111830,0.00094760,0.000
 43716,-0.00014570,-0.00030448,-0.00004299,-0.00204223,-0.05279107,0.61
 664444,0.00024395,0.00000500,0.00000348,0.00004653,0.00010282,0.000046
 02,-0.00002670,0.00002900,-0.00000122,-0.00000062,-0.00000024,-0.00000
 196,0.00000921,-0.00001453,0.00000205,-0.00038190,-0.00053998,0.000020
 11,-0.00029504,0.00082707,-0.00033011,0.00213670,0.00185664,-0.0011738
 3,-0.00023468,0.00014651,0.00078411,-0.00000400,-0.00002447,-0.0000382
 5,0.00002947,-0.00000551,-0.00000669,-0.00000024,-0.00000083,-0.000001
 42,0.00000417,0.00001620,0.00000514,0.00007492,0.00006524,0.00001015,0
 .00064210,-0.00055522,-0.00087124,0.00017017,0.00015277,-0.00033047,-0
 .00012567,0.00013323,0.00007536,-0.00012615,0.00000623,-0.00001405,-0.
 20856537,0.01017464,0.14087574,0.21456546,0.00003745,-0.00005678,0.000
 01931,0.00000848,0.00006666,0.00018362,-0.00001856,0.00003437,-0.00000
 646,0.00003638,-0.00003105,0.00002554,-0.00001241,-0.00001045,-0.00000
 933,-0.00042513,-0.00037704,-0.00112264,-0.00003844,0.00073090,0.00017
 354,0.03174416,-0.01443892,-0.03350493,0.00037736,0.00148670,-0.001071
 32,-0.00016673,-0.00031507,0.00041076,0.00006089,0.00000240,-0.0000412
 7,-0.00002103,-0.00000598,-0.00002969,0.00012343,0.00004832,-0.0001089
 6,0.00216944,-0.00095010,-0.00002826,-0.00377460,-0.00467023,0.0009490
 6,0.00011964,-0.00040530,0.00043179,0.00012259,-0.00010722,-0.00003630
 ,-0.00002941,0.00006816,0.00001157,-0.00042185,-0.04778103,0.00363035,
 -0.01168160,0.06135628,0.00002238,-0.00004709,-0.00000005,0.00004618,0
 .00006620,0.00005512,-0.00001685,0.00002069,-0.00000384,0.00000463,-0.
 00000866,0.00000545,0.00000096,-0.00001553,-0.00000530,-0.00038322,-0.
 00033494,-0.00035426,-0.00002044,0.00056782,-0.00002978,0.00708243,-0.
 00489750,-0.00611179,-0.00052281,0.00062403,-0.00029304,-0.00005531,-0
 .00007434,0.00009766,0.00000031,-0.00000421,-0.00003111,-0.00000385,0.
 00001838,0.00000970,0.00003422,0.00000181,-0.00001600,0.00060461,-0.00
 021652,0.00002110,-0.00183776,-0.00065217,0.00107221,0.00039429,-0.000
 23870,0.00004917,-0.00000610,0.00001645,0.00000006,0.00000390,0.000031
 41,0.00001649,0.13722298,-0.00818050,-0.17713949,-0.15255982,0.0129032
 8,0.18583903,0.00037078,0.00021757,-0.00012393,0.00002666,0.00008891,0
 .00005689,-0.00002512,0.00003035,-0.00001314,0.00000950,-0.00000423,0.
 00000846,0.00000538,0.00000232,-0.00000456,-0.00022412,-0.00041433,-0.
 00051125,-0.00067060,0.00053165,0.00049696,0.00072592,0.00227252,-0.00
 011137,0.00003706,-0.00021377,0.00031957,0.00008396,0.00007755,-0.0000
 8266,-0.00006985,0.00000696,-0.00004547,0.00000128,0.00004322,0.000051
 25,-0.00001629,-0.00004080,0.00002103,0.00001212,-0.00006781,0.0003823
 1,-0.00009281,0.00081486,-0.00072158,-0.00005028,0.00013811,0.00000769
 ,-0.00004710,-0.00002278,0.00001559,-0.00014479,-0.00009427,0.00011137
 ,-0.06904804,0.03331161,-0.05400895,0.00744344,-0.01397847,0.01958077,
 0.06369502,-0.00010113,-0.00003826,0.00002194,0.00021683,0.00015846,-0
 .00007073,-0.00003093,0.00003057,0.00000727,-0.00002442,-0.00000131,-0
 .00001862,0.00003429,-0.00006231,0.00000153,-0.00132428,-0.00086461,0.
 00031930,0.00011221,0.00083860,0.00019541,0.00974717,-0.03553698,0.026
 88616,-0.00346447,0.00133657,-0.00630441,-0.00012033,-0.00010499,0.000
 20960,0.00004465,0.00000825,-0.00002074,0.00001438,-0.00001042,-0.0000
 5232,0.00004144,0.00002372,-0.00004376,0.00051112,-0.00008842,-0.00031
 365,-0.00054411,0.00079943,0.00157182,0.00247864,-0.00207331,0.0017244
 4,0.00035598,-0.00031004,-0.00020000,0.00004015,0.00005296,-0.00000225
 ,0.03213281,-0.12186506,0.11345591,-0.00152448,0.00315805,-0.00137852,
 -0.03813434,0.14709071,0.00020569,0.00012160,-0.00005407,0.00008083,0.
 00009127,-0.00002851,-0.00001921,0.00002250,0.00000028,-0.00000734,0.0
 0000182,-0.00000298,0.00002000,-0.00001881,0.00000088,-0.00041288,-0.0
 0046272,-0.00005564,-0.00031467,0.00042034,0.00025307,0.00370263,-0.01
 393350,0.01509624,-0.00103212,-0.00065263,-0.00183581,0.00002826,0.000
 00997,0.00000931,-0.00000811,0.00000919,-0.00001191,0.00000417,0.00000
 004,-0.00000651,-0.00000212,-0.00000215,-0.00000767,0.00001305,0.00004
 303,-0.00000765,0.00017096,0.00056261,0.00080352,0.00094419,-0.0008375
 5,0.00074606,0.00019274,-0.00021159,-0.00005111,-0.00009974,-0.0000410
 5,0.00004172,-0.05418916,0.12835436,-0.24754714,-0.00675037,0.01024427
 ,-0.01498104,0.05735284,-0.12913190,0.25508814,-0.00102668,0.00014337,
 0.00006403,-0.00012722,-0.00020648,-0.00010340,0.00004772,-0.00006684,
 0.00000405,-0.00000446,0.00000911,-0.00000733,-0.00001100,0.00004065,0
 .00000235,0.00111405,0.00177714,0.00069350,-0.00204879,0.00033219,-0.0
 0043027,0.00720099,0.00375980,0.00266827,0.00056928,-0.00088388,0.0001
 5457,-0.00003811,0.00001961,0.00010119,-0.00000977,0.00000644,0.000062
 23,-0.00000090,-0.00001588,-0.00003332,-0.00000090,-0.00000575,-0.0000
 0278,-0.00031463,-0.00026325,-0.00055783,0.00115941,-0.00026834,0.0002
 8808,-0.00077636,-0.00014768,0.00012040,0.00008808,-0.00000647,-0.0000
 8202,0.00041399,-0.00007202,-0.00008317,-0.27588282,-0.06888137,-0.097
 25756,-0.01560574,-0.00423159,-0.00959151,-0.00202211,-0.00046120,0.00
 012038,0.28727597,0.00133181,0.00069304,-0.00020188,0.00018073,0.00034
 463,0.00016239,-0.00009275,0.00011929,-0.00001235,0.00002722,-0.000021
 03,0.00001874,0.00003279,-0.00003420,-0.00000227,-0.00144795,-0.002578
 60,-0.00133876,-0.00071859,0.00107404,0.00073706,-0.02702913,-0.029180
 51,-0.01897814,-0.00257565,0.00226540,-0.00245221,0.00002201,-0.000067
 72,0.00004259,0.00003468,0.00000997,-0.00008232,-0.00001812,0.00000729
 ,0.00003075,0.00003417,0.00000912,-0.00002800,0.00097470,-0.00014083,0
 .00072948,-0.00269956,0.00119101,0.00125186,0.00135749,-0.00032620,0.0
 0044614,0.00006536,-0.00025939,0.00000195,-0.00054341,-0.00023884,0.00
 015226,-0.05462494,-0.06468355,-0.02200336,0.00083153,0.00219731,0.001
 79861,0.01543518,0.00745839,0.00541090,0.06942243,0.08216139,-0.000125
 09,-0.00021178,0.00023674,0.00004317,0.00006443,-0.00000651,-0.0000150
 0,0.00001126,0.00000729,-0.00001072,0.00000532,-0.00001341,0.00001125,
 -0.00002891,0.00000472,-0.00025801,-0.00022983,0.00037925,-0.00050528,
 0.00096495,-0.00080947,-0.00673527,-0.00888526,-0.00257188,-0.00005568
 ,0.00124678,-0.00025955,-0.00011695,-0.00011842,0.00001724,0.00012027,
 -0.00003119,-0.00000009,-0.00000289,-0.00001939,-0.00002761,0.00002842
 ,0.00005061,-0.00000301,0.00009127,0.00015529,-0.00025949,-0.00130316,
 -0.00050511,-0.00005378,0.00046185,-0.00052510,-0.00003816,0.00000884,
 0.00010410,-0.00001022,0.00001006,0.00011715,-0.00014849,-0.09299263,-
 0.02660106,-0.09792971,0.02025724,0.00697608,0.01179971,-0.02278182,-0
 .00685647,-0.00744917,0.10387013,0.03431656,0.09713561\\-0.00949802,-0
 .00644083,0.00514698,-0.00123516,-0.00047304,-0.00104299,0.00053493,-0
 .00018942,-0.00022927,-0.00022346,0.00004732,0.00000066,0.00036518,-0.
 00019798,-0.00060027,-0.00238441,0.00017485,0.00492932,0.01884544,0.00
 702807,-0.00585454,0.01126762,-0.00379317,0.00055614,-0.00503379,0.001
 80663,-0.00913173,0.00020632,0.00094066,-0.00074940,0.00013224,-0.0005
 5479,-0.00078829,0.00002772,0.00011465,-0.00014187,0.00010621,-0.00019
 290,0.00031064,-0.00037005,-0.00063331,0.00016407,-0.00909021,-0.00050
 104,0.00816580,0.00365729,0.00065982,-0.00237701,-0.00054036,0.0029009
 1,0.00017656,-0.00732509,-0.00006411,0.00116526,0.00054717,-0.00136576
 ,0.00015896,0.00001210,0.00037079,0.00017331,0.00007305,0.00005362,0.0
 0014112,-0.00007469,0.00030906,-0.00017346\\\@


 THERE IS MORE TO LIFE THAN INCREASING ITS SPEED.

                                       -- GANDHI
 Job cpu time:       0 days  4 hours 48 minutes 42.0 seconds.
 File lengths (MBytes):  RWF=    240 Int=      0 D2E=      0 Chk=      9 Scr=      1
 Normal termination of Gaussian 09 at Tue Sep 22 16:29:59 2015.
