 Entering Gaussian System, Link 0=g09
 Initial command:
 /opt/gridware/applications/gaussian/g09/l1.exe "/lustre/SCRATCH5/gau/mlawal/1127802.sched01/Gau-31409.inp" -scrdir="/lustre/SCRATCH5/gau/mlawal/1127802.sched01/"
 Entering Link 1 = /opt/gridware/applications/gaussian/g09/l1.exe PID=     31410.
  
 Copyright (c) 1988,1990,1992,1993,1995,1998,2003,2009,2013,
            Gaussian, Inc.  All Rights Reserved.
  
 This is part of the Gaussian(R) 09 program.  It is based on
 the Gaussian(R) 03 system (copyright 2003, Gaussian, Inc.),
 the Gaussian(R) 98 system (copyright 1998, Gaussian, Inc.),
 the Gaussian(R) 94 system (copyright 1995, Gaussian, Inc.),
 the Gaussian 92(TM) system (copyright 1992, Gaussian, Inc.),
 the Gaussian 90(TM) system (copyright 1990, Gaussian, Inc.),
 the Gaussian 88(TM) system (copyright 1988, Gaussian, Inc.),
 the Gaussian 86(TM) system (copyright 1986, Carnegie Mellon
 University), and the Gaussian 82(TM) system (copyright 1983,
 Carnegie Mellon University). Gaussian is a federally registered
 trademark of Gaussian, Inc.
  
 This software contains proprietary and confidential information,
 including trade secrets, belonging to Gaussian, Inc.
  
 This software is provided under written license and may be
 used, copied, transmitted, or stored only in accord with that
 written license.
  
 The following legend is applicable only to US Government
 contracts under FAR:
  
                    RESTRICTED RIGHTS LEGEND
  
 Use, reproduction and disclosure by the US Government is
 subject to restrictions as set forth in subparagraphs (a)
 and (c) of the Commercial Computer Software - Restricted
 Rights clause in FAR 52.227-19.
  
 Gaussian, Inc.
 340 Quinnipiac St., Bldg. 40, Wallingford CT 06492
  
  
 ---------------------------------------------------------------
 Warning -- This program may not be used in any manner that
 competes with the business of Gaussian, Inc. or will provide
 assistance to any competitor of Gaussian, Inc.  The licensee
 of this program is prohibited from giving any competitor of
 Gaussian, Inc. access to this program.  By using this program,
 the user acknowledges that Gaussian, Inc. is engaged in the
 business of creating and licensing software in the field of
 computational chemistry and represents and warrants to the
 licensee that it is not a competitor of Gaussian, Inc. and that
 it will not use this program in any manner prohibited above.
 ---------------------------------------------------------------
  

 Cite this work as:
 Gaussian 09, Revision D.01,
 M. J. Frisch, G. W. Trucks, H. B. Schlegel, G. E. Scuseria, 
 M. A. Robb, J. R. Cheeseman, G. Scalmani, V. Barone, B. Mennucci, 
 G. A. Petersson, H. Nakatsuji, M. Caricato, X. Li, H. P. Hratchian, 
 A. F. Izmaylov, J. Bloino, G. Zheng, J. L. Sonnenberg, M. Hada, 
 M. Ehara, K. Toyota, R. Fukuda, J. Hasegawa, M. Ishida, T. Nakajima, 
 Y. Honda, O. Kitao, H. Nakai, T. Vreven, J. A. Montgomery, Jr., 
 J. E. Peralta, F. Ogliaro, M. Bearpark, J. J. Heyd, E. Brothers, 
 K. N. Kudin, V. N. Staroverov, T. Keith, R. Kobayashi, J. Normand, 
 K. Raghavachari, A. Rendell, J. C. Burant, S. S. Iyengar, J. Tomasi, 
 M. Cossi, N. Rega, J. M. Millam, M. Klene, J. E. Knox, J. B. Cross, 
 V. Bakken, C. Adamo, J. Jaramillo, R. Gomperts, R. E. Stratmann, 
 O. Yazyev, A. J. Austin, R. Cammi, C. Pomelli, J. W. Ochterski, 
 R. L. Martin, K. Morokuma, V. G. Zakrzewski, G. A. Voth, 
 P. Salvador, J. J. Dannenberg, S. Dapprich, A. D. Daniels, 
 O. Farkas, J. B. Foresman, J. V. Ortiz, J. Cioslowski, 
 and D. J. Fox, Gaussian, Inc., Wallingford CT, 2013.
 
 ******************************************
 Gaussian 09:  EM64L-G09RevD.01 24-Apr-2013
                22-Sep-2015 
 ******************************************
 %nprocshared=8
 Will use up to    8 processors via shared memory.
 %nprocl=1
 Will use up to    1 processors via Linda.
 ----------------------------------------------------------------------
 # opt=(calcfc,ts,noeigentest,maxcycle=50) m062x/def2tzvp geom=connecti
 vity
 ----------------------------------------------------------------------
 1/5=1,6=50,10=4,11=1,14=-1,18=20,26=3,38=1,57=2/1,3;
 2/9=110,12=2,17=6,18=5,40=1/2;
 3/5=44,7=101,11=2,16=1,25=1,30=1,71=2,74=-55,140=1/1,2,3;
 4//1;
 5/5=2,38=5/2;
 8/6=4,10=90,11=11/1;
 11/6=1,8=1,9=11,15=111,16=1/1,2,10;
 10/6=1,13=1/2;
 6/7=2,8=2,9=2,10=2,28=1/1;
 7/10=1,18=20,25=1/1,2,3,16;
 1/5=1,6=50,10=4,11=1,14=-1,18=20,26=3/3(2);
 2/9=110/2;
 99//99;
 2/9=110/2;
 3/5=44,7=101,11=2,16=1,25=1,30=1,71=1,74=-55/1,2,3;
 4/5=5,16=3,69=1/1;
 5/5=2,38=5/2;
 7//1,2,3,16;
 1/5=1,6=50,11=1,14=-1,18=20,26=3/3(-5);
 2/9=110/2;
 6/7=2,8=2,9=2,10=2,19=2,28=1/1;
 99/9=1/99;
 -----------
 ts611oh hcl
 -----------
 Symbolic Z-matrix:
 Charge =  0 Multiplicity = 1
 H                    -1.77629  -0.54391  -0.95039 
 C                    -0.75648   2.08301   0.1327 
 H                    -0.36518   2.63331   1.00167 
 H                    -0.78334   2.78226  -0.71475 
 H                    -1.79581   1.78921   0.35332 
 C                     0.07911   0.87943  -0.18369 
 O                    -0.24332  -0.06585  -0.95968 
 O                     2.69451  -0.51634   0.24543 
 H                     2.42971   0.48927  -0.29557 
 C                    -0.36036  -0.62095   1.75567 
 H                    -0.54428  -1.455     1.06782 
 H                     0.11843  -0.94129   2.68507 
 H                    -1.29584  -0.08592   1.95967 
 O                     0.57786   0.32054   1.16492 
 H                     1.73965  -0.38081   0.93782 
 O                     1.44582   1.4028   -0.64998 
 H                     1.47158   1.30809  -1.63418 
 Cl                   -2.96083  -0.79337  -0.37208 
 C                     2.41279  -1.61339  -0.67886 
 H                     3.18695  -1.57323  -1.45051 
 H                     2.49917  -2.53184  -0.08955 
 H                     1.40009  -1.50074  -1.10565 
 
 Add virtual bond connecting atoms H9         and O8         Dist= 2.22D+00.
 Add virtual bond connecting atoms H15        and O8         Dist= 2.24D+00.
 Add virtual bond connecting atoms H15        and O14        Dist= 2.60D+00.
 Add virtual bond connecting atoms O16        and H9         Dist= 2.62D+00.
 Add virtual bond connecting atoms O14        and C6         Dist= 2.92D+00.
 Add virtual bond connecting atoms O16        and C6         Dist= 2.90D+00.
 Add virtual bond connecting atoms O7         and H1         Dist= 3.03D+00.

 GradGradGradGradGradGradGradGradGradGradGradGradGradGradGradGradGradGrad
 Berny optimization.
 Initialization pass.
                           ----------------------------
                           !    Initial Parameters    !
                           ! (Angstroms and Degrees)  !
 --------------------------                            --------------------------
 ! Name  Definition              Value          Derivative Info.                !
 --------------------------------------------------------------------------------
 ! R1    R(1,7)                  1.6058         calculate D2E/DX2 analytically  !
 ! R2    R(1,18)                 1.3416         calculate D2E/DX2 analytically  !
 ! R3    R(2,3)                  1.1005         calculate D2E/DX2 analytically  !
 ! R4    R(2,4)                  1.099          calculate D2E/DX2 analytically  !
 ! R5    R(2,5)                  1.1024         calculate D2E/DX2 analytically  !
 ! R6    R(2,6)                  1.499          calculate D2E/DX2 analytically  !
 ! R7    R(6,7)                  1.2648         calculate D2E/DX2 analytically  !
 ! R8    R(6,14)                 1.5427         calculate D2E/DX2 analytically  !
 ! R9    R(6,16)                 1.536          calculate D2E/DX2 analytically  !
 ! R10   R(8,9)                  1.1722         calculate D2E/DX2 analytically  !
 ! R11   R(8,15)                 1.1872         calculate D2E/DX2 analytically  !
 ! R12   R(8,19)                 1.4619         calculate D2E/DX2 analytically  !
 ! R13   R(9,16)                 1.3886         calculate D2E/DX2 analytically  !
 ! R14   R(10,11)                1.0966         calculate D2E/DX2 analytically  !
 ! R15   R(10,12)                1.0934         calculate D2E/DX2 analytically  !
 ! R16   R(10,13)                1.0968         calculate D2E/DX2 analytically  !
 ! R17   R(10,14)                1.4545         calculate D2E/DX2 analytically  !
 ! R18   R(14,15)                1.3759         calculate D2E/DX2 analytically  !
 ! R19   R(16,17)                0.9891         calculate D2E/DX2 analytically  !
 ! R20   R(19,20)                1.0938         calculate D2E/DX2 analytically  !
 ! R21   R(19,21)                1.0947         calculate D2E/DX2 analytically  !
 ! R22   R(19,22)                1.1047         calculate D2E/DX2 analytically  !
 ! A1    A(7,1,18)             154.2568         calculate D2E/DX2 analytically  !
 ! A2    A(3,2,4)              107.4228         calculate D2E/DX2 analytically  !
 ! A3    A(3,2,5)              108.0891         calculate D2E/DX2 analytically  !
 ! A4    A(3,2,6)              111.7136         calculate D2E/DX2 analytically  !
 ! A5    A(4,2,5)              107.5091         calculate D2E/DX2 analytically  !
 ! A6    A(4,2,6)              111.2061         calculate D2E/DX2 analytically  !
 ! A7    A(5,2,6)              110.7201         calculate D2E/DX2 analytically  !
 ! A8    A(2,6,7)              125.9798         calculate D2E/DX2 analytically  !
 ! A9    A(2,6,14)             106.6537         calculate D2E/DX2 analytically  !
 ! A10   A(2,6,16)             106.6478         calculate D2E/DX2 analytically  !
 ! A11   A(7,6,14)             110.3654         calculate D2E/DX2 analytically  !
 ! A12   A(7,6,16)             107.1725         calculate D2E/DX2 analytically  !
 ! A13   A(14,6,16)             95.806          calculate D2E/DX2 analytically  !
 ! A14   A(1,7,6)              117.5369         calculate D2E/DX2 analytically  !
 ! A15   A(9,8,15)              89.4006         calculate D2E/DX2 analytically  !
 ! A16   A(9,8,19)             107.9656         calculate D2E/DX2 analytically  !
 ! A17   A(15,8,19)            107.4215         calculate D2E/DX2 analytically  !
 ! A18   A(8,9,16)             147.3778         calculate D2E/DX2 analytically  !
 ! A19   A(11,10,12)           112.5661         calculate D2E/DX2 analytically  !
 ! A20   A(11,10,13)           110.1587         calculate D2E/DX2 analytically  !
 ! A21   A(11,10,14)           110.2264         calculate D2E/DX2 analytically  !
 ! A22   A(12,10,13)           110.9945         calculate D2E/DX2 analytically  !
 ! A23   A(12,10,14)           104.6196         calculate D2E/DX2 analytically  !
 ! A24   A(13,10,14)           108.0562         calculate D2E/DX2 analytically  !
 ! A25   A(6,14,10)            112.3963         calculate D2E/DX2 analytically  !
 ! A26   A(6,14,15)            108.2613         calculate D2E/DX2 analytically  !
 ! A27   A(10,14,15)           106.3642         calculate D2E/DX2 analytically  !
 ! A28   A(8,15,14)            146.4644         calculate D2E/DX2 analytically  !
 ! A29   A(6,16,9)             109.1971         calculate D2E/DX2 analytically  !
 ! A30   A(6,16,17)            107.0155         calculate D2E/DX2 analytically  !
 ! A31   A(9,16,17)             99.9343         calculate D2E/DX2 analytically  !
 ! A32   A(8,19,20)            106.3853         calculate D2E/DX2 analytically  !
 ! A33   A(8,19,21)            105.9053         calculate D2E/DX2 analytically  !
 ! A34   A(8,19,22)            110.1444         calculate D2E/DX2 analytically  !
 ! A35   A(20,19,21)           110.778          calculate D2E/DX2 analytically  !
 ! A36   A(20,19,22)           111.8713         calculate D2E/DX2 analytically  !
 ! A37   A(21,19,22)           111.4616         calculate D2E/DX2 analytically  !
 ! D1    D(18,1,7,6)           -34.6439         calculate D2E/DX2 analytically  !
 ! D2    D(3,2,6,7)            166.6486         calculate D2E/DX2 analytically  !
 ! D3    D(3,2,6,14)            34.8856         calculate D2E/DX2 analytically  !
 ! D4    D(3,2,6,16)           -66.6312         calculate D2E/DX2 analytically  !
 ! D5    D(4,2,6,7)            -73.3377         calculate D2E/DX2 analytically  !
 ! D6    D(4,2,6,14)           154.8993         calculate D2E/DX2 analytically  !
 ! D7    D(4,2,6,16)            53.3825         calculate D2E/DX2 analytically  !
 ! D8    D(5,2,6,7)             46.1207         calculate D2E/DX2 analytically  !
 ! D9    D(5,2,6,14)           -85.6422         calculate D2E/DX2 analytically  !
 ! D10   D(5,2,6,16)           172.841          calculate D2E/DX2 analytically  !
 ! D11   D(2,6,7,1)            -37.9338         calculate D2E/DX2 analytically  !
 ! D12   D(14,6,7,1)            92.4018         calculate D2E/DX2 analytically  !
 ! D13   D(16,6,7,1)          -164.4393         calculate D2E/DX2 analytically  !
 ! D14   D(2,6,14,10)           87.7514         calculate D2E/DX2 analytically  !
 ! D15   D(2,6,14,15)         -155.0635         calculate D2E/DX2 analytically  !
 ! D16   D(7,6,14,10)          -52.169          calculate D2E/DX2 analytically  !
 ! D17   D(7,6,14,15)           65.0161         calculate D2E/DX2 analytically  !
 ! D18   D(16,6,14,10)        -162.9198         calculate D2E/DX2 analytically  !
 ! D19   D(16,6,14,15)         -45.7347         calculate D2E/DX2 analytically  !
 ! D20   D(2,6,16,9)           148.9466         calculate D2E/DX2 analytically  !
 ! D21   D(2,6,16,17)         -103.7405         calculate D2E/DX2 analytically  !
 ! D22   D(7,6,16,9)           -73.812          calculate D2E/DX2 analytically  !
 ! D23   D(7,6,16,17)           33.501          calculate D2E/DX2 analytically  !
 ! D24   D(14,6,16,9)           39.6127         calculate D2E/DX2 analytically  !
 ! D25   D(14,6,16,17)         146.9257         calculate D2E/DX2 analytically  !
 ! D26   D(15,8,9,16)          -25.3125         calculate D2E/DX2 analytically  !
 ! D27   D(19,8,9,16)           82.8293         calculate D2E/DX2 analytically  !
 ! D28   D(9,8,15,14)           10.529          calculate D2E/DX2 analytically  !
 ! D29   D(19,8,15,14)         -98.1345         calculate D2E/DX2 analytically  !
 ! D30   D(9,8,19,20)           71.8541         calculate D2E/DX2 analytically  !
 ! D31   D(9,8,19,21)         -170.2236         calculate D2E/DX2 analytically  !
 ! D32   D(9,8,19,22)          -49.5757         calculate D2E/DX2 analytically  !
 ! D33   D(15,8,19,20)         167.0305         calculate D2E/DX2 analytically  !
 ! D34   D(15,8,19,21)         -75.0472         calculate D2E/DX2 analytically  !
 ! D35   D(15,8,19,22)          45.6007         calculate D2E/DX2 analytically  !
 ! D36   D(8,9,16,6)            -3.1192         calculate D2E/DX2 analytically  !
 ! D37   D(8,9,16,17)         -115.1781         calculate D2E/DX2 analytically  !
 ! D38   D(11,10,14,6)          58.0772         calculate D2E/DX2 analytically  !
 ! D39   D(11,10,14,15)        -60.2321         calculate D2E/DX2 analytically  !
 ! D40   D(12,10,14,6)         179.3265         calculate D2E/DX2 analytically  !
 ! D41   D(12,10,14,15)         61.0172         calculate D2E/DX2 analytically  !
 ! D42   D(13,10,14,6)         -62.3479         calculate D2E/DX2 analytically  !
 ! D43   D(13,10,14,15)        179.3428         calculate D2E/DX2 analytically  !
 ! D44   D(6,14,15,8)           26.4682         calculate D2E/DX2 analytically  !
 ! D45   D(10,14,15,8)         147.4688         calculate D2E/DX2 analytically  !
 --------------------------------------------------------------------------------
 Trust Radius=3.00D-01 FncErr=1.00D-07 GrdErr=1.00D-06
 Number of steps in this run=     50 maximum allowed number of steps=    132.
 Search for a saddle point of order  1.
 GradGradGradGradGradGradGradGradGradGradGradGradGradGradGradGradGradGrad

                          Input orientation:                          
 ---------------------------------------------------------------------
 Center     Atomic      Atomic             Coordinates (Angstroms)
 Number     Number       Type             X           Y           Z
 ---------------------------------------------------------------------
      1          1           0       -1.776287   -0.543912   -0.950389
      2          6           0       -0.756482    2.083013    0.132703
      3          1           0       -0.365177    2.633306    1.001674
      4          1           0       -0.783335    2.782258   -0.714753
      5          1           0       -1.795814    1.789205    0.353315
      6          6           0        0.079106    0.879425   -0.183694
      7          8           0       -0.243323   -0.065854   -0.959675
      8          8           0        2.694511   -0.516337    0.245432
      9          1           0        2.429711    0.489273   -0.295565
     10          6           0       -0.360359   -0.620949    1.755668
     11          1           0       -0.544276   -1.455002    1.067822
     12          1           0        0.118425   -0.941289    2.685065
     13          1           0       -1.295841   -0.085923    1.959670
     14          8           0        0.577856    0.320541    1.164925
     15          1           0        1.739651   -0.380806    0.937818
     16          8           0        1.445816    1.402800   -0.649980
     17          1           0        1.471584    1.308090   -1.634182
     18         17           0       -2.960828   -0.793365   -0.372077
     19          6           0        2.412793   -1.613389   -0.678857
     20          1           0        3.186951   -1.573229   -1.450510
     21          1           0        2.499174   -2.531837   -0.089551
     22          1           0        1.400090   -1.500735   -1.105648
 ---------------------------------------------------------------------
                    Distance matrix (angstroms):
                    1          2          3          4          5
     1  H    0.000000
     2  C    3.018911   0.000000
     3  H    3.987041   1.100478   0.000000
     4  H    3.479208   1.099021   1.772897   0.000000
     5  H    2.672725   1.102363   1.783143   1.775398   0.000000
     6  C    2.460933   1.498979   2.163003   2.155598   2.152070
     7  O    1.605803   2.464600   3.338743   2.909182   2.752347
     8  O    4.628043   4.321884   4.455765   4.888568   5.048780
     9  H    4.380261   3.588209   3.753812   3.969529   4.468325
    10  C    3.055083   3.178418   3.340465   4.226548   3.136235
    11  H    2.533991   3.665655   4.092764   4.603161   3.549894
    12  H    4.118782   4.052952   3.980629   5.122181   4.069025
    13  H    2.984799   2.886694   3.029538   3.954954   2.519217
    14  O    3.280826   2.439723   2.502967   3.383206   2.906887
    15  H    3.994214   3.598513   3.676853   4.370517   4.189284
    16  O    3.776491   2.434214   2.742590   2.622254   3.415271
    17  H    3.800809   2.947315   3.475288   2.846609   3.854544
    18  Cl   1.341570   3.658893   4.512945   4.200474   2.924572
    19  C    4.331963   4.936225   5.345626   5.434909   5.509573
    20  H    5.093461   5.605830   6.027085   5.939257   6.275962
    21  H    4.792959   5.652038   6.006162   6.277368   6.108556
    22  H    3.320992   4.362060   4.964602   4.823295   4.813115
                    6          7          8          9         10
     6  C    0.000000
     7  O    1.264776   0.000000
     8  O    2.995437   3.207193   0.000000
     9  H    2.385388   2.809683   1.172198   0.000000
    10  C    2.491059   2.773971   3.409397   3.636570   0.000000
    11  H    2.721111   2.476096   3.470902   3.805736   1.096632
    12  H    3.397988   3.765817   3.573320   4.033944   1.093449
    13  H    2.723304   3.103349   4.364261   4.392798   1.096812
    14  O    1.542685   2.310316   2.454804   2.364502   1.454520
    15  H    2.367146   2.762582   1.187234   1.659655   2.266404
    16  O    1.535982   2.259656   2.458473   1.388593   3.625599
    17  H    2.055885   2.298606   2.890853   1.838577   4.309094
    18  Cl   3.474898   2.873913   5.695693   5.541563   3.364441
    19  C    3.450421   3.086855   1.461916   2.137378   3.821285
    20  H    4.156806   3.778873   2.058091   2.482181   4.875431
    21  H    4.183575   3.789390   2.052464   3.028923   3.902980
    22  H    2.874049   2.186549   2.114233   2.382538   3.472799
                   11         12         13         14         15
    11  H    0.000000
    12  H    1.821688   0.000000
    13  H    1.798505   1.804992   0.000000
    14  O    2.102656   2.028329   2.075469   0.000000
    15  H    2.527275   2.448548   3.216419   1.375948   0.000000
    16  O    3.883084   4.287102   4.067340   2.284408   2.405970
    17  H    4.358807   5.054368   4.745280   3.099839   3.088594
    18  Cl   2.889774   4.341635   2.951220   4.015650   4.896992
    19  C    3.438056   4.126962   4.800931   3.241390   2.141499
    20  H    4.503113   5.188273   5.825533   4.151414   3.036554
    21  H    3.429530   3.987017   4.958220   3.660769   2.501859
    22  H    2.916611   4.040439   4.320406   3.024668   2.354845
                   16         17         18         19         20
    16  O    0.000000
    17  H    0.989084   0.000000
    18  Cl   4.931418   5.065106   0.000000
    19  C    3.167534   3.214585   5.444479   0.000000
    20  H    3.539654   3.358306   6.290182   1.093792   0.000000
    21  H    4.111571   4.264606   5.737049   1.094664   1.801160
    22  H    2.939428   2.859013   4.478404   1.104721   1.821279
                   21         22
    21  H    0.000000
    22  H    1.817584   0.000000
 Stoichiometry    C4H13ClO4
 Framework group  C1[X(C4H13ClO4)]
 Deg. of freedom    60
 Full point group                 C1      NOp   1
 Largest Abelian subgroup         C1      NOp   1
 Largest concise Abelian subgroup C1      NOp   1
                         Standard orientation:                         
 ---------------------------------------------------------------------
 Center     Atomic      Atomic             Coordinates (Angstroms)
 Number     Number       Type             X           Y           Z
 ---------------------------------------------------------------------
      1          1           0       -1.776287   -0.543912   -0.950389
      2          6           0       -0.756482    2.083013    0.132703
      3          1           0       -0.365177    2.633306    1.001674
      4          1           0       -0.783335    2.782258   -0.714753
      5          1           0       -1.795814    1.789205    0.353315
      6          6           0        0.079106    0.879425   -0.183694
      7          8           0       -0.243323   -0.065854   -0.959675
      8          8           0        2.694511   -0.516337    0.245432
      9          1           0        2.429711    0.489273   -0.295565
     10          6           0       -0.360359   -0.620949    1.755668
     11          1           0       -0.544276   -1.455002    1.067822
     12          1           0        0.118425   -0.941289    2.685065
     13          1           0       -1.295841   -0.085923    1.959670
     14          8           0        0.577856    0.320541    1.164925
     15          1           0        1.739651   -0.380806    0.937818
     16          8           0        1.445816    1.402800   -0.649980
     17          1           0        1.471584    1.308090   -1.634182
     18         17           0       -2.960828   -0.793365   -0.372077
     19          6           0        2.412793   -1.613389   -0.678857
     20          1           0        3.186951   -1.573229   -1.450510
     21          1           0        2.499174   -2.531837   -0.089551
     22          1           0        1.400090   -1.500735   -1.105648
 ---------------------------------------------------------------------
 Rotational constants (GHZ):      1.6607919      0.7283149      0.6557272
 Standard basis: def2TZVP (5D, 7F)
 There are   408 symmetry adapted cartesian basis functions of A   symmetry.
 There are   363 symmetry adapted basis functions of A   symmetry.
   363 basis functions,   581 primitive gaussians,   408 cartesian basis functions
    43 alpha electrons       43 beta electrons
       nuclear repulsion energy       629.1673377310 Hartrees.
 NAtoms=   22 NActive=   22 NUniq=   22 SFac= 1.00D+00 NAtFMM=   60 NAOKFM=F Big=F
 Integral buffers will be    131072 words long.
 Raffenetti 2 integral format.
 Two-electron integral symmetry is turned on.
 One-electron integrals computed using PRISM.
 PrsmSu:  requested number of processors reduced to:   4 ShMem   1 Linda.
   1 Symmetry operations used in ECPInt.
 ECPInt:  NShTT=   11781 NPrTT=   35496 LenC2=   11360 LenP2D=   26372.
 LDataN:  DoStor=T MaxTD1= 6 Len=  172
 NBasis=   363 RedAO= T EigKep=  2.58D-04  NBF=   363
 NBsUse=   363 1.00D-06 EigRej= -1.00D+00 NBFU=   363
 ExpMin= 9.52D-02 ExpMax= 6.95D+04 ExpMxC= 2.37D+03 IAcc=2 IRadAn=         4 AccDes= 0.00D+00
 Harris functional with IExCor= 1009 and IRadAn=       4 diagonalized for initial guess.
 HarFok:  IExCor= 1009 AccDes= 0.00D+00 IRadAn=         4 IDoV= 1 UseB2=F ITyADJ=14
 ICtDFT=  3500011 ScaDFX=  1.000000  1.000000  1.000000  1.000000
 FoFCou: FMM=F IPFlag=           0 FMFlag=      100000 FMFlg1=           0
         NFxFlg=           0 DoJE=T BraDBF=F KetDBF=T FulRan=T
         wScrn=  0.000000 ICntrl=     500 IOpCl=  0 I1Cent=   200000004 NGrid=           0
         NMat0=    1 NMatS0=      1 NMatT0=    0 NMatD0=    1 NMtDS0=    0 NMtDT0=    0
 Petite list used in FoFCou.
 Requested convergence on RMS density matrix=1.00D-08 within 128 cycles.
 Requested convergence on MAX density matrix=1.00D-06.
 Requested convergence on             energy=1.00D-06.
 No special actions if energy rises.
 Integral accuracy reduced to 1.0D-05 until final iterations.
 Initial convergence to 1.0D-05 achieved.  Increase integral accuracy.
 SCF Done:  E(RM062X) =  -921.281115106     A.U. after   15 cycles
            NFock= 15  Conv=0.43D-08     -V/T= 2.0031
 DoSCS=F DFT=T ScalE2(SS,OS)=  1.000000  1.000000
 Range of M.O.s used for correlation:     1   363
 NBasis=   363 NAE=    43 NBE=    43 NFC=     0 NFV=     0
 NROrb=    363 NOA=    43 NOB=    43 NVA=   320 NVB=   320

 **** Warning!!: The largest alpha MO coefficient is  0.16514823D+02

 PrsmSu:  requested number of processors reduced to:   4 ShMem   1 Linda.
 PrsmSu:  requested number of processors reduced to:   3 ShMem   1 Linda.
   1 Symmetry operations used in ECPInt.
 ECPInt:  NShTT=   11781 NPrTT=   35496 LenC2=   11360 LenP2D=   26372.
 LDataN:  DoStor=T MaxTD1= 7 Len=  274
 Number of processors reduced to   2 by ecpmxn.
 Symmetrizing basis deriv contribution to polar:
 IMax=3 JMax=2 DiffMx= 0.00D+00
 G2DrvN: will do     2 centers at a time, making   12 passes.
 Estimated number of processors is:    7
 Calling FoFCou, ICntrl=  3107 FMM=F I1Cent=   0 AccDes= 0.00D+00.
 CoulSu:  requested number of processors reduced to:   7 ShMem   1 Linda.
 Calling FoFCou, ICntrl=  3107 FMM=F I1Cent=   0 AccDes= 0.00D+00.
 CoulSu:  requested number of processors reduced to:   7 ShMem   1 Linda.
 Calling FoFCou, ICntrl=  3107 FMM=F I1Cent=   0 AccDes= 0.00D+00.
 CoulSu:  requested number of processors reduced to:   7 ShMem   1 Linda.
 Calling FoFCou, ICntrl=  3107 FMM=F I1Cent=   0 AccDes= 0.00D+00.
 CoulSu:  requested number of processors reduced to:   7 ShMem   1 Linda.
 Calling FoFCou, ICntrl=  3107 FMM=F I1Cent=   0 AccDes= 0.00D+00.
 CoulSu:  requested number of processors reduced to:   7 ShMem   1 Linda.
 Calling FoFCou, ICntrl=  3107 FMM=F I1Cent=   0 AccDes= 0.00D+00.
 CoulSu:  requested number of processors reduced to:   7 ShMem   1 Linda.
 Calling FoFCou, ICntrl=  3107 FMM=F I1Cent=   0 AccDes= 0.00D+00.
 CoulSu:  requested number of processors reduced to:   7 ShMem   1 Linda.
 Calling FoFCou, ICntrl=  3107 FMM=F I1Cent=   0 AccDes= 0.00D+00.
 CoulSu:  requested number of processors reduced to:   7 ShMem   1 Linda.
 Calling FoFCou, ICntrl=  3107 FMM=F I1Cent=   0 AccDes= 0.00D+00.
 CoulSu:  requested number of processors reduced to:   7 ShMem   1 Linda.
 Calling FoFCou, ICntrl=  3107 FMM=F I1Cent=   0 AccDes= 0.00D+00.
 CoulSu:  requested number of processors reduced to:   7 ShMem   1 Linda.
 Calling FoFCou, ICntrl=  3107 FMM=F I1Cent=   0 AccDes= 0.00D+00.
 CoulSu:  requested number of processors reduced to:   7 ShMem   1 Linda.
 Calling FoFCou, ICntrl=  3107 FMM=F I1Cent=   0 AccDes= 0.00D+00.
 CoulSu:  requested number of processors reduced to:   7 ShMem   1 Linda.
 End of G2Drv F.D. properties file   721 does not exist.
 End of G2Drv F.D. properties file   722 does not exist.
 End of G2Drv F.D. properties file   788 does not exist.
          IDoAtm=1111111111111111111111
          Differentiating once with respect to nuclear coordinates.
 PrRfSu:  requested number of processors reduced to:   5 ShMem   1 Linda.
 PrRfSu:  requested number of processors reduced to:   5 ShMem   1 Linda.
 PrRfSu:  requested number of processors reduced to:   5 ShMem   1 Linda.
 PrRfSu:  requested number of processors reduced to:   5 ShMem   1 Linda.
          There are    69 degrees of freedom in the 1st order CPHF.  IDoFFX=6 NUNeed=     0.
     66 vectors produced by pass  0 Test12= 1.99D-14 1.45D-09 XBig12= 1.01D-01 4.02D-02.
 AX will form    16 AO Fock derivatives at one time.
 PrRfSu:  requested number of processors reduced to:   5 ShMem   1 Linda.
 PrRfSu:  requested number of processors reduced to:   5 ShMem   1 Linda.
 PrRfSu:  requested number of processors reduced to:   5 ShMem   1 Linda.
 PrRfSu:  requested number of processors reduced to:   5 ShMem   1 Linda.
     63 vectors produced by pass  1 Test12= 1.99D-14 1.45D-09 XBig12= 7.06D-03 1.15D-02.
 PrRfSu:  requested number of processors reduced to:   5 ShMem   1 Linda.
 PrRfSu:  requested number of processors reduced to:   5 ShMem   1 Linda.
 PrRfSu:  requested number of processors reduced to:   5 ShMem   1 Linda.
 PrRfSu:  requested number of processors reduced to:   5 ShMem   1 Linda.
     63 vectors produced by pass  2 Test12= 1.99D-14 1.45D-09 XBig12= 1.40D-04 1.53D-03.
 PrRfSu:  requested number of processors reduced to:   5 ShMem   1 Linda.
 PrRfSu:  requested number of processors reduced to:   5 ShMem   1 Linda.
 PrRfSu:  requested number of processors reduced to:   5 ShMem   1 Linda.
 PrRfSu:  requested number of processors reduced to:   5 ShMem   1 Linda.
     63 vectors produced by pass  3 Test12= 1.99D-14 1.45D-09 XBig12= 1.41D-06 1.40D-04.
 PrRfSu:  requested number of processors reduced to:   5 ShMem   1 Linda.
 PrRfSu:  requested number of processors reduced to:   5 ShMem   1 Linda.
 PrRfSu:  requested number of processors reduced to:   5 ShMem   1 Linda.
 PrRfSu:  requested number of processors reduced to:   5 ShMem   1 Linda.
     63 vectors produced by pass  4 Test12= 1.99D-14 1.45D-09 XBig12= 8.90D-09 1.15D-05.
 PrRfSu:  requested number of processors reduced to:   5 ShMem   1 Linda.
 PrRfSu:  requested number of processors reduced to:   5 ShMem   1 Linda.
 PrRfSu:  requested number of processors reduced to:   5 ShMem   1 Linda.
 PrRfSu:  requested number of processors reduced to:   5 ShMem   1 Linda.
     63 vectors produced by pass  5 Test12= 1.99D-14 1.45D-09 XBig12= 5.93D-11 8.10D-07.
 PrRfSu:  requested number of processors reduced to:   5 ShMem   1 Linda.
 PrRfSu:  requested number of processors reduced to:   5 ShMem   1 Linda.
 PrRfSu:  requested number of processors reduced to:   5 ShMem   1 Linda.
 PrRfSu:  requested number of processors reduced to:   5 ShMem   1 Linda.
     49 vectors produced by pass  6 Test12= 1.99D-14 1.45D-09 XBig12= 2.54D-13 5.85D-08.
 PrRfSu:  requested number of processors reduced to:   5 ShMem   1 Linda.
 PrRfSu:  requested number of processors reduced to:   5 ShMem   1 Linda.
 PrRfSu:  requested number of processors reduced to:   5 ShMem   1 Linda.
      8 vectors produced by pass  7 Test12= 1.99D-14 1.45D-09 XBig12= 1.48D-15 3.60D-09.
 PrRfSu:  requested number of processors reduced to:   6 ShMem   1 Linda.
 InvSVY:  IOpt=1 It=  1 EMax= 7.22D-16
 Solved reduced A of dimension   438 with    69 vectors.
 End of Minotr F.D. properties file   721 does not exist.
 End of Minotr F.D. properties file   722 does not exist.
 End of Minotr F.D. properties file   788 does not exist.

 **********************************************************************

            Population analysis using the SCF density.

 **********************************************************************

 Orbital symmetries:
       Occupied  (A) (A) (A) (A) (A) (A) (A) (A) (A) (A) (A) (A)
                 (A) (A) (A) (A) (A) (A) (A) (A) (A) (A) (A) (A)
                 (A) (A) (A) (A) (A) (A) (A) (A) (A) (A) (A) (A)
                 (A) (A) (A) (A) (A) (A) (A)
       Virtual   (A) (A) (A) (A) (A) (A) (A) (A) (A) (A) (A) (A)
                 (A) (A) (A) (A) (A) (A) (A) (A) (A) (A) (A) (A)
                 (A) (A) (A) (A) (A) (A) (A) (A) (A) (A) (A) (A)
                 (A) (A) (A) (A) (A) (A) (A) (A) (A) (A) (A) (A)
                 (A) (A) (A) (A) (A) (A) (A) (A) (A) (A) (A) (A)
                 (A) (A) (A) (A) (A) (A) (A) (A) (A) (A) (A) (A)
                 (A) (A) (A) (A) (A) (A) (A) (A) (A) (A) (A) (A)
                 (A) (A) (A) (A) (A) (A) (A) (A) (A) (A) (A) (A)
                 (A) (A) (A) (A) (A) (A) (A) (A) (A) (A) (A) (A)
                 (A) (A) (A) (A) (A) (A) (A) (A) (A) (A) (A) (A)
                 (A) (A) (A) (A) (A) (A) (A) (A) (A) (A) (A) (A)
                 (A) (A) (A) (A) (A) (A) (A) (A) (A) (A) (A) (A)
                 (A) (A) (A) (A) (A) (A) (A) (A) (A) (A) (A) (A)
                 (A) (A) (A) (A) (A) (A) (A) (A) (A) (A) (A) (A)
                 (A) (A) (A) (A) (A) (A) (A) (A) (A) (A) (A) (A)
                 (A) (A) (A) (A) (A) (A) (A) (A) (A) (A) (A) (A)
                 (A) (A) (A) (A) (A) (A) (A) (A) (A) (A) (A) (A)
                 (A) (A) (A) (A) (A) (A) (A) (A) (A) (A) (A) (A)
                 (A) (A) (A) (A) (A) (A) (A) (A) (A) (A) (A) (A)
                 (A) (A) (A) (A) (A) (A) (A) (A) (A) (A) (A) (A)
                 (A) (A) (A) (A) (A) (A) (A) (A) (A) (A) (A) (A)
                 (A) (A) (A) (A) (A) (A) (A) (A) (A) (A) (A) (A)
                 (A) (A) (A) (A) (A) (A) (A) (A) (A) (A) (A) (A)
                 (A) (A) (A) (A) (A) (A) (A) (A) (A) (A) (A) (A)
                 (A) (A) (A) (A) (A) (A) (A) (A) (A) (A) (A) (A)
                 (A) (A) (A) (A) (A) (A) (A) (A) (A) (A) (A) (A)
                 (A) (A) (A) (A) (A) (A) (A) (A)
 The electronic state is 1-A.
 Alpha  occ. eigenvalues -- -102.58794 -19.68581 -19.67059 -19.66699 -19.57962
 Alpha  occ. eigenvalues --  -10.70452 -10.60406 -10.59370 -10.53882  -9.75236
 Alpha  occ. eigenvalues --   -7.47327  -7.46990  -7.46981  -1.22969  -1.17424
 Alpha  occ. eigenvalues --   -1.14804  -1.10147  -0.88001  -0.85262  -0.80738
 Alpha  occ. eigenvalues --   -0.79033  -0.68236  -0.64192  -0.63455  -0.58798
 Alpha  occ. eigenvalues --   -0.57623  -0.55368  -0.53913  -0.53021  -0.52098
 Alpha  occ. eigenvalues --   -0.51062  -0.48246  -0.47472  -0.46658  -0.45119
 Alpha  occ. eigenvalues --   -0.44948  -0.42516  -0.40106  -0.37430  -0.35754
 Alpha  occ. eigenvalues --   -0.34988  -0.33733  -0.33040
 Alpha virt. eigenvalues --    0.03677   0.06966   0.08593   0.09045   0.10526
 Alpha virt. eigenvalues --    0.11620   0.12837   0.13202   0.13245   0.13701
 Alpha virt. eigenvalues --    0.15348   0.16031   0.17550   0.17796   0.18362
 Alpha virt. eigenvalues --    0.19674   0.19766   0.21389   0.24623   0.25117
 Alpha virt. eigenvalues --    0.25666   0.27020   0.28273   0.29196   0.29967
 Alpha virt. eigenvalues --    0.30494   0.31968   0.33058   0.34589   0.35881
 Alpha virt. eigenvalues --    0.37287   0.37920   0.39069   0.40796   0.41473
 Alpha virt. eigenvalues --    0.42465   0.43162   0.43614   0.44570   0.45710
 Alpha virt. eigenvalues --    0.46970   0.48243   0.48510   0.49067   0.49258
 Alpha virt. eigenvalues --    0.49964   0.50839   0.52507   0.52900   0.53776
 Alpha virt. eigenvalues --    0.54694   0.56282   0.56868   0.58125   0.58893
 Alpha virt. eigenvalues --    0.60438   0.61788   0.63134   0.65593   0.66755
 Alpha virt. eigenvalues --    0.67494   0.68968   0.71294   0.71953   0.74122
 Alpha virt. eigenvalues --    0.75096   0.75961   0.77260   0.79368   0.81611
 Alpha virt. eigenvalues --    0.82766   0.85547   0.88639   0.90631   0.91131
 Alpha virt. eigenvalues --    0.93523   0.94999   0.96858   0.98175   1.00625
 Alpha virt. eigenvalues --    1.01406   1.02047   1.06554   1.07821   1.08634
 Alpha virt. eigenvalues --    1.09949   1.11073   1.13071   1.15828   1.21718
 Alpha virt. eigenvalues --    1.22988   1.25581   1.26514   1.34698   1.39680
 Alpha virt. eigenvalues --    1.44151   1.47164   1.48141   1.48861   1.49880
 Alpha virt. eigenvalues --    1.51385   1.53286   1.54110   1.54492   1.55932
 Alpha virt. eigenvalues --    1.56763   1.57236   1.59599   1.60005   1.61009
 Alpha virt. eigenvalues --    1.62210   1.63706   1.64292   1.65674   1.68289
 Alpha virt. eigenvalues --    1.69388   1.70069   1.72054   1.74268   1.76921
 Alpha virt. eigenvalues --    1.79151   1.80025   1.82830   1.83963   1.84421
 Alpha virt. eigenvalues --    1.84635   1.85631   1.86510   1.89132   1.89731
 Alpha virt. eigenvalues --    1.91193   1.94094   1.94976   1.95898   1.97500
 Alpha virt. eigenvalues --    1.98856   1.99768   2.01431   2.03424   2.05787
 Alpha virt. eigenvalues --    2.06725   2.09571   2.10845   2.12451   2.13429
 Alpha virt. eigenvalues --    2.14910   2.15922   2.16758   2.17610   2.19228
 Alpha virt. eigenvalues --    2.20606   2.22267   2.23781   2.24959   2.26306
 Alpha virt. eigenvalues --    2.26478   2.28020   2.29271   2.30088   2.30978
 Alpha virt. eigenvalues --    2.31755   2.32588   2.34621   2.35282   2.36095
 Alpha virt. eigenvalues --    2.37174   2.38901   2.39907   2.41631   2.43655
 Alpha virt. eigenvalues --    2.45656   2.47890   2.48642   2.49755   2.51764
 Alpha virt. eigenvalues --    2.52329   2.53850   2.54956   2.56753   2.57878
 Alpha virt. eigenvalues --    2.60485   2.60716   2.62425   2.63556   2.64701
 Alpha virt. eigenvalues --    2.67547   2.70004   2.72343   2.74519   2.75559
 Alpha virt. eigenvalues --    2.77948   2.80014   2.80616   2.82154   2.86565
 Alpha virt. eigenvalues --    2.88944   2.93424   2.97988   2.99785   3.01982
 Alpha virt. eigenvalues --    3.05096   3.07542   3.09212   3.11068   3.12408
 Alpha virt. eigenvalues --    3.13078   3.15844   3.17298   3.18365   3.20005
 Alpha virt. eigenvalues --    3.20975   3.23805   3.25473   3.26803   3.29305
 Alpha virt. eigenvalues --    3.30967   3.32316   3.35307   3.37894   3.39300
 Alpha virt. eigenvalues --    3.40560   3.41433   3.43090   3.43292   3.45863
 Alpha virt. eigenvalues --    3.48886   3.49766   3.52485   3.54935   3.55500
 Alpha virt. eigenvalues --    3.58763   3.61950   3.63900   3.65681   3.70654
 Alpha virt. eigenvalues --    3.71704   3.75724   3.80867   3.83205   3.89759
 Alpha virt. eigenvalues --    3.93317   3.96012   4.00215   4.02486   4.09442
 Alpha virt. eigenvalues --    4.14127   4.16820   4.19180   4.23278   4.33838
 Alpha virt. eigenvalues --    4.34975   4.38197   4.39733   4.41996   4.49736
 Alpha virt. eigenvalues --    4.53418   4.55344   4.62272   4.67643   4.83916
 Alpha virt. eigenvalues --    5.20962   5.22966   5.25024   5.26162   5.28144
 Alpha virt. eigenvalues --    5.29025   5.33235   5.39546   5.41379   5.44608
 Alpha virt. eigenvalues --    5.46899   5.52268   5.56746   5.62508   5.63680
 Alpha virt. eigenvalues --    5.65101   5.70569   5.75530   5.77888   5.82688
 Alpha virt. eigenvalues --    5.87577   5.97354   6.09624   6.12194   6.17933
 Alpha virt. eigenvalues --    6.21832   6.28196   6.36369   6.46414   6.48587
 Alpha virt. eigenvalues --    6.56954   6.61845   6.64751   6.70411   6.73358
 Alpha virt. eigenvalues --    6.77461   6.80785   6.83790   6.90335   6.95936
 Alpha virt. eigenvalues --    7.01341   7.04470   7.06237   7.09931   7.16387
 Alpha virt. eigenvalues --    7.23714   7.26029   7.37167  10.84471  10.87231
 Alpha virt. eigenvalues --   10.98938  22.33880  22.40353  22.45546  22.95969
 Alpha virt. eigenvalues --   25.02320  43.88393  43.96190  44.25398  44.29654
          Condensed to atoms (all electrons):
               1          2          3          4          5          6
     1  H    0.318215   0.004059   0.000021  -0.000052  -0.003266  -0.003926
     2  C    0.004059   5.223711   0.407876   0.394765   0.372030   0.225859
     3  H    0.000021   0.407876   0.512631  -0.021164  -0.025638  -0.048146
     4  H   -0.000052   0.394765  -0.021164   0.514177  -0.014604  -0.032803
     5  H   -0.003266   0.372030  -0.025638  -0.014604   0.504155  -0.004941
     6  C   -0.003926   0.225859  -0.048146  -0.032803  -0.004941   4.806080
     7  O    0.040392  -0.074573   0.004763   0.002368  -0.003791   0.438170
     8  O   -0.000037  -0.001125   0.000013   0.000146   0.000039   0.018385
     9  H   -0.000015   0.001516  -0.000145  -0.000048  -0.000032  -0.010810
    10  C   -0.003321  -0.005345  -0.000313   0.000547  -0.003437  -0.028350
    11  H   -0.002285   0.002124   0.000076   0.000027  -0.000003  -0.010463
    12  H   -0.000066  -0.001327  -0.000217   0.000025   0.000189   0.005580
    13  H   -0.000766  -0.005643  -0.001181  -0.000243  -0.000369   0.014059
    14  O    0.002553  -0.047050   0.004913   0.005367  -0.002357   0.105527
    15  H   -0.000093   0.000788   0.000152  -0.000162  -0.000126  -0.009936
    16  O    0.000055  -0.076533   0.002293   0.003476   0.004810   0.183494
    17  H    0.000048  -0.002487  -0.000061  -0.000122  -0.000109  -0.001752
    18  Cl   0.307298  -0.025706   0.000544  -0.000144   0.017484   0.039038
    19  C   -0.000147   0.001295   0.000046  -0.000067  -0.000045   0.023988
    20  H    0.000003  -0.000022  -0.000003   0.000002   0.000000  -0.001303
    21  H    0.000005   0.000011  -0.000003   0.000000   0.000000  -0.001135
    22  H    0.000184   0.000868  -0.000043  -0.000023  -0.000028   0.005948
               7          8          9         10         11         12
     1  H    0.040392  -0.000037  -0.000015  -0.003321  -0.002285  -0.000066
     2  C   -0.074573  -0.001125   0.001516  -0.005345   0.002124  -0.001327
     3  H    0.004763   0.000013  -0.000145  -0.000313   0.000076  -0.000217
     4  H    0.002368   0.000146  -0.000048   0.000547   0.000027   0.000025
     5  H   -0.003791   0.000039  -0.000032  -0.003437  -0.000003   0.000189
     6  C    0.438170   0.018385  -0.010810  -0.028350  -0.010463   0.005580
     7  O    8.475959  -0.003846   0.005418  -0.009851   0.011857   0.001260
     8  O   -0.003846   8.138425   0.228429   0.009492   0.000122   0.000487
     9  H    0.005418   0.228429   0.288877   0.000163   0.000050  -0.000107
    10  C   -0.009851   0.009492   0.000163   4.969669   0.428619   0.388161
    11  H    0.011857   0.000122   0.000050   0.428619   0.503424  -0.027398
    12  H    0.001260   0.000487  -0.000107   0.388161  -0.027398   0.522274
    13  H   -0.002551  -0.000453   0.000021   0.403109  -0.035711  -0.014178
    14  O   -0.086279  -0.103442   0.008813   0.164716  -0.048263  -0.026594
    15  H    0.004490   0.214761  -0.021804  -0.009343  -0.001743  -0.003763
    16  O   -0.107710  -0.112913   0.108365   0.002806   0.000080   0.000067
    17  H    0.006124   0.002074  -0.004063  -0.000654  -0.000110   0.000022
    18  Cl  -0.078438   0.000004   0.000060  -0.013545   0.003652   0.002345
    19  C   -0.034187   0.155089  -0.015818  -0.003881  -0.002637  -0.000254
    20  H    0.001482  -0.029153  -0.006733   0.000245   0.000037  -0.000008
    21  H    0.001233  -0.028464   0.004437   0.000640   0.000164   0.000012
    22  H    0.003783  -0.044967  -0.000758  -0.003268  -0.000084   0.000112
              13         14         15         16         17         18
     1  H   -0.000766   0.002553  -0.000093   0.000055   0.000048   0.307298
     2  C   -0.005643  -0.047050   0.000788  -0.076533  -0.002487  -0.025706
     3  H   -0.001181   0.004913   0.000152   0.002293  -0.000061   0.000544
     4  H   -0.000243   0.005367  -0.000162   0.003476  -0.000122  -0.000144
     5  H   -0.000369  -0.002357  -0.000126   0.004810  -0.000109   0.017484
     6  C    0.014059   0.105527  -0.009936   0.183494  -0.001752   0.039038
     7  O   -0.002551  -0.086279   0.004490  -0.107710   0.006124  -0.078438
     8  O   -0.000453  -0.103442   0.214761  -0.112913   0.002074   0.000004
     9  H    0.000021   0.008813  -0.021804   0.108365  -0.004063   0.000060
    10  C    0.403109   0.164716  -0.009343   0.002806  -0.000654  -0.013545
    11  H   -0.035711  -0.048263  -0.001743   0.000080  -0.000110   0.003652
    12  H   -0.014178  -0.026594  -0.003763   0.000067   0.000022   0.002345
    13  H    0.511108  -0.035030   0.002142  -0.000068   0.000043   0.002892
    14  O   -0.035030   8.342783   0.121134  -0.055400   0.004470  -0.001767
    15  H    0.002142   0.121134   0.294031   0.008232  -0.000170  -0.000054
    16  O   -0.000068  -0.055400   0.008232   8.266724   0.284488  -0.000339
    17  H    0.000043   0.004470  -0.000170   0.284488   0.354304   0.000108
    18  Cl   0.002892  -0.001767  -0.000054  -0.000339   0.000108  17.131728
    19  C    0.000257   0.008789  -0.014978   0.016342  -0.000315  -0.000260
    20  H   -0.000002  -0.000339   0.004133  -0.000689   0.000166   0.000002
    21  H   -0.000018  -0.000271  -0.007334   0.000082   0.000176   0.000020
    22  H    0.000047   0.000686   0.000802  -0.001679  -0.001385   0.000186
              19         20         21         22
     1  H   -0.000147   0.000003   0.000005   0.000184
     2  C    0.001295  -0.000022   0.000011   0.000868
     3  H    0.000046  -0.000003  -0.000003  -0.000043
     4  H   -0.000067   0.000002   0.000000  -0.000023
     5  H   -0.000045   0.000000   0.000000  -0.000028
     6  C    0.023988  -0.001303  -0.001135   0.005948
     7  O   -0.034187   0.001482   0.001233   0.003783
     8  O    0.155089  -0.029153  -0.028464  -0.044967
     9  H   -0.015818  -0.006733   0.004437  -0.000758
    10  C   -0.003881   0.000245   0.000640  -0.003268
    11  H   -0.002637   0.000037   0.000164  -0.000084
    12  H   -0.000254  -0.000008   0.000012   0.000112
    13  H    0.000257  -0.000002  -0.000018   0.000047
    14  O    0.008789  -0.000339  -0.000271   0.000686
    15  H   -0.014978   0.004133  -0.007334   0.000802
    16  O    0.016342  -0.000689   0.000082  -0.001679
    17  H   -0.000315   0.000166   0.000176  -0.001385
    18  Cl  -0.000260   0.000002   0.000020   0.000186
    19  C    4.952907   0.402334   0.402819   0.412574
    20  H    0.402334   0.524562  -0.016600  -0.029092
    21  H    0.402819  -0.016600   0.521421  -0.028688
    22  H    0.412574  -0.029092  -0.028688   0.475654
 Mulliken charges:
               1
     1  H    0.341138
     2  C   -0.395091
     3  H    0.163588
     4  H    0.148534
     5  H    0.160039
     6  C    0.287437
     7  O   -0.596075
     8  O   -0.443067
     9  H    0.414183
    10  C   -0.286860
    11  H    0.178463
    12  H    0.153377
    13  H    0.162537
    14  O   -0.362958
    15  H    0.418841
    16  O   -0.525980
    17  H    0.359204
    18  Cl  -0.385108
    19  C   -0.303850
    20  H    0.150978
    21  H    0.151495
    22  H    0.209174
 Sum of Mulliken charges =   0.00000
 Mulliken charges with hydrogens summed into heavy atoms:
               1
     2  C    0.077071
     6  C    0.287437
     7  O   -0.596075
     8  O    0.389957
    10  C    0.207518
    14  O   -0.362958
    16  O   -0.166777
    18  Cl  -0.043970
    19  C    0.207797
 APT charges:
               1
     1  H    0.012660
     2  C   -1.290313
     3  H    0.453426
     4  H    0.506861
     5  H    0.347661
     6  C    0.185327
     7  O   -0.433189
     8  O   -0.247005
     9  H    0.384391
    10  C   -0.988531
    11  H    0.240358
    12  H    0.531060
    13  H    0.356147
    14  O   -0.241835
    15  H    0.303395
    16  O   -0.782103
    17  H    0.645056
    18  Cl  -0.111440
    19  C   -0.989094
    20  H    0.621069
    21  H    0.472955
    22  H    0.023145
 Sum of APT charges =   0.00000
 APT charges with hydrogens summed into heavy atoms:
               1
     2  C    0.017635
     6  C    0.185327
     7  O   -0.433189
     8  O    0.440781
    10  C    0.139035
    14  O   -0.241835
    16  O   -0.137047
    18  Cl  -0.098780
    19  C    0.128074
 Electronic spatial extent (au):  <R**2>=           1875.4155
 Charge=              0.0000 electrons
 Dipole moment (field-independent basis, Debye):
    X=              4.2286    Y=              0.2705    Z=              0.3088  Tot=              4.2485
 Quadrupole moment (field-independent basis, Debye-Ang):
   XX=            -72.6871   YY=            -60.9155   ZZ=            -59.8157
   XY=             -6.8747   XZ=             -7.9715   YZ=             -3.2794
 Traceless Quadrupole moment (field-independent basis, Debye-Ang):
   XX=             -8.2143   YY=              3.5572   ZZ=              4.6571
   XY=             -6.8747   XZ=             -7.9715   YZ=             -3.2794
 Octapole moment (field-independent basis, Debye-Ang**2):
  XXX=             42.0259  YYY=             -1.3172  ZZZ=             -1.4537  XYY=              9.1501
  XXY=              4.6639  XXZ=             -7.4324  XZZ=             11.9277  YZZ=              1.3607
  YYZ=             -2.7620  XYZ=              0.1322
 Hexadecapole moment (field-independent basis, Debye-Ang**3):
 XXXX=          -1545.3242 YYYY=           -576.4984 ZZZZ=           -341.6677 XXXY=            -20.9940
 XXXZ=            -64.5350 YYYX=            -24.0917 YYYZ=             -5.4779 ZZZX=            -13.3114
 ZZZY=            -20.5358 XXYY=           -335.5946 XXZZ=           -285.5651 YYZZ=           -147.7185
 XXYZ=             -2.2350 YYXZ=             -4.9281 ZZXY=              4.3946
 N-N= 6.291673377310D+02 E-N=-3.435463359273D+03  KE= 9.184430609761D+02
  Exact polarizability:   0.000   0.000   0.000   0.000   0.000   0.000
 Approx polarizability: 108.320   1.570  99.128  -2.984  -0.759  99.778
 PrsmSu:  requested number of processors reduced to:   4 ShMem   1 Linda.
 PrsmSu:  requested number of processors reduced to:   4 ShMem   1 Linda.
   1 Symmetry operations used in ECPInt.
 ECPInt:  NShTT=   11781 NPrTT=   35496 LenC2=   11360 LenP2D=   26372.
 LDataN:  DoStor=T MaxTD1= 8 Len=  415
 Calling FoFJK, ICntrl=    100147 FMM=F ISym2X=0 I1Cent= 0 IOpClX= 0 NMat=1 NMatS=1 NMatT=0.
 CoulSu:  requested number of processors reduced to:   4 ShMem   1 Linda.
 ***** Axes restored to original set *****
 -------------------------------------------------------------------
 Center     Atomic                   Forces (Hartrees/Bohr)
 Number     Number              X              Y              Z
 -------------------------------------------------------------------
      1        1           0.006126201    0.005080742    0.007333930
      2        6          -0.016202475    0.013115118    0.005096592
      3        1           0.000664493   -0.006017047   -0.006880917
      4        1           0.001112278   -0.007605945    0.002045232
      5        1           0.007677210   -0.001152671   -0.002427139
      6        6           0.031021486   -0.023350214   -0.005520482
      7        8          -0.020025835    0.007328378   -0.005825658
      8        8          -0.029067996    0.019763868   -0.000950388
      9        1          -0.009936863   -0.029086794    0.021083094
     10        6           0.006191612    0.014744445   -0.004310320
     11        1           0.000421131    0.003791524    0.004414347
     12        1          -0.004506619   -0.001290502   -0.002650637
     13        1           0.003215449   -0.005800880    0.000424750
     14        8           0.000129088   -0.016149599    0.008713032
     15        1           0.015361642    0.015568048   -0.027778416
     16        8           0.018646318    0.006688072   -0.016242891
     17        1          -0.011155768    0.003174229    0.020746718
     18       17          -0.008095985   -0.002800200   -0.004106637
     19        6           0.002164131    0.006304512    0.006908914
     20        1          -0.003663093   -0.003333068    0.001845038
     21        1          -0.000109411    0.002018029   -0.005772962
     22        1           0.010033004   -0.000990044    0.003854799
 -------------------------------------------------------------------
 Cartesian Forces:  Max     0.031021486 RMS     0.011675684
 FormGI is forming the generalized inverse of G from B-inverse, IUseBI=4.

 GradGradGradGradGradGradGradGradGradGradGradGradGradGradGradGradGradGrad
 Berny optimization.
 Internal  Forces:  Max     0.030430925 RMS     0.007235162
 Search for a saddle point.
 Step number   1 out of a maximum of   50
 All quantities printed in internal units (Hartrees-Bohrs-Radians)
 Swapping is turned off.
 Second derivative matrix not updated -- analytic derivatives used.
 ITU=  0
     Eigenvalues ---   -0.04382  -0.00756  -0.00145   0.00050   0.00105
     Eigenvalues ---    0.00136   0.00198   0.00273   0.00653   0.00994
     Eigenvalues ---    0.01171   0.01436   0.01817   0.03579   0.04087
     Eigenvalues ---    0.04307   0.04380   0.04912   0.05229   0.05816
     Eigenvalues ---    0.06117   0.06237   0.06251   0.06370   0.06899
     Eigenvalues ---    0.07525   0.08951   0.10421   0.11241   0.11699
     Eigenvalues ---    0.11853   0.12295   0.13431   0.13582   0.14286
     Eigenvalues ---    0.14447   0.16867   0.17929   0.18254   0.18592
     Eigenvalues ---    0.18817   0.19133   0.19587   0.22537   0.24163
     Eigenvalues ---    0.28804   0.32099   0.32544   0.32753   0.32829
     Eigenvalues ---    0.33330   0.33384   0.33537   0.33811   0.33829
     Eigenvalues ---    0.34083   0.35545   0.35890   0.44990   0.65684
 Eigenvectors required to have negative eigenvalues:
                          R18       R13       R11       R10       R8
   1                    0.56751  -0.50045  -0.42271   0.36145  -0.15973
                          R9        A18       A28       D5        D8
   1                    0.15334   0.11629  -0.11615   0.06628   0.06358
 RFO step:  Lambda0=1.375707971D-04 Lambda=-3.32758666D-02.
 Linear search not attempted -- option 19 set.
 Maximum step size (   0.300) exceeded in Quadratic search.
    -- Step size scaled by   0.276
 Iteration  1 RMS(Cart)=  0.03550445 RMS(Int)=  0.00338257
 Iteration  2 RMS(Cart)=  0.00387142 RMS(Int)=  0.00011027
 Iteration  3 RMS(Cart)=  0.00008672 RMS(Int)=  0.00008116
 Iteration  4 RMS(Cart)=  0.00000004 RMS(Int)=  0.00008116
 Variable       Old X    -DE/DX   Delta X   Delta X   Delta X     New X
                                 (Linear)    (Quad)   (Total)
    R1        3.03453   0.00122   0.00000  -0.19739  -0.19739   2.83713
    R2        2.53520   0.00590   0.00000   0.05220   0.05220   2.58740
    R3        2.07960  -0.00822   0.00000  -0.00597  -0.00597   2.07363
    R4        2.07685  -0.00644   0.00000  -0.00493  -0.00493   2.07192
    R5        2.08316  -0.00741   0.00000  -0.00648  -0.00648   2.07668
    R6        2.83266   0.00197   0.00000   0.00602   0.00602   2.83868
    R7        2.39008   0.00005   0.00000   0.02002   0.02002   2.41010
    R8        2.91525  -0.00209   0.00000  -0.03501  -0.03489   2.88037
    R9        2.90259  -0.00172   0.00000  -0.03362  -0.03351   2.86908
   R10        2.21513  -0.03043   0.00000  -0.07869  -0.07880   2.13633
   R11        2.24355  -0.02976   0.00000  -0.09147  -0.09159   2.15196
   R12        2.76262  -0.00900   0.00000  -0.00137  -0.00137   2.76126
   R13        2.62406  -0.00386   0.00000   0.05149   0.05145   2.67552
   R14        2.07233  -0.00572   0.00000  -0.00322  -0.00322   2.06912
   R15        2.06632  -0.00385   0.00000  -0.00262  -0.00262   2.06370
   R16        2.07267  -0.00549   0.00000  -0.00304  -0.00304   2.06963
   R17        2.74864  -0.01171   0.00000  -0.01224  -0.01224   2.73640
   R18        2.60016  -0.01049   0.00000   0.05742   0.05738   2.65754
   R19        1.86910  -0.02124   0.00000  -0.01186  -0.01186   1.85724
   R20        2.06697  -0.00401   0.00000  -0.00404  -0.00404   2.06293
   R21        2.06862  -0.00481   0.00000  -0.00465  -0.00465   2.06397
   R22        2.08762  -0.01080   0.00000  -0.00794  -0.00794   2.07968
    A1        2.69229   0.01884   0.00000   0.13669   0.13669   2.82898
    A2        1.87488   0.00447   0.00000   0.00814   0.00810   1.88298
    A3        1.88651   0.00417   0.00000   0.00978   0.00978   1.89629
    A4        1.94977  -0.00348   0.00000  -0.00661  -0.00663   1.94314
    A5        1.87639   0.00323   0.00000   0.00312   0.00308   1.87947
    A6        1.94091  -0.00475   0.00000  -0.00993  -0.00996   1.93095
    A7        1.93243  -0.00296   0.00000  -0.00332  -0.00334   1.92909
    A8        2.19876  -0.01553   0.00000  -0.03178  -0.03170   2.16707
    A9        1.86146   0.00096   0.00000   0.00933   0.00910   1.87055
   A10        1.86135   0.00121   0.00000   0.00941   0.00918   1.87054
   A11        1.92624   0.01104   0.00000   0.00697   0.00692   1.93316
   A12        1.87051   0.01035   0.00000   0.00428   0.00419   1.87470
   A13        1.67213  -0.00603   0.00000   0.01400   0.01404   1.68617
   A14        2.05141   0.00207   0.00000  -0.02160  -0.02160   2.02981
   A15        1.56033  -0.00577   0.00000   0.00333   0.00314   1.56347
   A16        1.88436   0.00559   0.00000   0.00803   0.00800   1.89236
   A17        1.87486   0.00659   0.00000   0.01191   0.01188   1.88674
   A18        2.57223   0.01181   0.00000   0.01472   0.01464   2.58687
   A19        1.96465  -0.00283   0.00000  -0.00619  -0.00620   1.95845
   A20        1.92263  -0.00263   0.00000  -0.00597  -0.00599   1.91664
   A21        1.92381  -0.00023   0.00000   0.00258   0.00257   1.92638
   A22        1.93722  -0.00343   0.00000  -0.00580  -0.00584   1.93137
   A23        1.82596   0.00483   0.00000   0.00709   0.00706   1.83302
   A24        1.88594   0.00502   0.00000   0.00975   0.00972   1.89566
   A25        1.96169   0.00024   0.00000  -0.00018  -0.00014   1.96155
   A26        1.88952  -0.00460   0.00000  -0.01743  -0.01732   1.87220
   A27        1.85641   0.00668   0.00000   0.02591   0.02584   1.88225
   A28        2.55629   0.01051   0.00000   0.01083   0.01077   2.56705
   A29        1.90585  -0.00853   0.00000  -0.02278  -0.02257   1.88328
   A30        1.86777  -0.00926   0.00000  -0.02010  -0.02000   1.84777
   A31        1.74418   0.00975   0.00000   0.02382   0.02350   1.76768
   A32        1.85677   0.00428   0.00000   0.00175   0.00175   1.85852
   A33        1.84840   0.00500   0.00000   0.00361   0.00361   1.85200
   A34        1.92238  -0.00137   0.00000  -0.00628  -0.00627   1.91611
   A35        1.93344  -0.00391   0.00000  -0.00246  -0.00247   1.93098
   A36        1.95252  -0.00177   0.00000   0.00103   0.00103   1.95356
   A37        1.94537  -0.00158   0.00000   0.00233   0.00234   1.94771
    D1       -0.60465   0.00059   0.00000   0.12593   0.12593  -0.47872
    D2        2.90857   0.00077   0.00000   0.00900   0.00900   2.91757
    D3        0.60887  -0.00203   0.00000   0.01948   0.01953   0.62840
    D4       -1.16293   0.00384   0.00000  -0.00287  -0.00295  -1.16588
    D5       -1.27999   0.00084   0.00000   0.00808   0.00809  -1.27189
    D6        2.70350  -0.00196   0.00000   0.01856   0.01862   2.72212
    D7        0.93170   0.00392   0.00000  -0.00379  -0.00386   0.92784
    D8        0.80496  -0.00016   0.00000   0.00332   0.00334   0.80830
    D9       -1.49474  -0.00296   0.00000   0.01380   0.01386  -1.48088
   D10        3.01664   0.00292   0.00000  -0.00856  -0.00861   3.00803
   D11       -0.66207   0.00345   0.00000  -0.00191  -0.00189  -0.66396
   D12        1.61272   0.00190   0.00000  -0.01268  -0.01276   1.59996
   D13       -2.87001   0.00418   0.00000   0.00805   0.00810  -2.86191
   D14        1.53155  -0.00456   0.00000  -0.03432  -0.03437   1.49718
   D15       -2.70637   0.00087   0.00000  -0.01362  -0.01374  -2.72010
   D16       -0.91052   0.00627   0.00000  -0.00486  -0.00477  -0.91529
   D17        1.13475   0.01171   0.00000   0.01584   0.01587   1.15061
   D18       -2.84349  -0.00520   0.00000  -0.01738  -0.01742  -2.86090
   D19       -0.79822   0.00024   0.00000   0.00332   0.00322  -0.79500
   D20        2.59961   0.00109   0.00000   0.01886   0.01887   2.61848
   D21       -1.81061   0.00431   0.00000   0.02706   0.02723  -1.78338
   D22       -1.28826  -0.01018   0.00000  -0.01189  -0.01199  -1.30025
   D23        0.58470  -0.00695   0.00000  -0.00369  -0.00363   0.58107
   D24        0.69137   0.00193   0.00000   0.00199   0.00199   0.69336
   D25        2.56434   0.00515   0.00000   0.01019   0.01035   2.57469
   D26       -0.44179   0.00014   0.00000   0.00750   0.00758  -0.43421
   D27        1.44564   0.00567   0.00000   0.02196   0.02202   1.46767
   D28        0.18377   0.00071   0.00000  -0.00513  -0.00516   0.17860
   D29       -1.71277  -0.00390   0.00000  -0.01580  -0.01586  -1.72863
   D30        1.25409   0.00102   0.00000  -0.00885  -0.00882   1.24527
   D31       -2.97096   0.00100   0.00000  -0.00910  -0.00906  -2.98002
   D32       -0.86526   0.00133   0.00000  -0.00760  -0.00757  -0.87282
   D33        2.91523  -0.00111   0.00000   0.00182   0.00178   2.91701
   D34       -1.30982  -0.00113   0.00000   0.00157   0.00154  -1.30828
   D35        0.79588  -0.00080   0.00000   0.00307   0.00303   0.79891
   D36       -0.05444  -0.00413   0.00000  -0.00436  -0.00440  -0.05884
   D37       -2.01024   0.00460   0.00000   0.01481   0.01505  -1.99519
   D38        1.01364  -0.00054   0.00000  -0.00048  -0.00040   1.01324
   D39       -1.05125   0.00074   0.00000   0.00459   0.00451  -1.04674
   D40        3.12984  -0.00119   0.00000  -0.00230  -0.00224   3.12760
   D41        1.06495   0.00009   0.00000   0.00276   0.00267   1.06762
   D42       -1.08818  -0.00030   0.00000  -0.00076  -0.00067  -1.08885
   D43        3.13012   0.00097   0.00000   0.00430   0.00424   3.13436
   D44        0.46196  -0.00024   0.00000  -0.00188  -0.00185   0.46010
   D45        2.57382   0.00131   0.00000   0.00303   0.00288   2.57670
         Item               Value     Threshold  Converged?
 Maximum Force            0.030431     0.000450     NO 
 RMS     Force            0.007235     0.000300     NO 
 Maximum Displacement     0.162482     0.001800     NO 
 RMS     Displacement     0.036559     0.001200     NO 
 Predicted change in Energy=-1.025799D-02
 GradGradGradGradGradGradGradGradGradGradGradGradGradGradGradGradGradGrad

                          Input orientation:                          
 ---------------------------------------------------------------------
 Center     Atomic      Atomic             Coordinates (Angstroms)
 Number     Number       Type             X           Y           Z
 ---------------------------------------------------------------------
      1          1           0       -1.692720   -0.492998   -0.901589
      2          6           0       -0.771326    2.064291    0.139579
      3          1           0       -0.382817    2.626540    0.998090
      4          1           0       -0.809417    2.744773   -0.719262
      5          1           0       -1.800474    1.749708    0.362171
      6          6           0        0.089225    0.871953   -0.167477
      7          8           0       -0.251722   -0.074556   -0.951340
      8          8           0        2.683201   -0.513471    0.234902
      9          1           0        2.422301    0.455004   -0.286652
     10          6           0       -0.358850   -0.602303    1.763122
     11          1           0       -0.561127   -1.436433    1.083283
     12          1           0        0.116395   -0.930937    2.689808
     13          1           0       -1.287971   -0.062803    1.975578
     14          8           0        0.583968    0.319096    1.164002
     15          1           0        1.772664   -0.387071    0.907014
     16          8           0        1.430054    1.398415   -0.647167
     17          1           0        1.421439    1.304059   -1.625399
     18         17           0       -2.966635   -0.727741   -0.458059
     19          6           0        2.419320   -1.618487   -0.684006
     20          1           0        3.189727   -1.570189   -1.455918
     21          1           0        2.520874   -2.532946   -0.095481
     22          1           0        1.407839   -1.518618   -1.105989
 ---------------------------------------------------------------------
                    Distance matrix (angstroms):
                    1          2          3          4          5
     1  H    0.000000
     2  C    2.910794   0.000000
     3  H    3.880225   1.097317   0.000000
     4  H    3.361045   1.096411   1.773490   0.000000
     5  H    2.576515   1.098933   1.784090   1.772525   0.000000
     6  C    2.361639   1.502166   2.158691   2.149297   2.149871
     7  O    1.501347   2.456575   3.333674   2.883314   2.729814
     8  O    4.521141   4.311345   4.454502   4.870827   5.024093
     9  H    4.267348   3.601491   3.772906   3.984243   4.464198
    10  C    2.981919   3.149087   3.318324   4.191439   3.094010
    11  H    2.471900   3.631780   4.067776   4.559967   3.493921
    12  H    4.045099   4.032754   3.970738   5.098012   4.034617
    13  H    2.937173   2.856981   3.001225   3.920926   2.480109
    14  O    3.179540   2.435564   2.507289   3.372257   2.893985
    15  H    3.910391   3.615248   3.706244   4.372684   4.198809
    16  O    3.659766   2.430727   2.738916   2.614021   3.402717
    17  H    3.667601   2.915702   3.447751   2.805968   3.811792
    18  Cl   1.369191   3.601666   4.477465   4.096361   2.858403
    19  C    4.268834   4.941799   5.357394   5.428077   5.499626
    20  H    5.030498   5.607584   6.033055   5.929140   6.263327
    21  H    4.750323   5.659365   6.020599   6.271702   6.101198
    22  H    3.272177   4.374635   4.981559   4.821025   4.809441
                    6          7          8          9         10
     6  C    0.000000
     7  O    1.275368   0.000000
     8  O    2.968167   3.195871   0.000000
     9  H    2.373035   2.805824   1.130500   0.000000
    10  C    2.470104   2.767362   3.405499   3.613070   0.000000
    11  H    2.704811   2.467819   3.478114   3.788813   1.094930
    12  H    3.378643   3.758571   3.576218   4.012151   1.092065
    13  H    2.713508   3.104964   4.359274   4.376292   1.095201
    14  O    1.524224   2.308249   2.441961   2.345707   1.448042
    15  H    2.360856   2.765734   1.138766   1.598736   2.307076
    16  O    1.518251   2.256222   2.450251   1.415822   3.607290
    17  H    2.021644   2.270331   2.890705   1.874797   4.276180
    18  Cl   3.461465   2.835618   5.696205   5.519865   3.427816
    19  C    3.449411   3.096717   1.461194   2.111223   3.839179
    20  H    4.151776   3.786171   2.057205   2.461205   4.887885
    21  H    4.184666   3.803086   2.052750   2.995681   3.933776
    22  H    2.886932   2.205306   2.105910   2.365508   3.491793
                   11         12         13         14         15
    11  H    0.000000
    12  H    1.815347   0.000000
    13  H    1.792025   1.798895   0.000000
    14  O    2.097532   2.027138   2.075731   0.000000
    15  H    2.564920   2.493466   3.257986   1.406312   0.000000
    16  O    3.872418   4.276328   4.049891   2.271811   2.391824
    17  H    4.333338   5.031834   4.709167   3.074454   3.065353
    18  Cl   2.943543   4.410831   3.030288   4.041501   4.943728
    19  C    3.469801   4.142320   4.820535   3.246210   2.113267
    20  H    4.531483   5.200102   5.839277   4.150103   2.998546
    21  H    3.477147   4.013202   4.989809   3.670428   2.483866
    22  H    2.945588   4.052316   4.345439   3.034603   2.337879
                   16         17         18         19         20
    16  O    0.000000
    17  H    0.982809   0.000000
    18  Cl   4.887451   4.974544   0.000000
    19  C    3.175170   3.228508   5.463790   0.000000
    20  H    3.544451   3.378885   6.293349   1.091653   0.000000
    21  H    4.117019   4.274577   5.788176   1.092204   1.795843
    22  H    2.952980   2.870100   4.492363   1.100517   1.816655
                   21         22
    21  H    0.000000
    22  H    1.813514   0.000000
 Stoichiometry    C4H13ClO4
 Framework group  C1[X(C4H13ClO4)]
 Deg. of freedom    60
 Full point group                 C1      NOp   1
 Largest Abelian subgroup         C1      NOp   1
 Largest concise Abelian subgroup C1      NOp   1
                         Standard orientation:                         
 ---------------------------------------------------------------------
 Center     Atomic      Atomic             Coordinates (Angstroms)
 Number     Number       Type             X           Y           Z
 ---------------------------------------------------------------------
      1          1           0       -1.693654   -0.566183   -0.839984
      2          6           0       -0.806850    2.042234    0.099409
      3          1           0       -0.415350    2.640492    0.931827
      4          1           0       -0.873278    2.692666   -0.780728
      5          1           0       -1.825485    1.715058    0.350391
      6          6           0        0.072399    0.857475   -0.183026
      7          8           0       -0.262493   -0.121312   -0.928940
      8          8           0        2.700398   -0.462266    0.219371
      9          1           0        2.411104    0.482851   -0.329348
     10          6           0       -0.312912   -0.559795    1.802998
     11          1           0       -0.509702   -1.420068    1.154867
     12          1           0        0.184527   -0.847751    2.731568
     13          1           0       -1.249060   -0.031903    2.013762
     14          8           0        0.600734    0.359417    1.157146
     15          1           0        1.798994   -0.331390    0.902841
     16          8           0        1.393953    1.393901   -0.703438
     17          1           0        1.370692    1.266660   -1.677699
     18         17           0       -2.954850   -0.811003   -0.366559
     19          6           0        2.443475   -1.602448   -0.657591
     20          1           0        3.199562   -1.564866   -1.444119
     21          1           0        2.573516   -2.494488   -0.040936
     22          1           0        1.423175   -1.536742   -1.064787
 ---------------------------------------------------------------------
 Rotational constants (GHZ):      1.6779319      0.7265219      0.6596636
 Standard basis: def2TZVP (5D, 7F)
 There are   408 symmetry adapted cartesian basis functions of A   symmetry.
 There are   363 symmetry adapted basis functions of A   symmetry.
   363 basis functions,   581 primitive gaussians,   408 cartesian basis functions
    43 alpha electrons       43 beta electrons
       nuclear repulsion energy       631.0763328468 Hartrees.
 NAtoms=   22 NActive=   22 NUniq=   22 SFac= 1.00D+00 NAtFMM=   60 NAOKFM=F Big=F
 Integral buffers will be    131072 words long.
 Raffenetti 2 integral format.
 Two-electron integral symmetry is turned on.
 One-electron integrals computed using PRISM.
 PrsmSu:  requested number of processors reduced to:   4 ShMem   1 Linda.
   1 Symmetry operations used in ECPInt.
 ECPInt:  NShTT=   11781 NPrTT=   35496 LenC2=   11359 LenP2D=   26385.
 LDataN:  DoStor=T MaxTD1= 6 Len=  172
 NBasis=   363 RedAO= T EigKep=  2.56D-04  NBF=   363
 NBsUse=   363 1.00D-06 EigRej= -1.00D+00 NBFU=   363
 Initial guess from the checkpoint file:  "/lustre/SCRATCH5/gau/mlawal/1127802.sched01/Gau-31410.chk"
 B after Tr=     0.000000    0.000000    0.000000
         Rot=    0.999893    0.012574   -0.003731   -0.006544 Ang=   1.68 deg.
 ExpMin= 9.52D-02 ExpMax= 6.95D+04 ExpMxC= 2.37D+03 IAcc=2 IRadAn=         4 AccDes= 0.00D+00
 Harris functional with IExCor= 1009 and IRadAn=       4 diagonalized for initial guess.
 HarFok:  IExCor= 1009 AccDes= 0.00D+00 IRadAn=         4 IDoV= 1 UseB2=F ITyADJ=14
 ICtDFT=  3500011 ScaDFX=  1.000000  1.000000  1.000000  1.000000
 FoFCou: FMM=F IPFlag=           0 FMFlag=      100000 FMFlg1=           0
         NFxFlg=           0 DoJE=T BraDBF=F KetDBF=T FulRan=T
         wScrn=  0.000000 ICntrl=     500 IOpCl=  0 I1Cent=   200000004 NGrid=           0
         NMat0=    1 NMatS0=      1 NMatT0=    0 NMatD0=    1 NMtDS0=    0 NMtDT0=    0
 Petite list used in FoFCou.
 Requested convergence on RMS density matrix=1.00D-08 within 128 cycles.
 Requested convergence on MAX density matrix=1.00D-06.
 Requested convergence on             energy=1.00D-06.
 No special actions if energy rises.
 Integral accuracy reduced to 1.0D-05 until final iterations.
 Initial convergence to 1.0D-05 achieved.  Increase integral accuracy.
 SCF Done:  E(RM062X) =  -921.290992090     A.U. after   14 cycles
            NFock= 14  Conv=0.40D-08     -V/T= 2.0030
 PrsmSu:  requested number of processors reduced to:   4 ShMem   1 Linda.
   1 Symmetry operations used in ECPInt.
 ECPInt:  NShTT=   11781 NPrTT=   35496 LenC2=   11359 LenP2D=   26385.
 LDataN:  DoStor=T MaxTD1= 7 Len=  274
 Calling FoFJK, ICntrl=      2127 FMM=F ISym2X=0 I1Cent= 0 IOpClX= 0 NMat=1 NMatS=1 NMatT=0.
 ***** Axes restored to original set *****
 -------------------------------------------------------------------
 Center     Atomic                   Forces (Hartrees/Bohr)
 Number     Number              X              Y              Z
 -------------------------------------------------------------------
      1        1           0.007335302    0.006226931    0.005281962
      2        6          -0.013062610    0.009563573    0.003660046
      3        1           0.000748847   -0.004466710   -0.005278553
      4        1           0.000814228   -0.005822485    0.001453647
      5        1           0.005833270   -0.000715500   -0.001840124
      6        6           0.025563470   -0.017380896   -0.003163829
      7        8          -0.017161132    0.004099157   -0.005343388
      8        8          -0.021331978    0.014973791   -0.000014452
      9        1          -0.006869798   -0.023142863    0.015511684
     10        6           0.004751624    0.011735660   -0.003087302
     11        1           0.000233841    0.002742860    0.003317805
     12        1          -0.003526531   -0.001017410   -0.001968774
     13        1           0.002254744   -0.004490036    0.000298152
     14        8          -0.001414432   -0.012415836    0.006647797
     15        1           0.011693122    0.011497131   -0.021291425
     16        8           0.013136065    0.005850668   -0.012362274
     17        1          -0.008446856    0.002964042    0.015495322
     18       17          -0.007182071   -0.003161416   -0.002490555
     19        6           0.001908856    0.004636753    0.005221883
     20        1          -0.002685944   -0.002567646    0.001417654
     21        1          -0.000040140    0.001461719   -0.004300656
     22        1           0.007448122   -0.000571488    0.002835380
 -------------------------------------------------------------------
 Cartesian Forces:  Max     0.025563470 RMS     0.009029489

 GradGradGradGradGradGradGradGradGradGradGradGradGradGradGradGradGradGrad
 Berny optimization.
 FormGI is forming the generalized inverse of G from B-inverse, IUseBI=4.
 Internal  Forces:  Max     0.022780082 RMS     0.005460576
 Search for a saddle point.
 Step number   2 out of a maximum of   50
 All quantities printed in internal units (Hartrees-Bohrs-Radians)
 Swapping is turned off.
 Update second derivatives using D2CorX and points    1    2
 ITU=  0  0
     Eigenvalues ---   -0.04375  -0.00412  -0.00116   0.00050   0.00111
     Eigenvalues ---    0.00136   0.00197   0.00273   0.00666   0.00993
     Eigenvalues ---    0.01183   0.01454   0.01817   0.03587   0.04086
     Eigenvalues ---    0.04306   0.04379   0.04936   0.05453   0.05815
     Eigenvalues ---    0.06117   0.06241   0.06251   0.06370   0.06900
     Eigenvalues ---    0.07525   0.08998   0.10429   0.11296   0.11716
     Eigenvalues ---    0.11872   0.12326   0.13431   0.13576   0.14300
     Eigenvalues ---    0.14445   0.16945   0.17976   0.18252   0.18600
     Eigenvalues ---    0.18817   0.19145   0.19617   0.22742   0.24235
     Eigenvalues ---    0.28804   0.32098   0.32543   0.32753   0.32829
     Eigenvalues ---    0.33329   0.33384   0.33537   0.33811   0.33829
     Eigenvalues ---    0.34086   0.35545   0.35894   0.44992   0.65695
 Eigenvectors required to have negative eigenvalues:
                          R18       R13       R11       R10       R8
   1                   -0.56270   0.50334   0.41939  -0.36610   0.15847
                          R9        A18       A28       D5        D8
   1                   -0.15584  -0.11815   0.11756  -0.06554  -0.06300
 RFO step:  Lambda0=1.323344989D-04 Lambda=-2.18290315D-02.
 Linear search not attempted -- option 19 set.
 Maximum step size (   0.300) exceeded in Quadratic search.
    -- Step size scaled by   0.266
 Iteration  1 RMS(Cart)=  0.03192570 RMS(Int)=  0.00266358
 Iteration  2 RMS(Cart)=  0.00389382 RMS(Int)=  0.00007061
 Iteration  3 RMS(Cart)=  0.00000580 RMS(Int)=  0.00007059
 Iteration  4 RMS(Cart)=  0.00000000 RMS(Int)=  0.00007059
 Variable       Old X    -DE/DX   Delta X   Delta X   Delta X     New X
                                 (Linear)    (Quad)   (Total)
    R1        2.83713  -0.00092   0.00000  -0.22299  -0.22299   2.61414
    R2        2.58740   0.00641   0.00000   0.06591   0.06591   2.65331
    R3        2.07363  -0.00617   0.00000  -0.00434  -0.00434   2.06929
    R4        2.07192  -0.00478   0.00000  -0.00350  -0.00350   2.06841
    R5        2.07668  -0.00562   0.00000  -0.00493  -0.00493   2.07175
    R6        2.83868   0.00169   0.00000   0.00528   0.00528   2.84397
    R7        2.41010   0.00084   0.00000   0.02358   0.02358   2.43367
    R8        2.88037  -0.00171   0.00000  -0.04033  -0.04022   2.84014
    R9        2.86908  -0.00125   0.00000  -0.03243  -0.03236   2.83672
   R10        2.13633  -0.02278   0.00000  -0.06018  -0.06027   2.07606
   R11        2.15196  -0.02211   0.00000  -0.07510  -0.07518   2.07678
   R12        2.76126  -0.00676   0.00000   0.00043   0.00043   2.76168
   R13        2.67552  -0.00152   0.00000   0.05145   0.05141   2.72692
   R14        2.06912  -0.00419   0.00000  -0.00253  -0.00253   2.06659
   R15        2.06370  -0.00290   0.00000  -0.00209  -0.00209   2.06161
   R16        2.06963  -0.00406   0.00000  -0.00249  -0.00249   2.06714
   R17        2.73640  -0.00871   0.00000  -0.00836  -0.00836   2.72804
   R18        2.65754  -0.00692   0.00000   0.06162   0.06160   2.71914
   R19        1.85724  -0.01564   0.00000  -0.00842  -0.00842   1.84883
   R20        2.06293  -0.00301   0.00000  -0.00329  -0.00329   2.05964
   R21        2.06397  -0.00354   0.00000  -0.00344  -0.00344   2.06052
   R22        2.07968  -0.00800   0.00000  -0.00564  -0.00564   2.07404
    A1        2.82898   0.01339   0.00000   0.11096   0.11096   2.93994
    A2        1.88298   0.00345   0.00000   0.00607   0.00605   1.88903
    A3        1.89629   0.00326   0.00000   0.00815   0.00815   1.90444
    A4        1.94314  -0.00271   0.00000  -0.00470  -0.00472   1.93842
    A5        1.87947   0.00240   0.00000   0.00193   0.00191   1.88138
    A6        1.93095  -0.00383   0.00000  -0.00867  -0.00869   1.92226
    A7        1.92909  -0.00216   0.00000  -0.00211  -0.00212   1.92697
    A8        2.16707  -0.01217   0.00000  -0.03285  -0.03278   2.13429
    A9        1.87055   0.00075   0.00000   0.01111   0.01090   1.88146
   A10        1.87054   0.00094   0.00000   0.01005   0.00976   1.88030
[...]
    19  C    3.235491   3.330697   6.044709   0.000000
    20  H    3.477656   3.287000   6.385969   1.087890   0.000000
    21  H    4.254502   4.414357   6.701002   1.090338   1.771473
    22  H    3.012674   3.091259   4.985118   1.092755   1.775163
                   21         22
    21  H    0.000000
    22  H    1.790760   0.000000
 Stoichiometry    C4H13ClO4
 Framework group  C1[X(C4H13ClO4)]
 Deg. of freedom    60
 Full point group                 C1      NOp   1
 Largest Abelian subgroup         C1      NOp   1
 Largest concise Abelian subgroup C1      NOp   1
                         Standard orientation:                         
 ---------------------------------------------------------------------
 Center     Atomic      Atomic             Coordinates (Angstroms)
 Number     Number       Type             X           Y           Z
 ---------------------------------------------------------------------
      1          1           0       -1.934571   -0.359348   -0.738096
      2          6           0       -0.950842    1.805379    0.626712
      3          1           0       -0.361681    2.426520    1.294093
      4          1           0       -1.324354    2.382119   -0.216099
      5          1           0       -1.810709    1.394228    1.162047
      6          6           0       -0.151069    0.633670    0.141370
      7          8           0       -0.542337   -0.094554   -0.773721
      8          8           0        3.228437   -0.109407   -0.177539
      9          1           0        2.049354    1.002505   -0.384309
     10          6           0        0.047806   -1.172252    1.606018
     11          1           0       -0.008499   -1.912163    0.807754
     12          1           0        0.691870   -1.526703    2.406884
     13          1           0       -0.957919   -0.995398    1.995004
     14          8           0        0.628086    0.045837    1.134733
     15          1           0        3.066191   -0.209452    0.770610
     16          8           0        1.284496    1.593802   -0.582674
     17          1           0        1.102743    1.529731   -1.529173
     18         17           0       -3.254382   -0.611432   -0.504822
     19          6           0        2.744043   -1.283096   -0.830831
     20          1           0        2.954985   -1.161469   -1.891121
     21          1           0        3.262454   -2.171224   -0.468457
     22          1           0        1.665543   -1.392634   -0.693162
 ---------------------------------------------------------------------
 Rotational constants (GHZ):      1.8279313      0.6059528      0.5681478

 **********************************************************************

            Population analysis using the SCF density.

 **********************************************************************

 Orbital symmetries:
       Occupied  (A) (A) (A) (A) (A) (A) (A) (A) (A) (A) (A) (A)
                 (A) (A) (A) (A) (A) (A) (A) (A) (A) (A) (A) (A)
                 (A) (A) (A) (A) (A) (A) (A) (A) (A) (A) (A) (A)
                 (A) (A) (A) (A) (A) (A) (A)
       Virtual   (A) (A) (A) (A) (A) (A) (A) (A) (A) (A) (A) (A)
                 (A) (A) (A) (A) (A) (A) (A) (A) (A) (A) (A) (A)
                 (A) (A) (A) (A) (A) (A) (A) (A) (A) (A) (A) (A)
                 (A) (A) (A) (A) (A) (A) (A) (A) (A) (A) (A) (A)
                 (A) (A) (A) (A) (A) (A) (A) (A) (A) (A) (A) (A)
                 (A) (A) (A) (A) (A) (A) (A) (A) (A) (A) (A) (A)
                 (A) (A) (A) (A) (A) (A) (A) (A) (A) (A) (A) (A)
                 (A) (A) (A) (A) (A) (A) (A) (A) (A) (A) (A) (A)
                 (A) (A) (A) (A) (A) (A) (A) (A) (A) (A) (A) (A)
                 (A) (A) (A) (A) (A) (A) (A) (A) (A) (A) (A) (A)
                 (A) (A) (A) (A) (A) (A) (A) (A) (A) (A) (A) (A)
                 (A) (A) (A) (A) (A) (A) (A) (A) (A) (A) (A) (A)
                 (A) (A) (A) (A) (A) (A) (A) (A) (A) (A) (A) (A)
                 (A) (A) (A) (A) (A) (A) (A) (A) (A) (A) (A) (A)
                 (A) (A) (A) (A) (A) (A) (A) (A) (A) (A) (A) (A)
                 (A) (A) (A) (A) (A) (A) (A) (A) (A) (A) (A) (A)
                 (A) (A) (A) (A) (A) (A) (A) (A) (A) (A) (A) (A)
                 (A) (A) (A) (A) (A) (A) (A) (A) (A) (A) (A) (A)
                 (A) (A) (A) (A) (A) (A) (A) (A) (A) (A) (A) (A)
                 (A) (A) (A) (A) (A) (A) (A) (A) (A) (A) (A) (A)
                 (A) (A) (A) (A) (A) (A) (A) (A) (A) (A) (A) (A)
                 (A) (A) (A) (A) (A) (A) (A) (A) (A) (A) (A) (A)
                 (A) (A) (A) (A) (A) (A) (A) (A) (A) (A) (A) (A)
                 (A) (A) (A) (A) (A) (A) (A) (A) (A) (A) (A) (A)
                 (A) (A) (A) (A) (A) (A) (A) (A) (A) (A) (A) (A)
                 (A) (A) (A) (A) (A) (A) (A) (A) (A) (A) (A) (A)
                 (A) (A) (A) (A) (A) (A) (A) (A)
 The electronic state is 1-A.
 Alpha  occ. eigenvalues -- -102.57524 -19.67269 -19.67046 -19.66228 -19.61988
 Alpha  occ. eigenvalues --  -10.71060 -10.60094 -10.59801 -10.54233  -9.73979
 Alpha  occ. eigenvalues --   -7.46045  -7.45743  -7.45737  -1.24414  -1.19223
 Alpha  occ. eigenvalues --   -1.17254  -1.14641  -0.86982  -0.86432  -0.80770
 Alpha  occ. eigenvalues --   -0.80519  -0.67184  -0.66604  -0.62717  -0.60888
 Alpha  occ. eigenvalues --   -0.59367  -0.58483  -0.55258  -0.53755  -0.52791
 Alpha  occ. eigenvalues --   -0.51676  -0.49292  -0.48039  -0.46557  -0.45303
 Alpha  occ. eigenvalues --   -0.44819  -0.44289  -0.39714  -0.38655  -0.37312
 Alpha  occ. eigenvalues --   -0.35425  -0.33807  -0.33647
 Alpha virt. eigenvalues --    0.03098   0.04402   0.06434   0.07934   0.08789
 Alpha virt. eigenvalues --    0.11280   0.12299   0.13144   0.13445   0.13941
 Alpha virt. eigenvalues --    0.14806   0.15772   0.17387   0.17942   0.18619
 Alpha virt. eigenvalues --    0.20428   0.21256   0.21435   0.23091   0.24922
 Alpha virt. eigenvalues --    0.25304   0.25566   0.28017   0.30076   0.30552
 Alpha virt. eigenvalues --    0.31342   0.32648   0.35232   0.36476   0.36607
 Alpha virt. eigenvalues --    0.38213   0.39403   0.40216   0.40994   0.41606
 Alpha virt. eigenvalues --    0.41872   0.43147   0.43937   0.45792   0.46482
 Alpha virt. eigenvalues --    0.47517   0.47836   0.48419   0.49392   0.49897
 Alpha virt. eigenvalues --    0.50612   0.51216   0.51869   0.53654   0.54163
 Alpha virt. eigenvalues --    0.54773   0.55330   0.56267   0.56853   0.58245
 Alpha virt. eigenvalues --    0.58965   0.59355   0.63150   0.64223   0.65199
 Alpha virt. eigenvalues --    0.66104   0.66817   0.69717   0.71255   0.72224
 Alpha virt. eigenvalues --    0.73913   0.74957   0.77506   0.78399   0.80419
 Alpha virt. eigenvalues --    0.82314   0.82585   0.86523   0.88034   0.90307
 Alpha virt. eigenvalues --    0.91419   0.94392   0.96392   0.98101   0.99037
 Alpha virt. eigenvalues --    1.00025   1.01434   1.02636   1.07019   1.09342
 Alpha virt. eigenvalues --    1.10377   1.12144   1.14216   1.15833   1.19330
 Alpha virt. eigenvalues --    1.23246   1.28960   1.31858   1.34604   1.39973
 Alpha virt. eigenvalues --    1.42005   1.43986   1.44705   1.46036   1.48540
 Alpha virt. eigenvalues --    1.50020   1.51801   1.52773   1.54446   1.54896
 Alpha virt. eigenvalues --    1.56288   1.57411   1.58002   1.58621   1.59319
 Alpha virt. eigenvalues --    1.59983   1.61948   1.63074   1.63395   1.65615
 Alpha virt. eigenvalues --    1.67158   1.70018   1.71753   1.73534   1.73651
 Alpha virt. eigenvalues --    1.76409   1.76961   1.81420   1.83397   1.84412
 Alpha virt. eigenvalues --    1.85278   1.86052   1.86935   1.88482   1.89854
 Alpha virt. eigenvalues --    1.90673   1.93043   1.94106   1.95017   1.97261
 Alpha virt. eigenvalues --    1.98391   1.99882   2.00405   2.03982   2.04973
 Alpha virt. eigenvalues --    2.05770   2.07130   2.08890   2.10276   2.12264
 Alpha virt. eigenvalues --    2.15634   2.16444   2.17129   2.17440   2.18291
 Alpha virt. eigenvalues --    2.19180   2.20654   2.22869   2.24826   2.25673
 Alpha virt. eigenvalues --    2.26431   2.27994   2.28377   2.29400   2.31250
 Alpha virt. eigenvalues --    2.31646   2.33041   2.33858   2.34807   2.36406
 Alpha virt. eigenvalues --    2.37473   2.38359   2.40040   2.41623   2.42756
 Alpha virt. eigenvalues --    2.45858   2.46325   2.48012   2.50380   2.51996
 Alpha virt. eigenvalues --    2.52896   2.53419   2.54040   2.56099   2.56802
 Alpha virt. eigenvalues --    2.57965   2.58837   2.59966   2.61420   2.63153
 Alpha virt. eigenvalues --    2.66199   2.68292   2.70672   2.72982   2.73636
 Alpha virt. eigenvalues --    2.75681   2.79652   2.81872   2.82274   2.84193
 Alpha virt. eigenvalues --    2.89194   2.90710   2.98389   2.99071   3.02529
 Alpha virt. eigenvalues --    3.05183   3.05549   3.07398   3.10171   3.11067
 Alpha virt. eigenvalues --    3.13068   3.14760   3.16002   3.17576   3.17950
 Alpha virt. eigenvalues --    3.20604   3.21935   3.24337   3.24745   3.26008
 Alpha virt. eigenvalues --    3.27646   3.30786   3.32377   3.33568   3.36204
 Alpha virt. eigenvalues --    3.36656   3.40473   3.42528   3.44212   3.45399
 Alpha virt. eigenvalues --    3.49468   3.50151   3.51789   3.52065   3.56020
 Alpha virt. eigenvalues --    3.56714   3.59757   3.64383   3.67734   3.70090
 Alpha virt. eigenvalues --    3.78663   3.80673   3.84219   3.87801   3.92223
 Alpha virt. eigenvalues --    3.93597   3.95647   3.99782   4.02551   4.03777
 Alpha virt. eigenvalues --    4.14925   4.16974   4.19188   4.20457   4.26135
 Alpha virt. eigenvalues --    4.35159   4.39040   4.40479   4.42794   4.45723
 Alpha virt. eigenvalues --    4.49153   4.51304   4.58936   4.79001   4.79656
 Alpha virt. eigenvalues --    5.18714   5.21287   5.22909   5.28928   5.30994
 Alpha virt. eigenvalues --    5.33629   5.35322   5.38217   5.41740   5.43943
 Alpha virt. eigenvalues --    5.46135   5.49367   5.53965   5.60738   5.66395
 Alpha virt. eigenvalues --    5.68141   5.77492   5.78241   5.82771   5.85753
 Alpha virt. eigenvalues --    5.98904   6.05849   6.09541   6.13854   6.22824
 Alpha virt. eigenvalues --    6.27238   6.33915   6.41107   6.46317   6.52754
 Alpha virt. eigenvalues --    6.57188   6.58159   6.62891   6.65242   6.68179
 Alpha virt. eigenvalues --    6.69294   6.75340   6.76179   6.92858   6.95395
 Alpha virt. eigenvalues --    7.00250   7.01960   7.03756   7.06271   7.11875
 Alpha virt. eigenvalues --    7.19392   7.21105   7.32370  10.84955  10.86667
 Alpha virt. eigenvalues --   11.04453  22.40572  22.45926  22.48346  23.23931
 Alpha virt. eigenvalues --   25.11852  43.75656  43.84810  44.21061  44.31322
          Condensed to atoms (all electrons):
               1          2          3          4          5          6
     1  H    0.293135   0.001363   0.000019  -0.000243  -0.003206   0.001536
     2  C    0.001363   5.134415   0.398259   0.417306   0.375864   0.250948
     3  H    0.000019   0.398259   0.514273  -0.020352  -0.019629  -0.039964
     4  H   -0.000243   0.417306  -0.020352   0.501148  -0.019572  -0.049839
     5  H   -0.003206   0.375864  -0.019629  -0.019572   0.496890  -0.003052
     6  C    0.001536   0.250948  -0.039964  -0.049839  -0.003052   4.854519
     7  O    0.054356  -0.081623   0.005833   0.004284  -0.003787   0.454565
     8  O   -0.000009  -0.000611  -0.000023   0.000031   0.000009   0.003964
     9  H    0.000005   0.001117  -0.000259   0.000105   0.000023  -0.008355
    10  C   -0.001346  -0.006833  -0.000064   0.000727  -0.004527  -0.043581
    11  H   -0.000405   0.002087  -0.000068   0.000126   0.000078  -0.017929
    12  H    0.000041  -0.000647  -0.000172   0.000005   0.000016   0.005452
    13  H   -0.000980  -0.008184   0.000205  -0.000486   0.002381   0.024037
    14  O    0.001929  -0.055993   0.003932   0.006362  -0.002482   0.177799
    15  H   -0.000001   0.000008   0.000005  -0.000007  -0.000008  -0.000758
    16  O   -0.000773  -0.057189   0.000575   0.002486   0.003637   0.092904
    17  H    0.000081   0.000225   0.000086  -0.000788  -0.000094  -0.002863
    18  Cl   0.311343  -0.000908   0.001056  -0.002347   0.008848   0.026422
    19  C   -0.000123   0.000964   0.000024  -0.000039  -0.000012   0.017700
    20  H    0.000009  -0.000034  -0.000001  -0.000001   0.000000  -0.000911
    21  H    0.000003   0.000012  -0.000003   0.000000   0.000000  -0.000661
    22  H    0.000038   0.000668  -0.000004  -0.000018  -0.000041   0.002729
               7          8          9         10         11         12
     1  H    0.054356  -0.000009   0.000005  -0.001346  -0.000405   0.000041
     2  C   -0.081623  -0.000611   0.001117  -0.006833   0.002087  -0.000647
     3  H    0.005833  -0.000023  -0.000259  -0.000064  -0.000068  -0.000172
     4  H    0.004284   0.000031   0.000105   0.000727   0.000126   0.000005
     5  H   -0.003787   0.000009   0.000023  -0.004527   0.000078   0.000016
     6  C    0.454565   0.003964  -0.008355  -0.043581  -0.017929   0.005452
     7  O    8.251256  -0.000120   0.003296  -0.004537   0.002486   0.001432
     8  O   -0.000120   8.146251   0.070674   0.002515   0.000072   0.000076
     9  H    0.003296   0.070674   0.271767   0.000247   0.000206  -0.000185
    10  C   -0.004537   0.002515   0.000247   4.913702   0.441689   0.388377
    11  H    0.002486   0.000072   0.000206   0.441689   0.511570  -0.031052
    12  H    0.001432   0.000076  -0.000185   0.388377  -0.031052   0.540477
    13  H   -0.003064  -0.000042  -0.000027   0.399202  -0.036563  -0.018169
    14  O   -0.076418  -0.006156   0.004310   0.187986  -0.044478  -0.030327
    15  H    0.000404   0.295664  -0.009321   0.000026   0.000088  -0.000466
    16  O   -0.068077  -0.064030   0.291012   0.000991   0.000619   0.000071
    17  H    0.005477   0.001777  -0.015980  -0.000371  -0.000022   0.000009
    18  Cl  -0.093000  -0.000001   0.000047  -0.007876   0.002846   0.000284
    19  C   -0.013137   0.166886  -0.013397  -0.009878  -0.004122   0.000823
    20  H    0.000641  -0.033513  -0.003240   0.000354   0.000012  -0.000020
    21  H    0.000485  -0.028006   0.002401   0.000467   0.000421   0.000032
    22  H    0.005845  -0.054170  -0.000355  -0.003959  -0.000874  -0.000922
              13         14         15         16         17         18
     1  H   -0.000980   0.001929  -0.000001  -0.000773   0.000081   0.311343
     2  C   -0.008184  -0.055993   0.000008  -0.057189   0.000225  -0.000908
     3  H    0.000205   0.003932   0.000005   0.000575   0.000086   0.001056
     4  H   -0.000486   0.006362  -0.000007   0.002486  -0.000788  -0.002347
     5  H    0.002381  -0.002482  -0.000008   0.003637  -0.000094   0.008848
     6  C    0.024037   0.177799  -0.000758   0.092904  -0.002863   0.026422
     7  O   -0.003064  -0.076418   0.000404  -0.068077   0.005477  -0.093000
     8  O   -0.000042  -0.006156   0.295664  -0.064030   0.001777  -0.000001
     9  H   -0.000027   0.004310  -0.009321   0.291012  -0.015980   0.000047
    10  C    0.399202   0.187986   0.000026   0.000991  -0.000371  -0.007876
    11  H   -0.036563  -0.044478   0.000088   0.000619  -0.000022   0.002846
    12  H   -0.018169  -0.030327  -0.000466   0.000071   0.000009   0.000284
    13  H    0.514400  -0.037989   0.000086  -0.000161   0.000032   0.005056
    14  O   -0.037989   8.274378   0.007128  -0.052473   0.002094  -0.001784
    15  H    0.000086   0.007128   0.386779   0.002653   0.000085  -0.000001
    16  O   -0.000161  -0.052473   0.002653   8.061625   0.304401  -0.000268
    17  H    0.000032   0.002094   0.000085   0.304401   0.346186   0.000044
    18  Cl   0.005056  -0.001784  -0.000001  -0.000268   0.000044  17.179288
    19  C    0.000336  -0.004684  -0.026319   0.015749   0.001058   0.000049
    20  H    0.000003   0.000484   0.007627  -0.000585   0.000158   0.000001
    21  H   -0.000030  -0.000465  -0.008191  -0.000135   0.000098   0.000000
    22  H    0.000065   0.001229  -0.006057  -0.006389  -0.001042  -0.000227
              19         20         21         22
     1  H   -0.000123   0.000009   0.000003   0.000038
     2  C    0.000964  -0.000034   0.000012   0.000668
     3  H    0.000024  -0.000001  -0.000003  -0.000004
     4  H   -0.000039  -0.000001   0.000000  -0.000018
     5  H   -0.000012   0.000000   0.000000  -0.000041
     6  C    0.017700  -0.000911  -0.000661   0.002729
     7  O   -0.013137   0.000641   0.000485   0.005845
     8  O    0.166886  -0.033513  -0.028006  -0.054170
     9  H   -0.013397  -0.003240   0.002401  -0.000355
    10  C   -0.009878   0.000354   0.000467  -0.003959
    11  H   -0.004122   0.000012   0.000421  -0.000874
    12  H    0.000823  -0.000020   0.000032  -0.000922
    13  H    0.000336   0.000003  -0.000030   0.000065
    14  O   -0.004684   0.000484  -0.000465   0.001229
    15  H   -0.026319   0.007627  -0.008191  -0.006057
    16  O    0.015749  -0.000585  -0.000135  -0.006389
    17  H    0.001058   0.000158   0.000098  -0.001042
    18  Cl   0.000049   0.000001   0.000000  -0.000227
    19  C    4.903722   0.413611   0.407536   0.402116
    20  H    0.413611   0.512444  -0.019509  -0.034337
    21  H    0.407536  -0.019509   0.537113  -0.037075
    22  H    0.402116  -0.034337  -0.037075   0.572403
 Mulliken charges:
               1
     1  H    0.343229
     2  C   -0.371216
     3  H    0.156272
     4  H    0.161113
     5  H    0.168666
     6  C    0.255339
     7  O   -0.446597
     8  O   -0.501238
     9  H    0.405911
    10  C   -0.253309
    11  H    0.173213
    12  H    0.144865
    13  H    0.159893
    14  O   -0.354383
    15  H    0.350577
    16  O   -0.526644
    17  H    0.359347
    18  Cl  -0.428872
    19  C   -0.258860
    20  H    0.156808
    21  H    0.145506
    22  H    0.160379
 Sum of Mulliken charges =   0.00000
 Mulliken charges with hydrogens summed into heavy atoms:
               1
     2  C    0.114835
     6  C    0.255339
     7  O   -0.446597
     8  O   -0.150661
    10  C    0.224662
    14  O   -0.354383
    16  O    0.238614
    18  Cl  -0.085643
    19  C    0.203834
 Electronic spatial extent (au):  <R**2>=           2092.8386
 Charge=              0.0000 electrons
 Dipole moment (field-independent basis, Debye):
    X=              5.1570    Y=              0.0777    Z=              1.3065  Tot=              5.3205
 Quadrupole moment (field-independent basis, Debye-Ang):
   XX=            -77.3817   YY=            -60.9763   ZZ=            -58.8402
   XY=             -8.4971   XZ=             -3.9967   YZ=             -3.6260
 Traceless Quadrupole moment (field-independent basis, Debye-Ang):
   XX=            -11.6490   YY=              4.7564   ZZ=              6.8926
   XY=             -8.4971   XZ=             -3.9967   YZ=             -3.6260
 Octapole moment (field-independent basis, Debye-Ang**2):
  XXX=             54.7170  YYY=              0.5719  ZZZ=             -5.4016  XYY=              8.8036
  XXY=             -1.2970  XXZ=             13.9471  XZZ=             16.9654  YZZ=              2.6915
  YYZ=             -0.8292  XYZ=              0.7208
 Hexadecapole moment (field-independent basis, Debye-Ang**3):
 XXXX=          -1987.8234 YYYY=           -520.6879 ZZZZ=           -336.5946 XXXY=            -51.7680
 XXXZ=             -3.9459 YYYX=            -15.8627 YYYZ=             -6.9091 ZZZX=            -12.8722
 ZZZY=            -22.3710 XXYY=           -376.4939 XXZZ=           -335.0663 YYZZ=           -130.5047
 XXYZ=             -2.7654 YYXZ=             -3.2598 ZZXY=              0.6485
 N-N= 6.111807807424D+02 E-N=-3.399562361383D+03  KE= 9.190132181681D+02


 IT IS BETTER TO THINK YOU ARE HALF DRY THAN TO KNOW YOU
 ARE ALL WET.  -- SNOOPY
 Error termination request processed by link 9999.
 Error termination via Lnk1e in /opt/gridware/applications/gaussian/g09/l9999.exe at Tue Sep 22 15:20:17 2015.
 Job cpu time:       0 days 23 hours  6 minutes 24.2 seconds.
 File lengths (MBytes):  RWF=    240 Int=      0 D2E=      0 Chk=     11 Scr=      1
