 Entering Gaussian System, Link 0=g09
 Input=tsb-3opt.com
 Output=tsb-3opt.log
 Initial command:
 /apps/gaussian/g09/l1.exe "/data/sawal/gaussian/Gau-24480.inp" -scrdir="/data/sawal/gaussian/"
 Entering Link 1 = /apps/gaussian/g09/l1.exe PID=     24481.
  
 Copyright (c) 1988,1990,1992,1993,1995,1998,2003,2009,2013,
            Gaussian, Inc.  All Rights Reserved.
  
 This is part of the Gaussian(R) 09 program.  It is based on
 the Gaussian(R) 03 system (copyright 2003, Gaussian, Inc.),
 the Gaussian(R) 98 system (copyright 1998, Gaussian, Inc.),
 the Gaussian(R) 94 system (copyright 1995, Gaussian, Inc.),
 the Gaussian 92(TM) system (copyright 1992, Gaussian, Inc.),
 the Gaussian 90(TM) system (copyright 1990, Gaussian, Inc.),
 the Gaussian 88(TM) system (copyright 1988, Gaussian, Inc.),
 the Gaussian 86(TM) system (copyright 1986, Carnegie Mellon
 University), and the Gaussian 82(TM) system (copyright 1983,
 Carnegie Mellon University). Gaussian is a federally registered
 trademark of Gaussian, Inc.
  
 This software contains proprietary and confidential information,
 including trade secrets, belonging to Gaussian, Inc.
  
 This software is provided under written license and may be
 used, copied, transmitted, or stored only in accord with that
 written license.
  
 The following legend is applicable only to US Government
 contracts under FAR:
  
                    RESTRICTED RIGHTS LEGEND
  
 Use, reproduction and disclosure by the US Government is
 subject to restrictions as set forth in subparagraphs (a)
 and (c) of the Commercial Computer Software - Restricted
 Rights clause in FAR 52.227-19.
  
 Gaussian, Inc.
 340 Quinnipiac St., Bldg. 40, Wallingford CT 06492
  
  
 ---------------------------------------------------------------
 Warning -- This program may not be used in any manner that
 competes with the business of Gaussian, Inc. or will provide
 assistance to any competitor of Gaussian, Inc.  The licensee
 of this program is prohibited from giving any competitor of
 Gaussian, Inc. access to this program.  By using this program,
 the user acknowledges that Gaussian, Inc. is engaged in the
 business of creating and licensing software in the field of
 computational chemistry and represents and warrants to the
 licensee that it is not a competitor of Gaussian, Inc. and that
 it will not use this program in any manner prohibited above.
 ---------------------------------------------------------------
  

 Cite this work as:
 Gaussian 09, Revision D.01,
 M. J. Frisch, G. W. Trucks, H. B. Schlegel, G. E. Scuseria, 
 M. A. Robb, J. R. Cheeseman, G. Scalmani, V. Barone, B. Mennucci, 
 G. A. Petersson, H. Nakatsuji, M. Caricato, X. Li, H. P. Hratchian, 
 A. F. Izmaylov, J. Bloino, G. Zheng, J. L. Sonnenberg, M. Hada, 
 M. Ehara, K. Toyota, R. Fukuda, J. Hasegawa, M. Ishida, T. Nakajima, 
 Y. Honda, O. Kitao, H. Nakai, T. Vreven, J. A. Montgomery, Jr., 
 J. E. Peralta, F. Ogliaro, M. Bearpark, J. J. Heyd, E. Brothers, 
 K. N. Kudin, V. N. Staroverov, T. Keith, R. Kobayashi, J. Normand, 
 K. Raghavachari, A. Rendell, J. C. Burant, S. S. Iyengar, J. Tomasi, 
 M. Cossi, N. Rega, J. M. Millam, M. Klene, J. E. Knox, J. B. Cross, 
 V. Bakken, C. Adamo, J. Jaramillo, R. Gomperts, R. E. Stratmann, 
 O. Yazyev, A. J. Austin, R. Cammi, C. Pomelli, J. W. Ochterski, 
 R. L. Martin, K. Morokuma, V. G. Zakrzewski, G. A. Voth, 
 P. Salvador, J. J. Dannenberg, S. Dapprich, A. D. Daniels, 
 O. Farkas, J. B. Foresman, J. V. Ortiz, J. Cioslowski, 
 and D. J. Fox, Gaussian, Inc., Wallingford CT, 2013.
 
 ******************************************
 Gaussian 09:  ES64L-G09RevD.01 24-Apr-2013
                29-Sep-2015 
 ******************************************
 %nprocshared=5
 Will use up to    5 processors via shared memory.
 %nprocl=1
 Will use up to    1 processors via Linda.
 ----------------------------------------------------------------------
 # opt=(calcfc,ts,noeigentest,maxcycle=50) x3lyp/6-31+g(d) geom=connect
 ivity
 ----------------------------------------------------------------------
 1/5=1,6=50,10=4,11=1,14=-1,18=20,26=3,38=1,57=2/1,3;
 2/9=110,12=2,17=6,18=5,40=1/2;
 3/5=1,6=6,7=11,11=2,16=1,25=1,30=1,71=2,74=-33,140=1/1,2,3;
 4//1;
 5/5=2,38=5/2;
 8/6=4,10=90,11=11/1;
 11/6=1,8=1,9=11,15=111,16=1/1,2,10;
 10/6=1,13=1/2;
 6/7=2,8=2,9=2,10=2,28=1/1;
 7/10=1,18=20,25=1/1,2,3,16;
 1/5=1,6=50,10=4,11=1,14=-1,18=20,26=3/3(2);
 2/9=110/2;
 99//99;
 2/9=110/2;
 3/5=1,6=6,7=11,11=2,16=1,25=1,30=1,71=1,74=-33/1,2,3;
 4/5=5,16=3,69=1/1;
 5/5=2,38=5/2;
 7//1,2,3,16;
 1/5=1,6=50,11=1,14=-1,18=20,26=3/3(-5);
 2/9=110/2;
 6/7=2,8=2,9=2,10=2,19=2,28=1/1;
 99/9=1/99;
 --------
 tsb-3opt
 --------
 Symbolic Z-matrix:
 Charge =  1 Multiplicity = 1
 C                     0.46258   2.06711  -0.24055 
 H                     1.521     2.35059  -0.32466 
 H                     0.0966    2.22391   0.77647 
 H                    -0.13863   2.58645  -0.99954 
 C                     1.57301  -1.34788  -0.94427 
 H                     0.94528  -2.26115  -0.90646 
 H                     2.605    -1.68737  -0.75269 
 H                     1.54709  -0.99757  -1.99582 
 C                     1.11     -0.29316   0.00413 
 O                     1.97889   0.33269   0.8744 
 H                     2.87304  -0.10222   0.9612 
 O                    -1.94611  -0.53313  -0.37405 
 H                    -1.49474   0.20101  -0.93901 
 O                     0.29326   0.66733  -0.62089 
 H                    -1.07928  -0.69705   0.4934 
 O                     0.11837  -0.95897   0.93656 
 H                     0.1806   -0.56853   1.8569 
 C                    -3.17853   0.00652   0.22398 
 H                    -3.57049  -0.82203   0.83487 
 H                    -2.97602   0.90139   0.81741 
 H                    -3.86707   0.21377  -0.60989 
 
 Add virtual bond connecting atoms H13        and O12        Dist= 1.95D+00.
 Add virtual bond connecting atoms H15        and O12        Dist= 2.34D+00.
 Add virtual bond connecting atoms O16        and H15        Dist= 2.46D+00.

 GradGradGradGradGradGradGradGradGradGradGradGradGradGradGradGradGradGrad
 Berny optimization.
 Initialization pass.
                           ----------------------------
                           !    Initial Parameters    !
                           ! (Angstroms and Degrees)  !
 --------------------------                            --------------------------
 ! Name  Definition              Value          Derivative Info.                !
 --------------------------------------------------------------------------------
 ! R1    R(1,2)                  1.0989         calculate D2E/DX2 analytically  !
 ! R2    R(1,3)                  1.0922         calculate D2E/DX2 analytically  !
 ! R3    R(1,4)                  1.0987         calculate D2E/DX2 analytically  !
 ! R4    R(1,14)                 1.4604         calculate D2E/DX2 analytically  !
 ! R5    R(5,6)                  1.1088         calculate D2E/DX2 analytically  !
 ! R6    R(5,7)                  1.1032         calculate D2E/DX2 analytically  !
 ! R7    R(5,8)                  1.1087         calculate D2E/DX2 analytically  !
 ! R8    R(5,9)                  1.4921         calculate D2E/DX2 analytically  !
 ! R9    R(9,10)                 1.3799         calculate D2E/DX2 analytically  !
 ! R10   R(9,14)                 1.4072         calculate D2E/DX2 analytically  !
 ! R11   R(9,16)                 1.5153         calculate D2E/DX2 analytically  !
 ! R12   R(10,11)                0.9981         calculate D2E/DX2 analytically  !
 ! R13   R(12,13)                1.0305         calculate D2E/DX2 analytically  !
 ! R14   R(12,15)                1.2372         calculate D2E/DX2 analytically  !
 ! R15   R(12,18)                1.4723         calculate D2E/DX2 analytically  !
 ! R16   R(15,16)                1.3036         calculate D2E/DX2 analytically  !
 ! R17   R(16,17)                1.0017         calculate D2E/DX2 analytically  !
 ! R18   R(18,19)                1.1015         calculate D2E/DX2 analytically  !
 ! R19   R(18,20)                1.0927         calculate D2E/DX2 analytically  !
 ! R20   R(18,21)                1.1011         calculate D2E/DX2 analytically  !
 ! A1    A(2,1,3)              110.9138         calculate D2E/DX2 analytically  !
 ! A2    A(2,1,4)              110.6229         calculate D2E/DX2 analytically  !
 ! A3    A(2,1,14)             109.8151         calculate D2E/DX2 analytically  !
 ! A4    A(3,1,4)              113.0809         calculate D2E/DX2 analytically  !
 ! A5    A(3,1,14)             109.954          calculate D2E/DX2 analytically  !
 ! A6    A(4,1,14)             102.1052         calculate D2E/DX2 analytically  !
 ! A7    A(6,5,7)              105.6767         calculate D2E/DX2 analytically  !
 ! A8    A(6,5,8)              106.2212         calculate D2E/DX2 analytically  !
 ! A9    A(6,5,9)              112.635          calculate D2E/DX2 analytically  !
 ! A10   A(7,5,8)              106.4889         calculate D2E/DX2 analytically  !
 ! A11   A(7,5,9)              113.4184         calculate D2E/DX2 analytically  !
 ! A12   A(8,5,9)              111.8556         calculate D2E/DX2 analytically  !
 ! A13   A(5,9,10)             121.742          calculate D2E/DX2 analytically  !
 ! A14   A(5,9,14)             112.3504         calculate D2E/DX2 analytically  !
 ! A15   A(5,9,16)             106.4754         calculate D2E/DX2 analytically  !
 ! A16   A(10,9,14)            109.6346         calculate D2E/DX2 analytically  !
 ! A17   A(10,9,16)            102.9019         calculate D2E/DX2 analytically  !
 ! A18   A(14,9,16)            101.1512         calculate D2E/DX2 analytically  !
 ! A19   A(9,10,11)            114.9191         calculate D2E/DX2 analytically  !
 ! A20   A(13,12,15)            99.8983         calculate D2E/DX2 analytically  !
 ! A21   A(13,12,18)           109.1605         calculate D2E/DX2 analytically  !
 ! A22   A(15,12,18)           110.5021         calculate D2E/DX2 analytically  !
 ! A23   A(1,14,9)             118.1161         calculate D2E/DX2 analytically  !
 ! A24   A(12,15,16)           155.3194         calculate D2E/DX2 analytically  !
 ! A25   A(9,16,15)            107.6837         calculate D2E/DX2 analytically  !
 ! A26   A(9,16,17)            110.6991         calculate D2E/DX2 analytically  !
 ! A27   A(15,16,17)           106.9239         calculate D2E/DX2 analytically  !
 ! A28   A(12,18,19)           104.3258         calculate D2E/DX2 analytically  !
 ! A29   A(12,18,20)           111.4467         calculate D2E/DX2 analytically  !
 ! A30   A(12,18,21)           106.5482         calculate D2E/DX2 analytically  !
 ! A31   A(19,18,20)           112.3817         calculate D2E/DX2 analytically  !
 ! A32   A(19,18,21)           109.82           calculate D2E/DX2 analytically  !
 ! A33   A(20,18,21)           111.9027         calculate D2E/DX2 analytically  !
 ! D1    D(2,1,14,9)            52.1903         calculate D2E/DX2 analytically  !
 ! D2    D(3,1,14,9)           -70.1183         calculate D2E/DX2 analytically  !
 ! D3    D(4,1,14,9)           169.5888         calculate D2E/DX2 analytically  !
 ! D4    D(6,5,9,10)           130.1451         calculate D2E/DX2 analytically  !
 ! D5    D(6,5,9,14)           -96.8887         calculate D2E/DX2 analytically  !
 ! D6    D(6,5,9,16)            12.9675         calculate D2E/DX2 analytically  !
 ! D7    D(7,5,9,10)            10.169          calculate D2E/DX2 analytically  !
 ! D8    D(7,5,9,14)           143.1351         calculate D2E/DX2 analytically  !
 ! D9    D(7,5,9,16)          -107.0087         calculate D2E/DX2 analytically  !
 ! D10   D(8,5,9,10)          -110.2942         calculate D2E/DX2 analytically  !
 ! D11   D(8,5,9,14)            22.672          calculate D2E/DX2 analytically  !
 ! D12   D(8,5,9,16)           132.5281         calculate D2E/DX2 analytically  !
 ! D13   D(5,9,10,11)          -12.696          calculate D2E/DX2 analytically  !
 ! D14   D(14,9,10,11)        -146.7599         calculate D2E/DX2 analytically  !
 ! D15   D(16,9,10,11)         106.2397         calculate D2E/DX2 analytically  !
 ! D16   D(5,9,14,1)          -140.3307         calculate D2E/DX2 analytically  !
 ! D17   D(10,9,14,1)           -1.6857         calculate D2E/DX2 analytically  !
 ! D18   D(16,9,14,1)          106.4913         calculate D2E/DX2 analytically  !
 ! D19   D(5,9,16,15)          -97.857          calculate D2E/DX2 analytically  !
 ! D20   D(5,9,16,17)          145.5858         calculate D2E/DX2 analytically  !
 ! D21   D(10,9,16,15)         133.0504         calculate D2E/DX2 analytically  !
 ! D22   D(10,9,16,17)          16.4933         calculate D2E/DX2 analytically  !
 ! D23   D(14,9,16,15)          19.6903         calculate D2E/DX2 analytically  !
 ! D24   D(14,9,16,17)         -96.8669         calculate D2E/DX2 analytically  !
 ! D25   D(13,12,15,16)        -56.1551         calculate D2E/DX2 analytically  !
 ! D26   D(18,12,15,16)       -171.05           calculate D2E/DX2 analytically  !
 ! D27   D(13,12,18,19)       -177.8762         calculate D2E/DX2 analytically  !
 ! D28   D(13,12,18,20)        -56.3726         calculate D2E/DX2 analytically  !
 ! D29   D(13,12,18,21)         65.9593         calculate D2E/DX2 analytically  !
 ! D30   D(15,12,18,19)        -68.9583         calculate D2E/DX2 analytically  !
 ! D31   D(15,12,18,20)         52.5454         calculate D2E/DX2 analytically  !
 ! D32   D(15,12,18,21)        174.8773         calculate D2E/DX2 analytically  !
 ! D33   D(12,15,16,9)          39.4563         calculate D2E/DX2 analytically  !
 ! D34   D(12,15,16,17)        158.4554         calculate D2E/DX2 analytically  !
 --------------------------------------------------------------------------------
 Trust Radius=3.00D-01 FncErr=1.00D-07 GrdErr=1.00D-06
 Number of steps in this run=     50 maximum allowed number of steps=    126.
 Search for a saddle point of order  1.
 GradGradGradGradGradGradGradGradGradGradGradGradGradGradGradGradGradGrad

                          Input orientation:                          
 ---------------------------------------------------------------------
 Center     Atomic      Atomic             Coordinates (Angstroms)
 Number     Number       Type             X           Y           Z
 ---------------------------------------------------------------------
      1          6           0        0.462578    2.067114   -0.240554
      2          1           0        1.520995    2.350593   -0.324656
      3          1           0        0.096600    2.223909    0.776468
      4          1           0       -0.138633    2.586445   -0.999535
      5          6           0        1.573009   -1.347882   -0.944272
      6          1           0        0.945281   -2.261147   -0.906462
      7          1           0        2.605000   -1.687366   -0.752691
      8          1           0        1.547086   -0.997574   -1.995824
      9          6           0        1.109999   -0.293161    0.004130
     10          8           0        1.978886    0.332685    0.874395
     11          1           0        2.873041   -0.102218    0.961196
     12          8           0       -1.946108   -0.533127   -0.374049
     13          1           0       -1.494744    0.201008   -0.939006
     14          8           0        0.293259    0.667326   -0.620887
     15          1           0       -1.079283   -0.697051    0.493397
     16          8           0        0.118373   -0.958974    0.936555
     17          1           0        0.180598   -0.568527    1.856902
     18          6           0       -3.178526    0.006516    0.223980
     19          1           0       -3.570493   -0.822026    0.834867
     20          1           0       -2.976019    0.901394    0.817411
     21          1           0       -3.867065    0.213770   -0.609888
 ---------------------------------------------------------------------
                    Distance matrix (angstroms):
                    1          2          3          4          5
     1  C    0.000000
     2  H    1.098945   0.000000
     3  H    1.092181   1.804834   0.000000
     4  H    1.098732   1.807056   1.827828   0.000000
     5  C    3.659300   3.750380   4.230653   4.290886   0.000000
     6  H    4.405710   4.683812   4.865002   4.968167   1.108839
     7  H    4.352973   4.202784   4.891674   5.084674   1.103158
     8  H    3.694515   3.742153   4.490820   4.084046   1.108670
     9  C    2.459659   2.695636   2.821192   3.295232   1.492073
    10  O    2.559403   2.391514   2.670078   3.615928   2.509301
    11  H    3.458401   3.081838   3.626791   4.488157   2.621559
    12  O    3.546948   4.509887   3.619060   3.659225   3.656934
    13  H    2.793080   3.754041   3.093114   2.744633   3.436597
    14  O    1.460386   2.104395   2.101006   2.003228   2.409025
    15  H    3.249096   4.088862   3.161461   3.727602   3.086280
    16  O    3.265160   3.809362   3.186981   4.047776   2.409300
    17  H    3.380154   3.882927   2.995345   4.267902   3.223783
    18  C    4.209453   5.280265   3.993560   4.170608   5.077036
    19  H    5.076349   6.110095   4.767463   5.173042   5.467858
    20  H    3.781817   4.860826   3.345401   3.767154   5.371818
    21  H    4.724098   5.803323   4.655457   4.436510   5.669654
                    6          7          8          9         10
     6  H    0.000000
     7  H    1.762821   0.000000
     8  H    1.773554   1.772110   0.000000
     9  C    2.174690   2.179820   2.164962   0.000000
    10  O    3.311760   2.668339   3.192835   1.379858   0.000000
    11  H    3.444616   2.349883   3.362110   2.015131   0.998092
    12  O    3.410227   4.710438   3.879210   3.088753   4.208779
    13  H    3.466553   4.517585   3.436014   2.813964   3.920697
    14  O    3.013742   3.302437   2.496883   1.407212   2.277980
    15  H    2.916309   4.013403   3.631026   2.279356   3.249294
    16  O    2.403361   3.093125   3.262140   1.515271   2.265779
    17  H    3.329547   3.733564   4.110337   2.091023   2.238603
    18  C    4.840039   6.105104   5.316685   4.304601   5.208486
    19  H    5.049308   6.434739   5.850918   4.782973   5.668380
    20  H    5.324472   6.349384   5.654984   4.334043   4.987761
    21  H    5.419580   6.747024   5.718497   5.040353   6.032610
                   11         12         13         14         15
    11  H    0.000000
    12  O    5.019239   0.000000
    13  H    4.772867   1.030466   0.000000
    14  O    3.122573   2.552799   1.874995   0.000000
    15  H    4.024118   1.237222   1.740947   2.233165   0.000000
    16  O    2.884932   2.482158   2.732295   2.258553   1.303600
    17  H    2.875584   3.082414   3.349038   2.771184   1.860904
    18  C    6.097276   1.472314   2.055599   3.633698   2.230339
    19  H    6.484845   2.045377   2.915812   4.389302   2.517608
    20  H    5.936279   2.130292   2.402023   3.579339   2.501523
    21  H    6.928000   2.074500   2.395076   4.184989   3.133458
                   16         17         18         19         20
    16  O    0.000000
    17  H    1.001678   0.000000
    18  C    3.508486   3.778998   0.000000
    19  H    3.692808   3.896088   1.101500   0.000000
    20  H    3.612537   3.633929   1.092692   1.823151   0.000000
    21  H    4.432892   4.804229   1.101079   1.802261   1.817683
                   21
    21  H    0.000000
 Stoichiometry    C4H13O4(1+)
 Framework group  C1[X(C4H13O4)]
 Deg. of freedom    57
 Full point group                 C1      NOp   1
 Largest Abelian subgroup         C1      NOp   1
 Largest concise Abelian subgroup C1      NOp   1
                         Standard orientation:                         
 ---------------------------------------------------------------------
 Center     Atomic      Atomic             Coordinates (Angstroms)
 Number     Number       Type             X           Y           Z
 ---------------------------------------------------------------------
      1          6           0        0.462578    2.067114   -0.240554
      2          1           0        1.520995    2.350593   -0.324656
      3          1           0        0.096600    2.223909    0.776468
      4          1           0       -0.138633    2.586445   -0.999535
      5          6           0        1.573009   -1.347882   -0.944272
      6          1           0        0.945281   -2.261147   -0.906462
      7          1           0        2.605000   -1.687366   -0.752691
      8          1           0        1.547086   -0.997574   -1.995824
      9          6           0        1.109999   -0.293161    0.004130
     10          8           0        1.978886    0.332685    0.874395
     11          1           0        2.873041   -0.102218    0.961196
     12          8           0       -1.946108   -0.533127   -0.374049
     13          1           0       -1.494744    0.201008   -0.939006
     14          8           0        0.293259    0.667326   -0.620887
     15          1           0       -1.079283   -0.697051    0.493397
     16          8           0        0.118373   -0.958974    0.936555
     17          1           0        0.180598   -0.568527    1.856902
     18          6           0       -3.178526    0.006516    0.223980
     19          1           0       -3.570493   -0.822026    0.834867
     20          1           0       -2.976019    0.901394    0.817411
     21          1           0       -3.867065    0.213770   -0.609888
 ---------------------------------------------------------------------
 Rotational constants (GHZ):      2.6342868      1.2169535      1.0414459
 Standard basis: 6-31+G(d) (6D, 7F)
 There are   178 symmetry adapted cartesian basis functions of A   symmetry.
 There are   178 symmetry adapted basis functions of A   symmetry.
   178 basis functions,   308 primitive gaussians,   178 cartesian basis functions
    34 alpha electrons       34 beta electrons
       nuclear repulsion energy       459.0692851314 Hartrees.
 NAtoms=   21 NActive=   21 NUniq=   21 SFac= 1.00D+00 NAtFMM=   60 NAOKFM=F Big=F
 Integral buffers will be    131072 words long.
 Raffenetti 2 integral format.
 Two-electron integral symmetry is turned on.
 One-electron integrals computed using PRISM.
 NBasis=   178 RedAO= T EigKep=  3.55D-05  NBF=   178
 NBsUse=   178 1.00D-06 EigRej= -1.00D+00 NBFU=   178
 ExpMin= 4.38D-02 ExpMax= 5.48D+03 ExpMxC= 8.25D+02 IAcc=2 IRadAn=         4 AccDes= 0.00D+00
 Harris functional with IExCor= 3102 and IRadAn=       4 diagonalized for initial guess.
 HarFok:  IExCor= 3102 AccDes= 0.00D+00 IRadAn=         4 IDoV= 1 UseB2=F ITyADJ=14
 ICtDFT=  3500011 ScaDFX=  1.000000  1.000000  1.000000  1.000000
 FoFCou: FMM=F IPFlag=           0 FMFlag=      100000 FMFlg1=           0
         NFxFlg=           0 DoJE=T BraDBF=F KetDBF=T FulRan=T
         wScrn=  0.000000 ICntrl=     500 IOpCl=  0 I1Cent=   200000004 NGrid=           0
         NMat0=    1 NMatS0=      1 NMatT0=    0 NMatD0=    1 NMtDS0=    0 NMtDT0=    0
 Petite list used in FoFCou.
 Requested convergence on RMS density matrix=1.00D-08 within 128 cycles.
 Requested convergence on MAX density matrix=1.00D-06.
 Requested convergence on             energy=1.00D-06.
 No special actions if energy rises.
 SCF Done:  E(RX3LYP) =  -460.670405650     A.U. after   12 cycles
            NFock= 12  Conv=0.52D-08     -V/T= 2.0094
 DoSCS=F DFT=T ScalE2(SS,OS)=  1.000000  1.000000
 Range of M.O.s used for correlation:     1   178
 NBasis=   178 NAE=    34 NBE=    34 NFC=     0 NFV=     0
 NROrb=    178 NOA=    34 NOB=    34 NVA=   144 NVB=   144

 **** Warning!!: The largest alpha MO coefficient is  0.62273890D+02

 Symmetrizing basis deriv contribution to polar:
 IMax=3 JMax=2 DiffMx= 0.00D+00
 G2DrvN: will do    22 centers at a time, making    1 passes.
 Calling FoFCou, ICntrl=  3107 FMM=F I1Cent=   0 AccDes= 0.00D+00.
 End of G2Drv F.D. properties file   721 does not exist.
 End of G2Drv F.D. properties file   722 does not exist.
 End of G2Drv F.D. properties file   788 does not exist.
          IDoAtm=111111111111111111111
          Differentiating once with respect to nuclear coordinates.
          There are    66 degrees of freedom in the 1st order CPHF.  IDoFFX=6 NUNeed=     0.
     60 vectors produced by pass  0 Test12= 7.42D-15 1.52D-09 XBig12= 1.21D-01 6.97D-02.
 AX will form    60 AO Fock derivatives at one time.
     60 vectors produced by pass  1 Test12= 7.42D-15 1.52D-09 XBig12= 4.96D-03 9.75D-03.
     60 vectors produced by pass  2 Test12= 7.42D-15 1.52D-09 XBig12= 6.12D-05 1.22D-03.
     60 vectors produced by pass  3 Test12= 7.42D-15 1.52D-09 XBig12= 1.94D-07 5.16D-05.
     60 vectors produced by pass  4 Test12= 7.42D-15 1.52D-09 XBig12= 2.47D-10 1.29D-06.
     42 vectors produced by pass  5 Test12= 7.42D-15 1.52D-09 XBig12= 2.20D-13 4.87D-08.
      7 vectors produced by pass  6 Test12= 7.42D-15 1.52D-09 XBig12= 1.71D-15 7.05D-09.
 InvSVY:  IOpt=1 It=  1 EMax= 6.66D-16
 Solved reduced A of dimension   349 with    66 vectors.
 End of Minotr F.D. properties file   721 does not exist.
 End of Minotr F.D. properties file   722 does not exist.
 End of Minotr F.D. properties file   788 does not exist.

 **********************************************************************

            Population analysis using the SCF density.

 **********************************************************************

 Orbital symmetries:
       Occupied  (A) (A) (A) (A) (A) (A) (A) (A) (A) (A) (A) (A)
                 (A) (A) (A) (A) (A) (A) (A) (A) (A) (A) (A) (A)
                 (A) (A) (A) (A) (A) (A) (A) (A) (A) (A)
       Virtual   (A) (A) (A) (A) (A) (A) (A) (A) (A) (A) (A) (A)
                 (A) (A) (A) (A) (A) (A) (A) (A) (A) (A) (A) (A)
                 (A) (A) (A) (A) (A) (A) (A) (A) (A) (A) (A) (A)
                 (A) (A) (A) (A) (A) (A) (A) (A) (A) (A) (A) (A)
                 (A) (A) (A) (A) (A) (A) (A) (A) (A) (A) (A) (A)
                 (A) (A) (A) (A) (A) (A) (A) (A) (A) (A) (A) (A)
                 (A) (A) (A) (A) (A) (A) (A) (A) (A) (A) (A) (A)
                 (A) (A) (A) (A) (A) (A) (A) (A) (A) (A) (A) (A)
                 (A) (A) (A) (A) (A) (A) (A) (A) (A) (A) (A) (A)
                 (A) (A) (A) (A) (A) (A) (A) (A) (A) (A) (A) (A)
                 (A) (A) (A) (A) (A) (A) (A) (A) (A) (A) (A) (A)
                 (A) (A) (A) (A) (A) (A) (A) (A) (A) (A) (A) (A)
 The electronic state is 1-A.
 Alpha  occ. eigenvalues --  -19.42865 -19.41453 -19.39427 -19.37938 -10.56519
 Alpha  occ. eigenvalues --  -10.43300 -10.41393 -10.37222  -1.30545  -1.25153
 Alpha  occ. eigenvalues --   -1.20861  -1.20265  -0.94487  -0.88041  -0.86284
 Alpha  occ. eigenvalues --   -0.80839  -0.75500  -0.74355  -0.70077  -0.69245
 Alpha  occ. eigenvalues --   -0.67013  -0.63710  -0.62467  -0.60816  -0.59773
 Alpha  occ. eigenvalues --   -0.57942  -0.56051  -0.55367  -0.54181  -0.53955
 Alpha  occ. eigenvalues --   -0.52833  -0.50395  -0.49793  -0.45937
 Alpha virt. eigenvalues --   -0.16525  -0.13153  -0.12631  -0.11255  -0.09526
 Alpha virt. eigenvalues --   -0.08569  -0.08207  -0.07858  -0.06708  -0.06544
 Alpha virt. eigenvalues --   -0.05493  -0.05153  -0.03756  -0.02969  -0.02850
 Alpha virt. eigenvalues --   -0.02307  -0.00979  -0.00242   0.00109   0.01882
 Alpha virt. eigenvalues --    0.02317   0.02709   0.03672   0.04055   0.04929
 Alpha virt. eigenvalues --    0.05976   0.06428   0.06732   0.08194   0.08577
 Alpha virt. eigenvalues --    0.09088   0.09929   0.10716   0.12215   0.12511
 Alpha virt. eigenvalues --    0.13576   0.14340   0.16028   0.16525   0.16969
 Alpha virt. eigenvalues --    0.18019   0.19087   0.19746   0.20286   0.20889
 Alpha virt. eigenvalues --    0.22309   0.24531   0.26956   0.28712   0.29290
 Alpha virt. eigenvalues --    0.32690   0.47735   0.49550   0.49753   0.51612
 Alpha virt. eigenvalues --    0.57317   0.57879   0.58515   0.60996   0.61909
 Alpha virt. eigenvalues --    0.63423   0.65739   0.67783   0.75547   0.77434
 Alpha virt. eigenvalues --    0.79948   0.80955   0.81001   0.83840   0.85943
 Alpha virt. eigenvalues --    0.88242   0.90130   0.90673   0.94844   0.95758
 Alpha virt. eigenvalues --    0.97748   0.98536   0.99581   1.02150   1.03295
 Alpha virt. eigenvalues --    1.04399   1.06710   1.09580   1.11791   1.13721
 Alpha virt. eigenvalues --    1.14427   1.17027   1.20906   1.25836   1.27843
 Alpha virt. eigenvalues --    1.29742   1.30696   1.33781   1.36065   1.37077
 Alpha virt. eigenvalues --    1.40309   1.44968   1.48356   1.52892   1.56410
 Alpha virt. eigenvalues --    1.60436   1.60841   1.63262   1.66355   1.68565
 Alpha virt. eigenvalues --    1.71197   1.76057   1.79300   1.80738   1.81942
 Alpha virt. eigenvalues --    1.89505   1.91741   1.93830   1.94820   1.97568
 Alpha virt. eigenvalues --    2.02319   2.02698   2.10237   2.11610   2.13724
 Alpha virt. eigenvalues --    2.15854   2.16499   2.16672   2.18138   2.23861
 Alpha virt. eigenvalues --    2.29730   2.35673   2.40962   2.44701   2.49208
 Alpha virt. eigenvalues --    2.65349   2.67641   2.71092   2.75967   2.80619
 Alpha virt. eigenvalues --    2.88266   3.90613   4.01071   4.04328   4.10009
 Alpha virt. eigenvalues --    4.15180   4.23155   4.31277   4.54812
          Condensed to atoms (all electrons):
               1          2          3          4          5          6
     1  C    5.291255   0.397119   0.404424   0.381753  -0.001136  -0.000700
     2  H    0.397119   0.449976  -0.030643  -0.020324   0.008081  -0.000008
     3  H    0.404424  -0.030643   0.501276  -0.028954  -0.006188   0.000004
     4  H    0.381753  -0.020324  -0.028954   0.474922  -0.002404   0.000003
     5  C   -0.001136   0.008081  -0.006188  -0.002404   6.346836   0.347388
     6  H   -0.000700  -0.000008   0.000004   0.000003   0.347388   0.426150
     7  H    0.002865  -0.000022   0.000009   0.000003   0.421271  -0.020173
     8  H    0.000461   0.000076  -0.000013  -0.000037   0.413417  -0.021212
     9  C   -0.167426  -0.030572  -0.014356   0.016124  -0.582685  -0.003942
    10  O   -0.041006   0.002918  -0.000680   0.000452  -0.108965   0.002329
    11  H    0.005786  -0.000424   0.000058  -0.000009   0.002623   0.000091
    12  O   -0.009612  -0.000491  -0.002019   0.000669  -0.011563  -0.000224
    13  H   -0.006171   0.000099   0.000528  -0.000652  -0.005048   0.000069
    14  O    0.090695  -0.025266  -0.055698  -0.050659  -0.138650  -0.002998
    15  H    0.004547   0.000015  -0.000042   0.000031  -0.006579  -0.000156
    16  O   -0.010126  -0.002747   0.011733  -0.001911  -0.002396  -0.001973
    17  H   -0.006131   0.000110  -0.001083   0.000035  -0.013407   0.000233
    18  C   -0.000144   0.000321  -0.000948  -0.000090  -0.003399  -0.000064
    19  H    0.000256   0.000000   0.000004   0.000001   0.000231   0.000001
    20  H    0.001293   0.000004   0.000108  -0.000026  -0.001713   0.000000
    21  H   -0.000332   0.000000   0.000005  -0.000002   0.000398   0.000000
               7          8          9         10         11         12
     1  C    0.002865   0.000461  -0.167426  -0.041006   0.005786  -0.009612
     2  H   -0.000022   0.000076  -0.030572   0.002918  -0.000424  -0.000491
     3  H    0.000009  -0.000013  -0.014356  -0.000680   0.000058  -0.002019
     4  H    0.000003  -0.000037   0.016124   0.000452  -0.000009   0.000669
     5  C    0.421271   0.413417  -0.582685  -0.108965   0.002623  -0.011563
     6  H   -0.020173  -0.021212  -0.003942   0.002329   0.000091  -0.000224
     7  H    0.461789  -0.021347  -0.099929   0.001804   0.002788   0.000189
     8  H   -0.021347   0.428408  -0.081437   0.002112  -0.000014   0.000579
     9  C   -0.099929  -0.081437   5.787425   0.385400  -0.018461   0.002561
    10  O    0.001804   0.002112   0.385400   8.429778   0.190851  -0.000396
    11  H    0.002788  -0.000014  -0.018461   0.190851   0.286175   0.000105
    12  O    0.000189   0.000579   0.002561  -0.000396   0.000105   8.610526
    13  H   -0.000009  -0.000005   0.014463   0.000454  -0.000016   0.167431
    14  O    0.008107   0.001181   0.180051  -0.066179   0.008103  -0.025943
    15  H    0.000002  -0.000058  -0.002815   0.003801  -0.000133   0.111835
    16  O    0.001629   0.002768  -0.009588  -0.121144   0.004369  -0.040030
    17  H   -0.000191  -0.000101   0.056912   0.002723  -0.000758  -0.001870
    18  C    0.000034   0.000057  -0.005176   0.000675  -0.000028   0.065052
    19  H    0.000000   0.000000  -0.001962   0.000014   0.000000  -0.039996
    20  H    0.000000   0.000000   0.003798  -0.000057   0.000000  -0.054291
    21  H    0.000000   0.000000  -0.000555   0.000003   0.000000  -0.038507
              13         14         15         16         17         18
     1  C   -0.006171   0.090695   0.004547  -0.010126  -0.006131  -0.000144
     2  H    0.000099  -0.025266   0.000015  -0.002747   0.000110   0.000321
     3  H    0.000528  -0.055698  -0.000042   0.011733  -0.001083  -0.000948
     4  H   -0.000652  -0.050659   0.000031  -0.001911   0.000035  -0.000090
     5  C   -0.005048  -0.138650  -0.006579  -0.002396  -0.013407  -0.003399
     6  H    0.000069  -0.002998  -0.000156  -0.001973   0.000233  -0.000064
     7  H   -0.000009   0.008107   0.000002   0.001629  -0.000191   0.000034
     8  H   -0.000005   0.001181  -0.000058   0.002768  -0.000101   0.000057
     9  C    0.014463   0.180051  -0.002815  -0.009588   0.056912  -0.005176
    10  O    0.000454  -0.066179   0.003801  -0.121144   0.002723   0.000675
    11  H   -0.000016   0.008103  -0.000133   0.004369  -0.000758  -0.000028
    12  O    0.167431  -0.025943   0.111835  -0.040030  -0.001870   0.065052
    13  H    0.252261   0.028163  -0.011862   0.001215   0.000081  -0.014522
    14  O    0.028163   8.761045   0.002662  -0.249479   0.001685   0.001602
    15  H   -0.011862   0.002662   0.240975   0.063675  -0.005739  -0.016074
    16  O    0.001215  -0.249479   0.063675   9.025629   0.153545   0.005609
    17  H    0.000081   0.001685  -0.005739   0.153545   0.262928  -0.001585
    18  C   -0.014522   0.001602  -0.016074   0.005609  -0.001585   5.160323
    19  H    0.003497  -0.000226  -0.002027   0.000304  -0.000012   0.390993
    20  H   -0.001882   0.000109  -0.001958   0.001102   0.000046   0.384381
    21  H   -0.003468   0.000274   0.002117  -0.000824   0.000009   0.389046
              19         20         21
     1  C    0.000256   0.001293  -0.000332
     2  H    0.000000   0.000004   0.000000
     3  H    0.000004   0.000108   0.000005
     4  H    0.000001  -0.000026  -0.000002
     5  C    0.000231  -0.001713   0.000398
     6  H    0.000001   0.000000   0.000000
     7  H    0.000000   0.000000   0.000000
     8  H    0.000000   0.000000   0.000000
     9  C   -0.001962   0.003798  -0.000555
    10  O    0.000014  -0.000057   0.000003
    11  H    0.000000   0.000000   0.000000
    12  O   -0.039996  -0.054291  -0.038507
    13  H    0.003497  -0.001882  -0.003468
    14  O   -0.000226   0.000109   0.000274
    15  H   -0.002027  -0.001958   0.002117
    16  O    0.000304   0.001102  -0.000824
    17  H   -0.000012   0.000046   0.000009
    18  C    0.390993   0.384381   0.389046
    19  H    0.441751  -0.026802  -0.018319
    20  H   -0.026802   0.493410  -0.026815
    21  H   -0.018319  -0.026815   0.443522
 Mulliken charges:
               1
     1  C   -0.337670
     2  H    0.251777
     3  H    0.222477
     4  H    0.231074
     5  C   -0.656112
     6  H    0.275181
     7  H    0.241181
     8  H    0.275164
     9  C    0.572172
    10  O   -0.684888
    11  H    0.518895
    12  O   -0.734005
    13  H    0.575371
    14  O   -0.468578
    15  H    0.617782
    16  O   -0.831361
    17  H    0.552571
    18  C   -0.356065
    19  H    0.252293
    20  H    0.229292
    21  H    0.253449
 Sum of Mulliken charges =   1.00000
 Mulliken charges with hydrogens summed into heavy atoms:
               1
     1  C    0.367659
     5  C    0.135414
     9  C    0.572172
    10  O   -0.165993
    12  O    0.459148
    14  O   -0.468578
    16  O   -0.278790
    18  C    0.378969
 APT charges:
               1
     1  C   -1.345205
     2  H    0.569926
     3  H    0.377534
     4  H    0.537737
     5  C   -1.597678
     6  H    0.480306
     7  H    0.666944
     8  H    0.506996
     9  C    0.380842
    10  O   -0.977142
    11  H    0.915232
    12  O   -0.330817
    13  H    0.498910
    14  O   -0.219203
    15  H    0.547392
    16  O   -0.766381
    17  H    0.679742
    18  C   -1.599108
    19  H    0.619819
    20  H    0.349566
    21  H    0.704586
 Sum of APT charges =   1.00000
 APT charges with hydrogens summed into heavy atoms:
               1
     1  C    0.139992
     5  C    0.056568
     9  C    0.380842
    10  O   -0.061909
    12  O    0.715485
    14  O   -0.219203
    16  O   -0.086639
    18  C    0.074863
 Electronic spatial extent (au):  <R**2>=           1237.3448
 Charge=              1.0000 electrons
 Dipole moment (field-independent basis, Debye):
    X=             -0.9773    Y=              0.5439    Z=              1.2248  Tot=              1.6587
 Quadrupole moment (field-independent basis, Debye-Ang):
   XX=            -19.9860   YY=            -43.0978   ZZ=            -42.4549
   XY=             -4.7533   XZ=             -0.6404   YZ=             -1.1568
 Traceless Quadrupole moment (field-independent basis, Debye-Ang):
   XX=             15.1935   YY=             -7.9182   ZZ=             -7.2753
   XY=             -4.7533   XZ=             -0.6404   YZ=             -1.1568
 Octapole moment (field-independent basis, Debye-Ang**2):
  XXX=            -16.5886  YYY=              9.6944  ZZZ=             10.6212  XYY=              4.7502
  XXY=             -7.3541  XXZ=              9.0315  XZZ=             -0.7664  YZZ=             -3.4128
  YYZ=             -4.3621  XYZ=              3.7521
 Hexadecapole moment (field-independent basis, Debye-Ang**3):
 XXXX=           -625.6991 YYYY=           -371.8003 ZZZZ=           -170.3804 XXXY=            -16.6387
 XXXZ=             30.3703 YYYX=              5.9512 YYYZ=             -2.8096 ZZZX=              9.4338
 ZZZY=             -8.1624 XXYY=           -212.4841 XXZZ=           -169.7173 YYZZ=            -96.6223
 XXYZ=            -11.4500 YYXZ=             -6.4968 ZZXY=             -5.6526
 N-N= 4.590692851314D+02 E-N=-1.984341351470D+03  KE= 4.563901118332D+02
  Exact polarizability:   0.000   0.000   0.000   0.000   0.000   0.000
 Approx polarizability:  91.116  -0.903  83.055   3.913  -0.697  84.090
 Calling FoFJK, ICntrl=    100147 FMM=F ISym2X=0 I1Cent= 0 IOpClX= 0 NMat=1 NMatS=1 NMatT=0.
 ***** Axes restored to original set *****
 -------------------------------------------------------------------
 Center     Atomic                   Forces (Hartrees/Bohr)
 Number     Number              X              Y              Z
 -------------------------------------------------------------------
      1        6           0.001957354   -0.003376273   -0.011004046
      2        1          -0.007255679    0.000618782    0.000856603
      3        1          -0.000477908    0.003795083   -0.000541432
      4        1           0.003086167    0.002238544    0.007740225
      5        6           0.010934267   -0.021353432   -0.024478472
      6        1           0.002902341    0.010647683    0.003143517
      7        1          -0.004729202    0.003864944    0.003143605
      8        1           0.000425527    0.001869236    0.011193024
      9        6          -0.020223534    0.020366843    0.025322688
     10        8           0.025140029   -0.012039630   -0.007713020
     11        1          -0.022214144    0.006742876   -0.005683096
     12        8           0.017099192    0.031475460    0.007631692
     13        1          -0.010211764   -0.029863203    0.019302247
     14        8           0.021864178    0.007015742   -0.007949566
     15        1           0.004055549   -0.009507327   -0.025433197
     16        8          -0.022586938    0.000632852    0.027515729
     17        1           0.006719018   -0.007441994   -0.019830922
     18        6          -0.010432832   -0.013621760   -0.007730587
     19        1           0.000499655    0.008582924   -0.002451219
     20        1           0.000627520   -0.000869739   -0.000355155
     21        1           0.002821206    0.000222387    0.007321381
 -------------------------------------------------------------------
 Cartesian Forces:  Max     0.031475460 RMS     0.013182072
 FormGI is forming the generalized inverse of G from B-inverse, IUseBI=4.

 GradGradGradGradGradGradGradGradGradGradGradGradGradGradGradGradGradGrad
 Berny optimization.
 Internal  Forces:  Max     0.036332491 RMS     0.009421481
 Search for a saddle point.
 Step number   1 out of a maximum of   50
 All quantities printed in internal units (Hartrees-Bohrs-Radians)
 Swapping is turned off.
 Second derivative matrix not updated -- analytic derivatives used.
 ITU=  0
     Eigenvalues ---   -0.03229  -0.00254  -0.00181  -0.00093   0.00086
     Eigenvalues ---    0.00224   0.00334   0.00433   0.01455   0.02315
     Eigenvalues ---    0.04008   0.04313   0.04508   0.04971   0.05563
     Eigenvalues ---    0.06304   0.06552   0.07770   0.08448   0.08593
     Eigenvalues ---    0.08790   0.09795   0.11347   0.12310   0.13309
     Eigenvalues ---    0.13685   0.14151   0.14725   0.15003   0.15915
     Eigenvalues ---    0.16455   0.17432   0.18295   0.19057   0.19503
     Eigenvalues ---    0.19617   0.19798   0.20920   0.26589   0.31373
     Eigenvalues ---    0.31697   0.32056   0.32762   0.33063   0.33181
     Eigenvalues ---    0.33418   0.33557   0.33880   0.34024   0.35208
     Eigenvalues ---    0.35378   0.35478   0.41053   0.41921   0.42276
     Eigenvalues ---    0.50586   0.71452
 Eigenvectors required to have negative eigenvalues:
                          R16       R14       R11       A24       A20
   1                   -0.68518   0.61526   0.17932   0.16692   0.09970
                          R10       D16       D25       D7        D10
   1                   -0.09709  -0.07448  -0.07422  -0.06457  -0.06430
 RFO step:  Lambda0=7.323845580D-06 Lambda=-2.64530736D-02.
 Linear search not attempted -- option 19 set.
 Maximum step size (   0.300) exceeded in Quadratic search.
    -- Step size scaled by   0.826
 Iteration  1 RMS(Cart)=  0.17141614 RMS(Int)=  0.02559816
 Iteration  2 RMS(Cart)=  0.04105114 RMS(Int)=  0.00125311
 Iteration  3 RMS(Cart)=  0.00128967 RMS(Int)=  0.00050502
 Iteration  4 RMS(Cart)=  0.00000215 RMS(Int)=  0.00050502
 Iteration  5 RMS(Cart)=  0.00000000 RMS(Int)=  0.00050502
 Variable       Old X    -DE/DX   Delta X   Delta X   Delta X     New X
                                 (Linear)    (Quad)   (Total)
    R1        2.07671  -0.00689   0.00000  -0.01249  -0.01249   2.06421
    R2        2.06392   0.00020   0.00000  -0.00019  -0.00019   2.06373
    R3        2.07630  -0.00598   0.00000  -0.01344  -0.01344   2.06286
    R4        2.75973   0.00206   0.00000  -0.00579  -0.00579   2.75394
    R5        2.09540  -0.01031   0.00000  -0.02478  -0.02478   2.07063
    R6        2.08467  -0.00507   0.00000  -0.01273  -0.01273   2.07194
    R7        2.09508  -0.01003   0.00000  -0.02505  -0.02505   2.07003
    R8        2.81961   0.01093   0.00000   0.03729   0.03729   2.85690
    R9        2.60755  -0.00901   0.00000  -0.02114  -0.02114   2.58641
   R10        2.65925   0.00074   0.00000  -0.02190  -0.02190   2.63735
   R11        2.86345   0.02011   0.00000   0.02613   0.02613   2.88958
   R12        1.88612  -0.02333   0.00000  -0.04361  -0.04361   1.84251
   R13        1.94730  -0.03633   0.00000  -0.08869  -0.08869   1.85861
   R14        2.33801  -0.01747   0.00000  -0.08965  -0.08965   2.24836
   R15        2.78227   0.00204   0.00000  -0.00336  -0.00336   2.77890
   R16        2.46345  -0.00625   0.00000  -0.08508  -0.08508   2.37836
   R17        1.89290  -0.02071   0.00000  -0.03827  -0.03827   1.85463
   R18        2.08153  -0.00799   0.00000  -0.01909  -0.01909   2.06244
   R19        2.06489  -0.00079   0.00000  -0.00119  -0.00119   2.06369
   R20        2.08074  -0.00727   0.00000  -0.01723  -0.01723   2.06351
    A1        1.93581  -0.00294   0.00000  -0.01014  -0.01027   1.92554
    A2        1.93073  -0.00332   0.00000  -0.00951  -0.00974   1.92099
    A3        1.91664   0.00232   0.00000   0.00995   0.00979   1.92643
    A4        1.97363  -0.00619   0.00000  -0.02870  -0.02888   1.94475
    A5        1.91906   0.00340   0.00000   0.01403   0.01388   1.93294
    A6        1.78207   0.00785   0.00000   0.02859   0.02839   1.81047
    A7        1.84441   0.00484   0.00000   0.02261   0.02220   1.86661
    A8        1.85391   0.00567   0.00000   0.03064   0.03028   1.88419
    A9        1.96585  -0.00477   0.00000  -0.02644  -0.02685   1.93900
   A10        1.85858   0.00462   0.00000   0.03802   0.03778   1.89636
   A11        1.97952  -0.00425   0.00000  -0.02606  -0.02640   1.95312
   A12        1.95225  -0.00460   0.00000  -0.02973  -0.03005   1.92220
   A13        2.12480  -0.00617   0.00000  -0.05304  -0.05300   2.07180
   A14        1.96088  -0.00388   0.00000  -0.00467  -0.00477   1.95612
   A15        1.85835  -0.00818   0.00000  -0.00992  -0.00972   1.84863
   A16        1.91348   0.00042   0.00000   0.02156   0.02026   1.93374
   A17        1.79598   0.00499   0.00000   0.02851   0.02769   1.82367
   A18        1.76542   0.01836   0.00000   0.03652   0.03613   1.80155
   A19        2.00572  -0.00975   0.00000  -0.03971  -0.03971   1.96601
   A20        1.74355  -0.00691   0.00000   0.01023   0.00738   1.75094
   A21        1.90521   0.00622   0.00000   0.03296   0.03114   1.93635
   A22        1.92863   0.01240   0.00000   0.07433   0.07290   2.00152
   A23        2.06152   0.00786   0.00000   0.01671   0.01671   2.07823
   A24        2.71084   0.02083   0.00000   0.15930   0.15930   2.87013
   A25        1.87944   0.03200   0.00000   0.01101   0.01106   1.89049
   A26        1.93206  -0.01463   0.00000  -0.03944  -0.03958   1.89248
   A27        1.86617  -0.00002   0.00000   0.04930   0.04961   1.91578
   A28        1.82083   0.00588   0.00000   0.01908   0.01899   1.83982
   A29        1.94511  -0.00338   0.00000  -0.01580  -0.01577   1.92934
   A30        1.85962   0.00437   0.00000   0.01354   0.01345   1.87307
   A31        1.96143  -0.00239   0.00000  -0.01085  -0.01080   1.95063
   A32        1.91672  -0.00214   0.00000   0.00246   0.00221   1.91893
   A33        1.95307  -0.00155   0.00000  -0.00558  -0.00556   1.94752
    D1        0.91089   0.00032   0.00000  -0.01074  -0.01084   0.90005
    D2       -1.22380   0.00024   0.00000  -0.01381  -0.01376  -1.23756
    D3        2.95988   0.00156   0.00000  -0.00260  -0.00255   2.95733
    D4        2.27146   0.00258   0.00000   0.23327   0.23323   2.50469
    D5       -1.69103  -0.00853   0.00000   0.20245   0.20271  -1.48832
    D6        0.22632   0.00681   0.00000   0.23785   0.23767   0.46400
    D7        0.17748   0.00288   0.00000   0.24224   0.24214   0.41962
    D8        2.49818  -0.00823   0.00000   0.21142   0.21161   2.70979
    D9       -1.86765   0.00711   0.00000   0.24681   0.24657  -1.62108
   D10       -1.92500   0.00330   0.00000   0.23330   0.23328  -1.69171
   D11        0.39570  -0.00780   0.00000   0.20248   0.20276   0.59846
   D12        2.31305   0.00754   0.00000   0.23787   0.23772   2.55077
   D13       -0.22159  -0.00049   0.00000  -0.02364  -0.02349  -0.24508
   D14       -2.56144   0.01200   0.00000   0.01595   0.01627  -2.54518
   D15        1.85423  -0.01088   0.00000  -0.04501  -0.04547   1.80876
   D16       -2.44923   0.00459   0.00000   0.20587   0.20615  -2.24309
   D17       -0.02942  -0.00801   0.00000   0.14495   0.14445   0.11503
   D18        1.85862   0.00575   0.00000   0.19968   0.19990   2.05853
   D19       -1.70793   0.00498   0.00000   0.01610   0.01588  -1.69204
   D20        2.54095  -0.00563   0.00000  -0.02796  -0.02790   2.51305
   D21        2.32217   0.01377   0.00000   0.06741   0.06766   2.38982
   D22        0.28786   0.00315   0.00000   0.02335   0.02387   0.31173
   D23        0.34366   0.00561   0.00000   0.02312   0.02268   0.36634
   D24       -1.69065  -0.00501   0.00000  -0.02094  -0.02111  -1.71176
   D25       -0.98009   0.00451   0.00000   0.06981   0.07019  -0.90990
   D26       -2.98539  -0.00364   0.00000   0.00037  -0.00002  -2.98540
   D27       -3.10453   0.00053   0.00000  -0.02255  -0.02311  -3.12764
   D28       -0.98389  -0.00053   0.00000  -0.03236  -0.03306  -1.01695
   D29        1.15121  -0.00162   0.00000  -0.03987  -0.04068   1.11053
   D30       -1.20355   0.00175   0.00000   0.04327   0.04409  -1.15946
   D31        0.91709   0.00068   0.00000   0.03346   0.03414   0.95123
   D32        3.05218  -0.00041   0.00000   0.02595   0.02652   3.07871
   D33        0.68864   0.00303   0.00000  -0.10880  -0.10910   0.57954
   D34        2.76557   0.00264   0.00000  -0.12301  -0.12271   2.64286
         Item               Value     Threshold  Converged?
 Maximum Force            0.036332     0.000450     NO 
 RMS     Force            0.009421     0.000300     NO 
 Maximum Displacement     0.578543     0.001800     NO 
 RMS     Displacement     0.206429     0.001200     NO 
 Predicted change in Energy=-1.619891D-02
 GradGradGradGradGradGradGradGradGradGradGradGradGradGradGradGradGradGrad

                          Input orientation:                          
 ---------------------------------------------------------------------
 Center     Atomic      Atomic             Coordinates (Angstroms)
 Number     Number       Type             X           Y           Z
 ---------------------------------------------------------------------
      1          6           0        0.662319    2.141660   -0.376838
      2          1           0        1.730567    2.314007   -0.526303
      3          1           0        0.367584    2.439003    0.631804
      4          1           0        0.086986    2.676957   -1.134515
      5          6           0        1.601209   -1.287603   -0.929836
      6          1           0        0.854165   -2.066366   -1.119770
      7          1           0        2.494057   -1.789722   -0.538883
      8          1           0        1.853238   -0.820502   -1.888079
      9          6           0        1.071636   -0.248599    0.032233
     10          8           0        1.931973    0.304045    0.941992
     11          1           0        2.767326   -0.192914    1.018645
     12          8           0       -2.018717   -0.504186   -0.346784
     13          1           0       -1.654279    0.259832   -0.847583
     14          8           0        0.335380    0.742256   -0.618844
     15          1           0       -1.113360   -0.725756    0.392685
     16          8           0        0.021064   -0.962304    0.883745
     17          1           0        0.068078   -0.606483    1.797191
     18          6           0       -3.280073   -0.143688    0.317663
     19          1           0       -3.593416   -1.042107    0.852274
     20          1           0       -3.128853    0.698920    0.995704
     21          1           0       -4.003049    0.095258   -0.465022
 ---------------------------------------------------------------------
                    Distance matrix (angstroms):
                    1          2          3          4          5
     1  C    0.000000
     2  H    1.092335   0.000000
     3  H    1.092080   1.792918   0.000000
     4  H    1.091617   1.789697   1.804229   0.000000
     5  C    3.598217   3.626454   4.224706   4.248824   0.000000
     6  H    4.277410   4.506434   4.858304   4.804987   1.095729
     7  H    4.340194   4.174167   4.875911   5.108816   1.096424
     8  H    3.532214   3.419741   4.379651   3.989953   1.095414
     9  C    2.459312   2.704275   2.842249   3.299957   1.511805
    10  O    2.593870   2.497279   2.664878   3.653297   2.479211
    11  H    3.439282   3.121920   3.582651   4.478447   2.520863
    12  O    3.766876   4.693780   3.913366   3.895405   3.749341
    13  H    3.021507   3.972410   3.320438   2.992797   3.605486
    14  O    1.457322   2.103689   2.108105   2.017594   2.412337
    15  H    3.459375   4.262935   3.502295   3.918115   3.071420
    16  O    3.410992   3.955356   3.428183   4.161964   2.427293
    17  H    3.554126   4.085554   3.274571   4.401845   3.201733
    18  C    4.609512   5.644382   4.480444   4.626223   5.166402
    19  H    5.455123   6.442730   5.277903   5.596796   5.497301
    20  H    4.282330   5.342188   3.922421   4.334984   5.479732
    21  H    5.095213   6.148248   5.079233   4.882805   5.791034
                    6          7          8          9         10
     6  H    0.000000
     7  H    1.761592   0.000000
     8  H    1.772180   1.780553   0.000000
     9  C    2.163025   2.173595   2.150714   0.000000
    10  O    3.321352   2.625411   3.046326   1.368670   0.000000
    11  H    3.426781   2.247301   3.111024   1.962518   0.975017
    12  O    3.360263   4.696236   4.179435   3.123981   4.233454
    13  H    3.431847   4.637312   3.814764   2.909156   4.008209
    14  O    2.899728   3.328242   2.521321   1.395624   2.275378
    15  H    2.820622   3.874700   3.743202   2.265350   3.261331
    16  O    2.434560   2.970553   3.325654   1.529100   2.293165
    17  H    3.355273   3.569687   4.100465   2.061622   2.243776
    18  C    4.780672   6.064955   5.627988   4.362321   5.268366
    19  H    4.971825   6.289004   6.101203   4.802586   5.687715
    20  H    5.290223   6.337618   5.953660   4.412502   5.076492
    21  H    5.356664   6.765427   6.095884   5.110570   6.103096
                   11         12         13         14         15
    11  H    0.000000
    12  O    4.986732   0.000000
    13  H    4.820620   0.983533   0.000000
    14  O    3.077381   2.677575   2.060049   0.000000
    15  H    3.966796   1.189781   1.673990   2.297194   0.000000
    16  O    2.855190   2.425857   2.701460   2.293925   1.258576
    17  H    2.839562   2.993628   3.272896   2.779887   1.839201
    18  C    6.088089   1.470533   2.040547   3.838417   2.244789
    19  H    6.419334   2.051043   2.888738   4.558901   2.542042
    20  H    5.963289   2.117106   2.401015   3.822244   2.540776
    21  H    6.937023   2.076268   2.385405   4.389105   3.124105
                   16         17         18         19         20
    16  O    0.000000
    17  H    0.981429   0.000000
    18  C    3.447911   3.689620   0.000000
    19  H    3.615498   3.806465   1.091398   0.000000
    20  H    3.562889   3.544972   1.092060   1.807641   0.000000
    21  H    4.373911   4.710003   1.091964   1.787922   1.806197
                   21
    21  H    0.000000
 Stoichiometry    C4H13O4(1+)
 Framework group  C1[X(C4H13O4)]
 Deg. of freedom    57
 Full point group                 C1      NOp   1
 Largest Abelian subgroup         C1      NOp   1
 Largest concise Abelian subgroup C1      NOp   1
                         Standard orientation:                         
 ---------------------------------------------------------------------
 Center     Atomic      Atomic             Coordinates (Angstroms)
 Number     Number       Type             X           Y           Z
 ---------------------------------------------------------------------
      1          6           0        0.847242    2.098861   -0.150584
      2          1           0        1.929472    2.199291   -0.259620
      3          1           0        0.547532    2.317763    0.876497
      4          1           0        0.337041    2.750545   -0.862364
      5          6           0        1.533581   -1.323020   -1.026277
      6          1           0        0.734307   -2.017098   -1.309187
      7          1           0        2.373316   -1.930941   -0.669314
      8          1           0        1.848409   -0.785228   -1.927163
      9          6           0        1.058535   -0.345114    0.024238
     10          8           0        1.932546    0.044578    1.002759
     11          1           0        2.724410   -0.522611    1.046407
     12          8           0       -2.030160   -0.314523   -0.442975
     13          1           0       -1.593484    0.463654   -0.856605
     14          8           0        0.420133    0.760767   -0.539002
     15          1           0       -1.166273   -0.679567    0.289161
     16          8           0       -0.068121   -1.053232    0.777474
     17          1           0       -0.019990   -0.794209    1.722880
     18          6           0       -3.278422    0.078162    0.227926
     19          1           0       -3.675545   -0.840747    0.662726
     20          1           0       -3.082026    0.834951    0.990353
     21          1           0       -3.957965    0.450147   -0.541641
 ---------------------------------------------------------------------
 Rotational constants (GHZ):      2.5964842      1.1666349      0.9993474
 Standard basis: 6-31+G(d) (6D, 7F)
 There are   178 symmetry adapted cartesian basis functions of A   symmetry.
 There are   178 symmetry adapted basis functions of A   symmetry.
   178 basis functions,   308 primitive gaussians,   178 cartesian basis functions
    34 alpha electrons       34 beta electrons
       nuclear repulsion energy       456.0484391804 Hartrees.
 NAtoms=   21 NActive=   21 NUniq=   21 SFac= 1.00D+00 NAtFMM=   60 NAOKFM=F Big=F
 Integral buffers will be    131072 words long.
 Raffenetti 2 integral format.
 Two-electron integral symmetry is turned on.
 One-electron integrals computed using PRISM.
 NBasis=   178 RedAO= T EigKep=  3.70D-05  NBF=   178
 NBsUse=   178 1.00D-06 EigRej= -1.00D+00 NBFU=   178
 Initial guess from the checkpoint file:  "/data/sawal/gaussian/Gau-24481.chk"
 B after Tr=     0.000000    0.000000    0.000000
         Rot=    0.997873   -0.049875    0.013104    0.039888 Ang=  -7.48 deg.
 ExpMin= 4.38D-02 ExpMax= 5.48D+03 ExpMxC= 8.25D+02 IAcc=2 IRadAn=         4 AccDes= 0.00D+00
 Harris functional with IExCor= 3102 and IRadAn=       4 diagonalized for initial guess.
 HarFok:  IExCor= 3102 AccDes= 0.00D+00 IRadAn=         4 IDoV= 1 UseB2=F ITyADJ=14
 ICtDFT=  3500011 ScaDFX=  1.000000  1.000000  1.000000  1.000000
 FoFCou: FMM=F IPFlag=           0 FMFlag=      100000 FMFlg1=           0
         NFxFlg=           0 DoJE=T BraDBF=F KetDBF=T FulRan=T
         wScrn=  0.000000 ICntrl=     500 IOpCl=  0 I1Cent=   200000004 NGrid=           0
         NMat0=    1 NMatS0=      1 NMatT0=    0 NMatD0=    1 NMtDS0=    0 NMtDT0=    0
 Petite list used in FoFCou.
 Requested convergence on RMS density matrix=1.00D-08 within 128 cycles.
 Requested convergence on MAX density matrix=1.00D-06.
 Requested convergence on             energy=1.00D-06.
 No special actions if energy rises.
 SCF Done:  E(RX3LYP) =  -460.686217027     A.U. after   11 cycles
            NFock= 11  Conv=0.71D-08     -V/T= 2.0089
 Calling FoFJK, ICntrl=      2127 FMM=F ISym2X=0 I1Cent= 0 IOpClX= 0 NMat=1 NMatS=1 NMatT=0.
 ***** Axes restored to original set *****
 -------------------------------------------------------------------
 Center     Atomic                   Forces (Hartrees/Bohr)
 Number     Number              X              Y              Z
 -------------------------------------------------------------------
      1        6           0.000341221   -0.002328890   -0.003282683
      2        1          -0.001573827    0.000361262    0.000182757
      3        1           0.000042490    0.001127422   -0.000184404
      4        1           0.000671744    0.000957884    0.002052748
      5        6           0.004080965   -0.005202519   -0.006512078
      6        1           0.000004249    0.002985742    0.000452074
      7        1          -0.001657248    0.000361081    0.001468160
      8        1           0.000918313    0.000933691    0.002912487
      9        6          -0.009231267    0.005674350    0.007340919
     10        8           0.006694532   -0.001345036   -0.003240219
     11        1          -0.003613097    0.000797500   -0.001097649
     12        8           0.000983517    0.007187647    0.008781615
     13        1          -0.000238540   -0.003701408   -0.001068320
     14        8           0.006489395    0.001905403   -0.001353994
     15        1           0.000544134   -0.005973475   -0.008951946
     16        8          -0.005890248    0.000344721    0.007664975
     17        1           0.003589457   -0.001419004   -0.003409062
     18        6          -0.002891990   -0.004750455   -0.003353224
     19        1          -0.000054914    0.002082176    0.000041128
     20        1           0.000163049   -0.000199979   -0.000081044
     21        1           0.000628066    0.000201888    0.001637759
 -------------------------------------------------------------------
 Cartesian Forces:  Max     0.009231267 RMS     0.003689914

 GradGradGradGradGradGradGradGradGradGradGradGradGradGradGradGradGradGrad
 Berny optimization.
 FormGI is forming the generalized inverse of G from B-inverse, IUseBI=4.
 Internal  Forces:  Max     0.010740088 RMS     0.002584753
 Search for a saddle point.
 Step number   2 out of a maximum of   50
 All quantities printed in internal units (Hartrees-Bohrs-Radians)
 Swapping is turned off.
 Update second derivatives using D2CorX and points    1    2
 ITU=  0  0
     Eigenvalues ---   -0.03228  -0.00359  -0.00188  -0.00060   0.00102
     Eigenvalues ---    0.00224   0.00334   0.00432   0.01486   0.02312
     Eigenvalues ---    0.04003   0.04312   0.04506   0.04965   0.05610
     Eigenvalues ---    0.06305   0.06551   0.07763   0.08447   0.08593
     Eigenvalues ---    0.08783   0.09787   0.11341   0.12302   0.13301
     Eigenvalues ---    0.13680   0.14141   0.14710   0.14994   0.15911
     Eigenvalues ---    0.16492   0.17443   0.18303   0.19051   0.19500
     Eigenvalues ---    0.19614   0.19795   0.20903   0.26589   0.31371
     Eigenvalues ---    0.31697   0.32058   0.32762   0.33063   0.33218
     Eigenvalues ---    0.33531   0.33630   0.33885   0.34023   0.35208
     Eigenvalues ---    0.35377   0.35479   0.41074   0.41944   0.42277
     Eigenvalues ---    0.50582   0.71369
 Eigenvectors required to have negative eigenvalues:
                          R16       R14       R11       A24       A20
   1                   -0.68464   0.61564   0.17941   0.16575   0.10003
                          R10       D16       D25       D26       D7
   1                   -0.09706  -0.07739  -0.07190  -0.06730  -0.06661
 RFO step:  Lambda0=5.665633916D-06 Lambda=-6.28769624D-03.
 Linear search not attempted -- option 19 set.
 Iteration  1 RMS(Cart)=  0.16630666 RMS(Int)=  0.03707354
 Iteration  2 RMS(Cart)=  0.04225485 RMS(Int)=  0.00229537
 Iteration  3 RMS(Cart)=  0.00227348 RMS(Int)=  0.00063642
 Iteration  4 RMS(Cart)=  0.00000491 RMS(Int)=  0.00063641
 Iteration  5 RMS(Cart)=  0.00000000 RMS(Int)=  0.00063641
 Variable       Old X    -DE/DX   Delta X   Delta X   Delta X     New X
                                 (Linear)    (Quad)   (Total)
    R1        2.06421  -0.00151   0.00000  -0.00191  -0.00191   2.06230
    R2        2.06373   0.00013   0.00000  -0.00054  -0.00054   2.06319
    R3        2.06286  -0.00131   0.00000  -0.00347  -0.00347   2.05938
    R4        2.75394  -0.00020   0.00000  -0.00827  -0.00827   2.74566
    R5        2.07063  -0.00221   0.00000  -0.00549  -0.00549   2.06514
    R6        2.07194  -0.00099   0.00000  -0.00332  -0.00332   2.06862
    R7        2.07003  -0.00193   0.00000  -0.00423  -0.00423   2.06580
    R8        2.85690   0.00287   0.00000   0.01054   0.01054   2.86744
    R9        2.58641  -0.00117   0.00000   0.00109   0.00109   2.58750
   R10        2.63735  -0.00051   0.00000  -0.01488  -0.01488   2.62247
   R11        2.88958   0.00579   0.00000  -0.00170  -0.00170   2.88788
   R12        1.84251  -0.00359   0.00000  -0.00510  -0.00510   1.83742
   R13        1.85861  -0.00242   0.00000   0.00134   0.00134   1.85995
   R14        2.24836  -0.00248   0.00000  -0.01126  -0.01126   2.23710
   R15        2.77890   0.00040   0.00000  -0.00548  -0.00548   2.77343
   R16        2.37836   0.00098   0.00000  -0.00906  -0.00906   2.36930
   R17        1.85463  -0.00352   0.00000  -0.00623  -0.00623   1.84840
   R18        2.06244  -0.00168   0.00000  -0.00453  -0.00453   2.05792
   R19        2.06369  -0.00018   0.00000  -0.00073  -0.00073   2.06296
   R20        2.06351  -0.00155   0.00000  -0.00439  -0.00439   2.05912
    A1        1.92554  -0.00083   0.00000  -0.00424  -0.00427   1.92127
    A2        1.92099  -0.00082   0.00000  -0.00393  -0.00397   1.91702
    A3        1.92643   0.00043   0.00000   0.00299   0.00296   1.92938
    A4        1.94475  -0.00193   0.00000  -0.01493  -0.01497   1.92979
    A5        1.93294   0.00098   0.00000   0.00730   0.00727   1.94021
    A6        1.81047   0.00234   0.00000   0.01380   0.01376   1.82422
    A7        1.86661   0.00162   0.00000   0.01074   0.01063   1.87724
    A8        1.88419   0.00187   0.00000   0.01133   0.01116   1.89536
    A9        1.93900  -0.00160   0.00000  -0.01519  -0.01533   1.92367
   A10        1.89636   0.00144   0.00000   0.02256   0.02253   1.91890
   A11        1.95312  -0.00149   0.00000  -0.01165  -0.01172   1.94140
   A12        1.92220  -0.00157   0.00000  -0.01548  -0.01557   1.90663
   A13        2.07180  -0.00258   0.00000  -0.03471  -0.03470   2.03711
   A14        1.95612  -0.00093   0.00000   0.00088   0.00082   1.95694
   A15        1.84863  -0.00264   0.00000  -0.00326  -0.00319   1.84543
   A16        1.93374  -0.00002   0.00000   0.01056   0.01015   1.94389
   A17        1.82367   0.00192   0.00000   0.01744   0.01721   1.84088
   A18        1.80155   0.00563   0.00000   0.01735   0.01722   1.81877
   A19        1.96601  -0.00259   0.00000  -0.01789  -0.01789   1.94812
   A20        1.75094  -0.00120   0.00000   0.05311   0.04965   1.80059
   A21        1.93635   0.00190   0.00000   0.02717   0.02384   1.96019
   A22        2.00152   0.00451   0.00000   0.05778   0.05554   2.05706
   A23        2.07823   0.00151   0.00000   0.00184   0.00184   2.08007
   A24        2.87013   0.00781   0.00000   0.05875   0.05875   2.92888
   A25        1.89049   0.01074   0.00000   0.00040   0.00027   1.89077
   A26        1.89248  -0.00516   0.00000  -0.01605  -0.01640   1.87608
   A27        1.91578   0.00109   0.00000   0.06300   0.06303   1.97881
   A28        1.83982   0.00162   0.00000   0.00575   0.00573   1.84556
   A29        1.92934  -0.00093   0.00000  -0.00547  -0.00547   1.92388
   A30        1.87307   0.00113   0.00000   0.00444   0.00442   1.87749
   A31        1.95063  -0.00077   0.00000  -0.00611  -0.00610   1.94453
   A32        1.91893  -0.00040   0.00000   0.00419   0.00415   1.92308
   A33        1.94752  -0.00047   0.00000  -0.00197  -0.00196   1.94555
    D1        0.90005   0.00026   0.00000   0.03874   0.03872   0.93877
    D2       -1.23756   0.00035   0.00000   0.03710   0.03711  -1.20045
    D3        2.95733   0.00079   0.00000   0.04314   0.04315   3.00047
    D4        2.50469   0.00174   0.00000   0.31145   0.31142   2.81612
    D5       -1.48832  -0.00193   0.00000   0.29319   0.29325  -1.19507
    D6        0.46400   0.00281   0.00000   0.31223   0.31215   0.77615
    D7        0.41962   0.00177   0.00000   0.31595   0.31591   0.73553
    D8        2.70979  -0.00190   0.00000   0.29768   0.29774   3.00753
    D9       -1.62108   0.00284   0.00000   0.31672   0.31664  -1.30444
   D10       -1.69171   0.00202   0.00000   0.30578   0.30580  -1.38591
   D11        0.59846  -0.00165   0.00000   0.28752   0.28763   0.88608
   D12        2.55077   0.00309   0.00000   0.30656   0.30653   2.85731
   D13       -0.24508  -0.00032   0.00000  -0.01962  -0.01953  -0.26461
   D14       -2.54518   0.00369   0.00000   0.00237   0.00245  -2.54273
   D15        1.80876  -0.00373   0.00000  -0.03074  -0.03090   1.77786
   D16       -2.24309   0.00211   0.00000   0.12119   0.12130  -2.12179
   D17        0.11503  -0.00249   0.00000   0.08232   0.08218   0.19721
   D18        2.05853   0.00251   0.00000   0.11515   0.11518   2.17371
   D19       -1.69204   0.00211   0.00000   0.03993   0.03983  -1.65222
   D20        2.51305  -0.00236   0.00000  -0.02656  -0.02651   2.48654
   D21        2.38982   0.00546   0.00000   0.07269   0.07273   2.46256
   D22        0.31173   0.00100   0.00000   0.00621   0.00640   0.31813
   D23        0.36634   0.00248   0.00000   0.04732   0.04716   0.41350
   D24       -1.71176  -0.00198   0.00000  -0.01916  -0.01917  -1.73093
   D25       -0.90990   0.00179   0.00000  -0.03267  -0.03118  -0.94108
   D26       -2.98540  -0.00182   0.00000  -0.12500  -0.12648  -3.11189
   D27       -3.12764  -0.00077   0.00000  -0.05013  -0.05067   3.10488
   D28       -1.01695  -0.00122   0.00000  -0.05698  -0.05753  -1.07448
   D29        1.11053  -0.00164   0.00000  -0.05985  -0.06042   1.05010
   D30       -1.15946   0.00173   0.00000   0.06967   0.07024  -1.08921
   D31        0.95123   0.00127   0.00000   0.06282   0.06338   1.01461
   D32        3.07871   0.00086   0.00000   0.05995   0.06049   3.13919
   D33        0.57954  -0.00002   0.00000  -0.04392  -0.04430   0.53524
   D34        2.64286   0.00066   0.00000  -0.02721  -0.02682   2.61604
         Item               Value     Threshold  Converged?
 Maximum Force            0.010740     0.000450     NO 
 RMS     Force            0.002585     0.000300     NO 
 Maximum Displacement     0.587187     0.001800     NO 
 RMS     Displacement     0.188787     0.001200     NO 
 Predicted change in Energy=-6.016478D-03
 GradGradGradGradGradGradGradGradGradGradGradGradGradGradGradGradGradGrad

                          Input orientation:                          
 ---------------------------------------------------------------------
 Center     Atomic      Atomic             Coordinates (Angstroms)
 Number     Number       Type             X           Y           Z
 ---------------------------------------------------------------------
      1          6           0        0.826684    2.189341   -0.448600
      2          1           0        1.879517    2.267079   -0.725157
      3          1           0        0.678310    2.556247    0.568934
      4          1           0        0.216696    2.755203   -1.152400
      5          6           0        1.562168   -1.247684   -0.911437
      6          1           0        0.723392   -1.806077   -1.334421
      7          1           0        2.218427   -1.966568   -0.410609
      8          1           0        2.100260   -0.756396   -1.726376
      9          6           0        1.056287   -0.196583    0.058987
     10          8           0        1.965640    0.306863    0.950313
     11          1           0        2.763725   -0.246405    0.998901
     12          8           0       -2.059180   -0.458388   -0.301263
     13          1           0       -1.786552    0.347064   -0.796893
     14          8           0        0.363513    0.818962   -0.584897
     15          1           0       -1.127982   -0.673134    0.397439
     16          8           0       -0.004913   -0.893992    0.909205
     17          1           0        0.079320   -0.553314    1.822215
     18          6           0       -3.372644   -0.303193    0.334883
     19          1           0       -3.582981   -1.257689    0.815113
     20          1           0       -3.346366    0.511247    1.061345
     21          1           0       -4.099487   -0.110876   -0.453805
 ---------------------------------------------------------------------
                    Distance matrix (angstroms):
                    1          2          3          4          5
     1  C    0.000000
     2  H    1.091322   0.000000
     3  H    1.091792   1.789186   0.000000
     4  H    1.089779   1.784874   1.793227   0.000000
     5  C    3.545179   3.533973   4.176433   4.229830   0.000000
     6  H    4.093740   4.277665   4.759691   4.592945   1.092823
     7  H    4.382918   4.258822   4.877225   5.181921   1.094668
     8  H    3.454283   3.192580   4.273639   4.025989   1.093176
     9  C    2.450101   2.713341   2.825064   3.299305   1.517383
    10  O    2.607278   2.580128   2.619618   3.670773   2.458763
    11  H    3.432236   3.173610   3.519757   4.486101   2.468945
    12  O    3.919234   4.808450   4.164028   4.028798   3.756257
    13  H    3.216254   4.139041   3.580715   3.152542   3.710832
    14  O    1.452943   2.101186   2.109167   2.023029   2.411312
    15  H    3.567950   4.353174   3.704188   3.995454   3.046338
    16  O    3.470177   4.026733   3.533657   4.197136   2.428081
    17  H    3.638311   4.205285   3.405712   4.451234   3.186510
    18  C    4.945798   5.942657   4.964011   4.944608   5.176654
    19  H    5.737955   6.680965   5.724100   5.866170   5.427120
    20  H    4.744500   5.795203   4.541202   4.757249   5.574891
    21  H    5.436744   6.440247   5.566587   5.227990   5.792763
                    6          7          8          9         10
     6  H    0.000000
     7  H    1.764742   0.000000
     8  H    1.775168   1.791570   0.000000
     9  C    2.154733   2.168856   2.142613   0.000000
    10  O    3.350776   2.661672   2.883280   1.369248   0.000000
    11  H    3.469859   2.289766   2.850861   1.949683   0.972320
    12  O    3.259814   4.537013   4.406892   3.147135   4.283833
    13  H    3.350339   4.641333   4.145946   3.018248   4.139237
    14  O    2.753566   3.351157   2.607876   1.387751   2.277262
    15  H    2.776776   3.677549   3.865109   2.261124   3.291893
    16  O    2.529068   2.799208   3.375940   1.528200   2.307991
    17  H    3.456674   3.399790   4.088758   2.047119   2.249071
    18  C    4.671482   5.880701   5.865736   4.438797   5.408160
    19  H    4.844180   5.971703   6.245774   4.818764   5.766567
    20  H    5.260476   6.266828   6.248523   4.570459   5.317095
    21  H    5.187423   6.584945   6.361839   5.181922   6.239536
                   11         12         13         14         15
    11  H    0.000000
    12  O    4.999578   0.000000
    13  H    4.927687   0.984241   0.000000
    14  O    3.066666   2.753455   2.211427   0.000000
    15  H    3.960964   1.183820   1.703217   2.327207   0.000000
    16  O    2.844780   2.423839   2.761381   2.302670   1.253781
    17  H    2.824548   3.015187   3.339444   2.785335   1.871342
    18  C    6.172452   1.467635   2.054127   4.008004   2.275802
    19  H    6.429397   2.051132   2.898440   4.674112   2.557963
    20  H    6.157203   2.110388   2.431670   4.070381   2.600914
    21  H    7.016581   2.075304   2.382664   4.560719   3.141750
                   16         17         18         19         20
    16  O    0.000000
    17  H    0.978133   0.000000
    18  C    3.467059   3.767064   0.000000
    19  H    3.597735   3.863010   1.089002   0.000000
    20  H    3.628105   3.667088   1.091673   1.801596   0.000000
    21  H    4.385955   4.778958   1.089640   1.786648   1.802750
                   21
    21  H    0.000000
 Stoichiometry    C4H13O4(1+)
 Framework group  C1[X(C4H13O4)]
 Deg. of freedom    57
 Full point group                 C1      NOp   1
 Largest Abelian subgroup         C1      NOp   1
 Largest concise Abelian subgroup C1      NOp   1
                         Standard orientation:                         
 ---------------------------------------------------------------------
 Center     Atomic      Atomic             Coordinates (Angstroms)
 Number     Number       Type             X           Y           Z
 ---------------------------------------------------------------------
      1          6           0        1.154358    2.060795   -0.099025
      2          1           0        2.217524    2.025081   -0.342717
      3          1           0        1.020114    2.282508    0.961556
      4          1           0        0.659272    2.812793   -0.713035
      5          6           0        1.409893   -1.332497   -1.093293
      6          1           0        0.517277   -1.688789   -1.613441
      7          1           0        1.936867   -2.209154   -0.703332
      8          1           0        2.043990   -0.804752   -1.810537
      9          6           0        1.021450   -0.382584    0.024396
     10          8           0        1.957713   -0.163282    0.999157
     11          1           0        2.666257   -0.828569    0.971482
     12          8           0       -2.083018   -0.124361   -0.422886
     13          1           0       -1.679172    0.699540   -0.779013
     14          8           0        0.506250    0.811500   -0.459944
     15          1           0       -1.219997   -0.579799    0.247339
     16          8           0       -0.160772   -1.040288    0.735149
     17          1           0       -0.064616   -0.862097    1.692096
     18          6           0       -3.384812    0.121177    0.208775
     19          1           0       -3.747696   -0.855065    0.526884
     20          1           0       -3.271137    0.799711    1.056371
     21          1           0       -4.045400    0.538690   -0.550580
 ---------------------------------------------------------------------
 Rotational constants (GHZ):      2.6269712      1.1165341      0.9621227
 Standard basis: 6-31+G(d) (6D, 7F)
 There are   178 symmetry adapted cartesian basis functions of A   symmetry.
 There are   178 symmetry adapted basis functions of A   symmetry.
   178 basis functions,   308 primitive gaussians,   178 cartesian basis functions
    34 alpha electrons       34 beta electrons
       nuclear repulsion energy       453.4722798820 Hartrees.
 NAtoms=   21 NActive=   21 NUniq=   21 SFac= 1.00D+00 NAtFMM=   60 NAOKFM=F Big=F
 Integral buffers will be    131072 words long.
 Raffenetti 2 integral format.
 Two-electron integral symmetry is turned on.
 One-electron integrals computed using PRISM.
 NBasis=   178 RedAO= T EigKep=  3.72D-05  NBF=   178
 NBsUse=   178 1.00D-06 EigRej= -1.00D+00 NBFU=   178
 Initial guess from the checkpoint file:  "/data/sawal/gaussian/Gau-24481.chk"
 B after Tr=     0.000000    0.000000    0.000000
         Rot=    0.999085   -0.027727    0.000109    0.032568 Ang=  -4.90 deg.
 ExpMin= 4.38D-02 ExpMax= 5.48D+03 ExpMxC= 8.25D+02 IAcc=2 IRadAn=         4 AccDes= 0.00D+00
 Harris functional with IExCor= 3102 and IRadAn=       4 diagonalized for initial guess.
 HarFok:  IExCor= 3102 AccDes= 0.00D+00 IRadAn=         4 IDoV= 1 UseB2=F ITyADJ=14
 ICtDFT=  3500011 ScaDFX=  1.000000  1.000000  1.000000  1.000000
 FoFCou: FMM=F IPFlag=           0 FMFlag=      100000 FMFlg1=           0
         NFxFlg=           0 DoJE=T BraDBF=F KetDBF=T FulRan=T
         wScrn=  0.000000 ICntrl=     500 IOpCl=  0 I1Cent=   200000004 NGrid=           0
         NMat0=    1 NMatS0=      1 NMatT0=    0 NMatD0=    1 NMtDS0=    0 NMtDT0=    0
 Petite list used in FoFCou.
 Requested convergence on RMS density matrix=1.00D-08 within 128 cycles.
 Requested convergence on MAX density matrix=1.00D-06.
 Requested convergence on             energy=1.00D-06.
 No special actions if energy rises.
 SCF Done:  E(RX3LYP) =  -460.691012718     A.U. after   11 cycles
            NFock= 11  Conv=0.46D-08     -V/T= 2.0089
 Calling FoFJK, ICntrl=      2127 FMM=F ISym2X=0 I1Cent= 0 IOpClX= 0 NMat=1 NMatS=1 NMatT=0.
 ***** Axes restored to original set *****
 -------------------------------------------------------------------
 Center     Atomic                   Forces (Hartrees/Bohr)
 Number     Number              X              Y              Z
 -------------------------------------------------------------------
      1        6           0.000469346    0.000123360   -0.000741486
      2        1          -0.000150068    0.000000819   -0.000101956
[...]
     1  C    0.000000
     2  H    1.094120   0.000000
     3  H    1.091391   1.800759   0.000000
     4  H    1.089239   1.784716   1.787259   0.000000
     5  C    3.137373   2.919032   3.546075   4.073069   0.000000
     6  H    3.487664   3.181339   4.156229   4.235475   1.092900
     7  H    4.123817   3.941044   4.370165   5.097030   1.093980
     8  H    2.933209   2.412759   3.258840   3.926507   1.093484
     9  C    2.412400   2.758478   2.680943   3.281260   1.516508
    10  O    2.811108   3.302023   2.506313   3.733296   2.447630
    11  H    3.549374   3.825293   3.194951   4.551829   2.473084
    12  O    4.244521   4.635054   5.019186   4.363549   3.761236
    13  H    3.763784   4.213575   4.607792   3.673132   4.010696
    14  O    1.448513   2.100235   2.093837   2.026566   2.456394
    15  H    3.789020   4.245780   4.376629   4.163061   2.961580
    16  O    3.624350   4.096556   3.955230   4.248324   2.423347
    17  H    3.896406   4.560588   4.025549   4.452116   3.213518
    18  C    5.645491   6.087236   6.377109   5.669373   5.076728
    19  H    6.201164   6.577315   6.876940   6.385327   5.074811
    20  H    5.862165   6.470187   6.486227   5.795615   5.670224
    21  H    6.127508   6.471859   6.967986   6.031981   5.683632
                    6          7          8          9         10
     6  H    0.000000
     7  H    1.776565   0.000000
     8  H    1.775482   1.780745   0.000000
     9  C    2.153754   2.161339   2.146890   0.000000
    10  O    3.363467   2.724592   2.759501   1.373072   0.000000
    11  H    3.514558   2.392040   2.705306   1.954042   0.972152
    12  O    3.232430   4.325952   4.617603   3.235855   4.403129
    13  H    3.520877   4.759703   4.700155   3.354047   4.491646
    14  O    2.697807   3.376127   2.788364   1.382113   2.255307
    15  H    2.744768   3.411281   3.906459   2.239864   3.304937
    16  O    2.648860   2.669331   3.388625   1.512135   2.304715
    17  H    3.586120   3.387721   4.080939   2.016709   2.266250
    18  C    4.513144   5.476987   6.002988   4.553012   5.606656
    19  H    4.520660   5.262498   6.087804   4.721039   5.735934
    20  H    5.262063   6.076449   6.586189   4.881125   5.750762
    21  H    4.965389   6.160023   6.533779   5.308365   6.459335
                   11         12         13         14         15
    11  H    0.000000
    12  O    5.040198   0.000000
    13  H    5.244915   0.974237   0.000000
    14  O    3.082330   2.943658   2.650650   0.000000
    15  H    3.895088   1.222917   1.801207   2.351673   0.000000
    16  O    2.787647   2.419437   2.884471   2.245981   1.199093
    17  H    2.827164   2.943377   3.312763   2.601915   1.796749
    18  C    6.210133   1.464770   2.049861   4.336125   2.334282
    19  H    6.195752   2.049784   2.891862   4.814030   2.540886
    20  H    6.427441   2.107496   2.432065   4.576373   2.733378
    21  H    7.076576   2.077557   2.386505   4.941209   3.190019
                   16         17         18         19         20
    16  O    0.000000
    17  H    0.979085   0.000000
    18  C    3.438738   3.752409   0.000000
    19  H    3.442606   3.796905   1.089055   0.000000
    20  H    3.710928   3.743494   1.091722   1.798958   0.000000
    21  H    4.357057   4.758149   1.089913   1.786137   1.802471
                   21
    21  H    0.000000
 Stoichiometry    C4H13O4(1+)
 Framework group  C1[X(C4H13O4)]
 Deg. of freedom    57
 Full point group                 C1      NOp   1
 Largest Abelian subgroup         C1      NOp   1
 Largest concise Abelian subgroup C1      NOp   1
                         Standard orientation:                         
 ---------------------------------------------------------------------
 Center     Atomic      Atomic             Coordinates (Angstroms)
 Number     Number       Type             X           Y           Z
 ---------------------------------------------------------------------
      1          6           0        1.808530    1.822994    0.001852
      2          1           0        2.166865    1.810442   -1.031849
      3          1           0        2.610033    1.564780    0.696152
      4          1           0        1.410549    2.808635    0.239689
      5          6           0        1.181525   -0.912355   -1.400945
      6          1           0        0.352306   -0.600055   -2.040707
      7          1           0        1.257919   -2.003146   -1.434584
      8          1           0        2.106071   -0.478672   -1.791893
      9          6           0        0.955550   -0.433500    0.020122
     10          8           0        1.898447   -0.826220    0.937750
     11          1           0        2.375650   -1.621159    0.645469
     12          8           0       -2.168228    0.362704   -0.260648
     13          1           0       -1.915691    1.293985   -0.126188
     14          8           0        0.691533    0.915369    0.165326
     15          1           0       -1.279328   -0.367578    0.154168
     16          8           0       -0.347790   -1.051640    0.473731
     17          1           0       -0.289270   -1.124702    1.448330
     18          6           0       -3.565951    0.096969    0.087647
     19          1           0       -3.733900   -0.954747   -0.139790
     20          1           0       -3.736433    0.303386    1.146035
     21          1           0       -4.194378    0.722484   -0.546166
 ---------------------------------------------------------------------
 Rotational constants (GHZ):      2.8082018      1.0173858      0.9011267

 **********************************************************************

            Population analysis using the SCF density.

 **********************************************************************

 Orbital symmetries:
       Occupied  (A) (A) (A) (A) (A) (A) (A) (A) (A) (A) (A) (A)
                 (A) (A) (A) (A) (A) (A) (A) (A) (A) (A) (A) (A)
                 (A) (A) (A) (A) (A) (A) (A) (A) (A) (A)
       Virtual   (A) (A) (A) (A) (A) (A) (A) (A) (A) (A) (A) (A)
                 (A) (A) (A) (A) (A) (A) (A) (A) (A) (A) (A) (A)
                 (A) (A) (A) (A) (A) (A) (A) (A) (A) (A) (A) (A)
                 (A) (A) (A) (A) (A) (A) (A) (A) (A) (A) (A) (A)
                 (A) (A) (A) (A) (A) (A) (A) (A) (A) (A) (A) (A)
                 (A) (A) (A) (A) (A) (A) (A) (A) (A) (A) (A) (A)
                 (A) (A) (A) (A) (A) (A) (A) (A) (A) (A) (A) (A)
                 (A) (A) (A) (A) (A) (A) (A) (A) (A) (A) (A) (A)
                 (A) (A) (A) (A) (A) (A) (A) (A) (A) (A) (A) (A)
                 (A) (A) (A) (A) (A) (A) (A) (A) (A) (A) (A) (A)
                 (A) (A) (A) (A) (A) (A) (A) (A) (A) (A) (A) (A)
                 (A) (A) (A) (A) (A) (A) (A) (A) (A) (A) (A) (A)
 The electronic state is 1-A.
 Alpha  occ. eigenvalues --  -19.42733 -19.42670 -19.38078 -19.36734 -10.55589
 Alpha  occ. eigenvalues --  -10.43256 -10.39784 -10.36828  -1.30885  -1.26256
 Alpha  occ. eigenvalues --   -1.22201  -1.19902  -0.93132  -0.88975  -0.86904
 Alpha  occ. eigenvalues --   -0.80230  -0.77287  -0.75100  -0.70672  -0.68430
 Alpha  occ. eigenvalues --   -0.66435  -0.64049  -0.63317  -0.59947  -0.59742
 Alpha  occ. eigenvalues --   -0.57342  -0.56605  -0.56307  -0.54144  -0.53299
 Alpha  occ. eigenvalues --   -0.51305  -0.50347  -0.49434  -0.44877
 Alpha virt. eigenvalues --   -0.16136  -0.12991  -0.11855  -0.10065  -0.09218
 Alpha virt. eigenvalues --   -0.08979  -0.07411  -0.07187  -0.06098  -0.05845
 Alpha virt. eigenvalues --   -0.05013  -0.04609  -0.03651  -0.02686  -0.01917
 Alpha virt. eigenvalues --   -0.00755  -0.00375   0.00910   0.01444   0.01655
 Alpha virt. eigenvalues --    0.02920   0.03186   0.03551   0.04734   0.06030
 Alpha virt. eigenvalues --    0.06561   0.07475   0.07879   0.08662   0.09033
 Alpha virt. eigenvalues --    0.10440   0.10599   0.11280   0.11777   0.13037
 Alpha virt. eigenvalues --    0.14201   0.14289   0.15068   0.16642   0.16774
 Alpha virt. eigenvalues --    0.17084   0.18203   0.20469   0.21006   0.21423
 Alpha virt. eigenvalues --    0.22852   0.24185   0.26575   0.28170   0.30161
 Alpha virt. eigenvalues --    0.31509   0.48106   0.49739   0.50253   0.51159
 Alpha virt. eigenvalues --    0.54095   0.55197   0.56460   0.59118   0.62513
 Alpha virt. eigenvalues --    0.63286   0.65155   0.69118   0.74732   0.77929
 Alpha virt. eigenvalues --    0.78930   0.82141   0.84764   0.85631   0.87517
 Alpha virt. eigenvalues --    0.89448   0.90627   0.91262   0.93001   0.94938
 Alpha virt. eigenvalues --    0.96101   0.97754   1.00034   1.01150   1.01313
 Alpha virt. eigenvalues --    1.04322   1.05455   1.11133   1.12415   1.15062
 Alpha virt. eigenvalues --    1.16072   1.18032   1.20938   1.23145   1.26413
 Alpha virt. eigenvalues --    1.31722   1.32364   1.34084   1.38272   1.40069
 Alpha virt. eigenvalues --    1.42364   1.43955   1.49461   1.52499   1.57258
 Alpha virt. eigenvalues --    1.58756   1.61702   1.63987   1.64649   1.65852
 Alpha virt. eigenvalues --    1.70701   1.75143   1.79150   1.82228   1.86055
 Alpha virt. eigenvalues --    1.89738   1.90697   1.93567   1.95592   2.00005
 Alpha virt. eigenvalues --    2.05913   2.08458   2.09609   2.12273   2.13261
 Alpha virt. eigenvalues --    2.14659   2.16571   2.21208   2.25730   2.29260
 Alpha virt. eigenvalues --    2.32830   2.39404   2.44460   2.45587   2.59933
 Alpha virt. eigenvalues --    2.64013   2.67200   2.72576   2.73255   2.84347
 Alpha virt. eigenvalues --    2.87949   3.92246   4.04383   4.08145   4.13761
 Alpha virt. eigenvalues --    4.15998   4.20600   4.36512   4.47548
          Condensed to atoms (all electrons):
               1          2          3          4          5          6
     1  C    5.238931   0.379783   0.407690   0.391419   0.025226   0.002290
     2  H    0.379783   0.505382  -0.034703  -0.026197  -0.011618   0.000030
     3  H    0.407690  -0.034703   0.463430  -0.022228   0.004580   0.000016
     4  H    0.391419  -0.026197  -0.022228   0.463948  -0.001823  -0.000017
     5  C    0.025226  -0.011618   0.004580  -0.001823   5.867997   0.387020
     6  H    0.002290   0.000030   0.000016  -0.000017   0.387020   0.447195
     7  H    0.001532  -0.000116   0.000019   0.000002   0.410864  -0.021381
     8  H   -0.004597   0.001192   0.000015   0.000023   0.372241  -0.021355
     9  C   -0.200312   0.022483  -0.040137   0.010274  -0.292525  -0.052137
    10  O   -0.014683  -0.005378   0.015067   0.000142  -0.111368   0.007440
    11  H    0.000567   0.000162  -0.000810   0.000013   0.011191   0.000128
    12  O    0.004706  -0.000016  -0.000009  -0.000060   0.004427   0.001457
    13  H   -0.000626   0.000006   0.000006  -0.000029  -0.003252  -0.000038
    14  O    0.122254  -0.046987  -0.040272  -0.046875  -0.171385  -0.002154
    15  H    0.001745  -0.000037   0.000016   0.000003  -0.003977  -0.000435
    16  O    0.014419   0.000079  -0.000609  -0.000955   0.058126   0.000273
    17  H   -0.003106  -0.000001  -0.000002   0.000007  -0.020358  -0.000039
    18  C    0.000014  -0.000017   0.000042  -0.000090  -0.002512  -0.000246
    19  H    0.000060   0.000000   0.000000   0.000000  -0.000171   0.000000
    20  H   -0.000041   0.000000   0.000000   0.000000  -0.000486   0.000001
    21  H   -0.000002   0.000000   0.000000   0.000000   0.000434   0.000000
               7          8          9         10         11         12
     1  C    0.001532  -0.004597  -0.200312  -0.014683   0.000567   0.004706
     2  H   -0.000116   0.001192   0.022483  -0.005378   0.000162  -0.000016
     3  H    0.000019   0.000015  -0.040137   0.015067  -0.000810  -0.000009
     4  H    0.000002   0.000023   0.010274   0.000142   0.000013  -0.000060
     5  C    0.410864   0.372241  -0.292525  -0.111368   0.011191   0.004427
     6  H   -0.021381  -0.021355  -0.052137   0.007440   0.000128   0.001457
     7  H    0.459694  -0.023728  -0.078797  -0.002981   0.001592   0.000035
     8  H   -0.023728   0.448927  -0.021929  -0.004431  -0.000561   0.000023
     9  C   -0.078797  -0.021929   5.807977   0.317247  -0.011779  -0.029602
    10  O   -0.002981  -0.004431   0.317247   8.387063   0.185184   0.001431
    11  H    0.001592  -0.000561  -0.011779   0.185184   0.301945   0.000008
    12  O    0.000035   0.000023  -0.029602   0.001431   0.000008   8.545736
    13  H   -0.000001   0.000002   0.006344  -0.000059  -0.000002   0.210827
    14  O    0.009225  -0.004730   0.308115  -0.082220   0.008249   0.001864
    15  H    0.000128   0.000055  -0.002255   0.003690  -0.000152   0.090013
    16  O   -0.000410   0.003992  -0.125647  -0.084532  -0.000260  -0.024490
    17  H   -0.000088  -0.000111   0.058059   0.006873  -0.000822  -0.003391
    18  C    0.000097   0.000032  -0.002418   0.000315  -0.000008   0.070682
    19  H    0.000000   0.000000  -0.000752   0.000008   0.000000  -0.036786
    20  H    0.000000   0.000000   0.000751   0.000003   0.000000  -0.052301
    21  H    0.000000   0.000000  -0.000488   0.000000   0.000000  -0.032244
              13         14         15         16         17         18
     1  C   -0.000626   0.122254   0.001745   0.014419  -0.003106   0.000014
     2  H    0.000006  -0.046987  -0.000037   0.000079  -0.000001  -0.000017
     3  H    0.000006  -0.040272   0.000016  -0.000609  -0.000002   0.000042
     4  H   -0.000029  -0.046875   0.000003  -0.000955   0.000007  -0.000090
     5  C   -0.003252  -0.171385  -0.003977   0.058126  -0.020358  -0.002512
     6  H   -0.000038  -0.002154  -0.000435   0.000273  -0.000039  -0.000246
     7  H   -0.000001   0.009225   0.000128  -0.000410  -0.000088   0.000097
     8  H    0.000002  -0.004730   0.000055   0.003992  -0.000111   0.000032
     9  C    0.006344   0.308115  -0.002255  -0.125647   0.058059  -0.002418
    10  O   -0.000059  -0.082220   0.003690  -0.084532   0.006873   0.000315
    11  H   -0.000002   0.008249  -0.000152  -0.000260  -0.000822  -0.000008
    12  O    0.210827   0.001864   0.090013  -0.024490  -0.003391   0.070682
    13  H    0.253416   0.007842  -0.004208  -0.001924   0.000017  -0.014037
    14  O    0.007842   8.461076   0.008097  -0.165072  -0.009648   0.001612
    15  H   -0.004208   0.008097   0.187745   0.078912  -0.004552  -0.007658
    16  O   -0.001924  -0.165072   0.078912   8.880992   0.177850   0.003291
    17  H    0.000017  -0.009648  -0.004552   0.177850   0.230845  -0.000393
    18  C   -0.014037   0.001612  -0.007658   0.003291  -0.000393   5.134850
    19  H    0.003672   0.000166  -0.001804   0.001005  -0.000020   0.390153
    20  H   -0.002377  -0.000110  -0.000574   0.000118   0.000093   0.392609
    21  H   -0.003274   0.000044   0.001427  -0.000592   0.000002   0.387626
              19         20         21
     1  C    0.000060  -0.000041  -0.000002
     2  H    0.000000   0.000000   0.000000
     3  H    0.000000   0.000000   0.000000
     4  H    0.000000   0.000000   0.000000
     5  C   -0.000171  -0.000486   0.000434
     6  H    0.000000   0.000001   0.000000
     7  H    0.000000   0.000000   0.000000
     8  H    0.000000   0.000000   0.000000
     9  C   -0.000752   0.000751  -0.000488
    10  O    0.000008   0.000003   0.000000
    11  H    0.000000   0.000000   0.000000
    12  O   -0.036786  -0.052301  -0.032244
    13  H    0.003672  -0.002377  -0.003274
    14  O    0.000166  -0.000110   0.000044
    15  H   -0.001804  -0.000574   0.001427
    16  O    0.001005   0.000118  -0.000592
    17  H   -0.000020   0.000093   0.000002
    18  C    0.390153   0.392609   0.387626
    19  H    0.442683  -0.026511  -0.019705
    20  H   -0.026511   0.476889  -0.027249
    21  H   -0.019705  -0.027249   0.443258
 Mulliken charges:
               1
     1  C   -0.367269
     2  H    0.215951
     3  H    0.247889
     4  H    0.232443
     5  C   -0.522632
     6  H    0.251953
     7  H    0.244314
     8  H    0.254942
     9  C    0.327528
    10  O   -0.618811
    11  H    0.505355
    12  O   -0.752309
    13  H    0.547693
    14  O   -0.359092
    15  H    0.653823
    16  O   -0.814568
    17  H    0.568782
    18  C   -0.353943
    19  H    0.248004
    20  H    0.239184
    21  H    0.250762
 Sum of Mulliken charges =   1.00000
 Mulliken charges with hydrogens summed into heavy atoms:
               1
     1  C    0.329014
     5  C    0.228577
     9  C    0.327528
    10  O   -0.113456
    12  O   -0.204616
    14  O   -0.359092
    16  O    0.408036
    18  C    0.384007
 Electronic spatial extent (au):  <R**2>=           1385.9828
 Charge=              1.0000 electrons
 Dipole moment (field-independent basis, Debye):
    X=             -2.7399    Y=             -0.2628    Z=              0.1093  Tot=              2.7546
 Quadrupole moment (field-independent basis, Debye-Ang):
   XX=            -16.6307   YY=            -37.1552   ZZ=            -45.4736
   XY=             -4.4340   XZ=             -4.6027   YZ=             -1.4521
 Traceless Quadrupole moment (field-independent basis, Debye-Ang):
   XX=             16.4558   YY=             -4.0687   ZZ=            -12.3871
   XY=             -4.4340   XZ=             -4.6027   YZ=             -1.4521
 Octapole moment (field-independent basis, Debye-Ang**2):
  XXX=            -63.8261  YYY=              4.8178  ZZZ=              5.7555  XYY=             10.3565
  XXY=              1.3533  XXZ=              0.5737  XZZ=             -2.8272  YZZ=             -5.6324
  YYZ=              4.0450  XYZ=              0.9397
 Hexadecapole moment (field-independent basis, Debye-Ang**3):
 XXXX=           -807.0352 YYYY=           -309.4143 ZZZZ=           -193.6316 XXXY=            -42.5742
 XXXZ=              3.4655 YYYX=            -20.3813 YYYZ=             -6.8465 ZZZX=             -8.1446
 ZZZY=             -9.9897 XXYY=           -192.1319 XXZZ=           -220.5245 YYZZ=            -87.9497
 XXYZ=             -7.3268 YYXZ=              8.0785 ZZXY=             -2.0089
 N-N= 4.497371873806D+02 E-N=-1.966000290056D+03  KE= 4.566446441613D+02
 1\1\GINC-H44\FTS\RX3LYP\6-31+G(d)\C4H13O4(1+)\SAWAL\29-Sep-2015\0\\# o
 pt=(calcfc,ts,noeigentest,maxcycle=50) x3lyp/6-31+g(d) geom=connectivi
 ty\\tsb-3opt\\1,1\C,1.2632897077,2.1541300444,-0.7250353322\H,1.688254
 6575,1.8135178748,-1.6739749743\H,2.0506864205,2.4198898384,-0.0175663
 014\H,0.613674444,3.0105719375,-0.9009608238\C,1.4498150564,-0.9753670
 773,-0.8457143748\H,0.6180490668,-1.1786959377,-1.5248712107\H,1.80054
 51625,-1.9237477145,-0.4281556317\H,2.2616082483,-0.5159223366,-1.4163
 36203\C,1.0067350276,-0.0340607278,0.2576526986\O,1.9480106972,0.24197
 24029,1.2184503924\H,2.6300832776,-0.4493152004,1.2629303213\O,-2.1874
 955568,-0.2623299923,-0.2066149589\H,-2.1880700508,0.6730035339,-0.479
 1744658\O,0.4017892713,1.1370831862,-0.1579169512\H,-1.1763968768,-0.5
 012123508,0.4384756359\O,-0.1287808688,-0.7275334521,0.9761597574\H,-0
 .1255819317,-0.3778794043,1.8906755816\C,-3.4950430123,-0.7149778818,0
 .2739907994\H,-3.3756919428,-1.7717626646,0.5085179473\H,-3.7893355338
 ,-0.1459219267,1.1579723085\H,-4.2123112635,-0.5897351512,-0.537027214
 6\\Version=ES64L-G09RevD.01\State=1-A\HF=-460.694927\RMSD=3.733e-09\RM
 SF=8.991e-06\Dipole=-1.0173643,-0.3524841,0.1234217\Quadrupole=13.1989
 578,-6.026188,-7.1727698,0.3325265,-1.6696043,-3.4177677\PG=C01 [X(C4H
 13O4)]\\@


 WE MIGHT AS WELL ATTEMPT TO INTRODUCE A NEW PLANET 
 INTO THE SOLAR SYSTEM, OR TO ANNIHILATE ONE ALREADYIN EXISTENCE, 
 AS TO CREATE OR DESTROY A PARTICLE OF HYDROGEN.
 ALL THE CHANGES WE CAN PRODUCE CONSIST IN SEPARATING PARTICLES
 THAT ARE IN A STATE OF ... COMBINATION, AND JOINING 
 THOSE THAT WERE PREVIOUSLY AT A DISTANCE.

                                    -- JOHN DALTON, 1810
 Job cpu time:       0 days  1 hours  7 minutes 56.1 seconds.
 File lengths (MBytes):  RWF=     78 Int=      0 D2E=      0 Chk=      4 Scr=      1
 Normal termination of Gaussian 09 at Tue Sep 29 19:34:53 2015.
