 Entering Gaussian System, Link 0=g09
 Input=tsb-3opt.com
 Output=tsb-3opt.log
 Initial command:
 /apps/gaussian/g09/l1.exe "/data/sawal/gaussian/Gau-27574.inp" -scrdir="/data/sawal/gaussian/"
 Entering Link 1 = /apps/gaussian/g09/l1.exe PID=     27575.
  
 Copyright (c) 1988,1990,1992,1993,1995,1998,2003,2009,2013,
            Gaussian, Inc.  All Rights Reserved.
  
 This is part of the Gaussian(R) 09 program.  It is based on
 the Gaussian(R) 03 system (copyright 2003, Gaussian, Inc.),
 the Gaussian(R) 98 system (copyright 1998, Gaussian, Inc.),
 the Gaussian(R) 94 system (copyright 1995, Gaussian, Inc.),
 the Gaussian 92(TM) system (copyright 1992, Gaussian, Inc.),
 the Gaussian 90(TM) system (copyright 1990, Gaussian, Inc.),
 the Gaussian 88(TM) system (copyright 1988, Gaussian, Inc.),
 the Gaussian 86(TM) system (copyright 1986, Carnegie Mellon
 University), and the Gaussian 82(TM) system (copyright 1983,
 Carnegie Mellon University). Gaussian is a federally registered
 trademark of Gaussian, Inc.
  
 This software contains proprietary and confidential information,
 including trade secrets, belonging to Gaussian, Inc.
  
 This software is provided under written license and may be
 used, copied, transmitted, or stored only in accord with that
 written license.
  
 The following legend is applicable only to US Government
 contracts under FAR:
  
                    RESTRICTED RIGHTS LEGEND
  
 Use, reproduction and disclosure by the US Government is
 subject to restrictions as set forth in subparagraphs (a)
 and (c) of the Commercial Computer Software - Restricted
 Rights clause in FAR 52.227-19.
  
 Gaussian, Inc.
 340 Quinnipiac St., Bldg. 40, Wallingford CT 06492
  
  
 ---------------------------------------------------------------
 Warning -- This program may not be used in any manner that
 competes with the business of Gaussian, Inc. or will provide
 assistance to any competitor of Gaussian, Inc.  The licensee
 of this program is prohibited from giving any competitor of
 Gaussian, Inc. access to this program.  By using this program,
 the user acknowledges that Gaussian, Inc. is engaged in the
 business of creating and licensing software in the field of
 computational chemistry and represents and warrants to the
 licensee that it is not a competitor of Gaussian, Inc. and that
 it will not use this program in any manner prohibited above.
 ---------------------------------------------------------------
  

 Cite this work as:
 Gaussian 09, Revision D.01,
 M. J. Frisch, G. W. Trucks, H. B. Schlegel, G. E. Scuseria, 
 M. A. Robb, J. R. Cheeseman, G. Scalmani, V. Barone, B. Mennucci, 
 G. A. Petersson, H. Nakatsuji, M. Caricato, X. Li, H. P. Hratchian, 
 A. F. Izmaylov, J. Bloino, G. Zheng, J. L. Sonnenberg, M. Hada, 
 M. Ehara, K. Toyota, R. Fukuda, J. Hasegawa, M. Ishida, T. Nakajima, 
 Y. Honda, O. Kitao, H. Nakai, T. Vreven, J. A. Montgomery, Jr., 
 J. E. Peralta, F. Ogliaro, M. Bearpark, J. J. Heyd, E. Brothers, 
 K. N. Kudin, V. N. Staroverov, T. Keith, R. Kobayashi, J. Normand, 
 K. Raghavachari, A. Rendell, J. C. Burant, S. S. Iyengar, J. Tomasi, 
 M. Cossi, N. Rega, J. M. Millam, M. Klene, J. E. Knox, J. B. Cross, 
 V. Bakken, C. Adamo, J. Jaramillo, R. Gomperts, R. E. Stratmann, 
 O. Yazyev, A. J. Austin, R. Cammi, C. Pomelli, J. W. Ochterski, 
 R. L. Martin, K. Morokuma, V. G. Zakrzewski, G. A. Voth, 
 P. Salvador, J. J. Dannenberg, S. Dapprich, A. D. Daniels, 
 O. Farkas, J. B. Foresman, J. V. Ortiz, J. Cioslowski, 
 and D. J. Fox, Gaussian, Inc., Wallingford CT, 2013.
 
 ******************************************
 Gaussian 09:  ES64L-G09RevD.01 24-Apr-2013
                30-Sep-2015 
 ******************************************
 %nprocshared=5
 Will use up to    5 processors via shared memory.
 %nprocl=1
 Will use up to    1 processors via Linda.
 ----------------------------------------------------------------------
 # opt=(calcfc,ts,noeigentest) freq=noraman x3lyp/6-31+g(d) geom=connec
 tivity
 ----------------------------------------------------------------------
 1/5=1,10=4,11=1,14=-1,18=20,26=3,38=1,57=2/1,3;
 2/9=110,12=2,17=6,18=5,40=1/2;
 3/5=1,6=6,7=11,11=2,16=1,25=1,30=1,71=2,74=-33,140=1/1,2,3;
 4//1;
 5/5=2,38=5/2;
 8/6=4,10=90,11=11/1;
 11/6=1,8=1,9=11,15=111,16=1/1,2,10;
 10/6=1,13=1/2;
 6/7=2,8=2,9=2,10=2,28=1/1;
 7/10=1,18=20,25=1/1,2,3,16;
 1/5=1,10=4,11=1,14=-1,18=20,26=3/3(2);
 2/9=110/2;
 99//99;
 2/9=110/2;
 3/5=1,6=6,7=11,11=2,16=1,25=1,30=1,71=1,74=-33/1,2,3;
 4/5=5,16=3,69=1/1;
 5/5=2,38=5/2;
 7//1,2,3,16;
 1/5=1,11=1,14=-1,18=20,26=3/3(-5);
 2/9=110/2;
 6/7=2,8=2,9=2,10=2,19=2,28=1/1;
 99/9=1/99;
 -------------------
 Title Card Required
 -------------------
 Symbolic Z-matrix:
 Charge =  1 Multiplicity = 1
 C                    -3.68759   1.43451   0.03766 
 H                    -4.20423   0.69088  -0.53242 
 H                    -2.98499   1.94114  -0.59049 
 H                    -4.39241   2.13986   0.42575 
 C                    -1.7198   -1.97918   0.9582 
 H                    -1.77294  -1.97379   2.02686 
 H                    -0.92611  -2.62424   0.6438 
 H                    -2.64665  -2.33233   0.55678 
 C                    -1.45168  -0.55026   0.45035 
 O                    -1.38401  -0.57672  -0.9778 
 H                    -2.21664  -0.89774  -1.33172 
 O                    -1.06837   2.33096   2.48013 
 H                    -2.21116   1.73107   1.88087 
 O                    -2.99418   0.80859   1.12038 
 H                    -0.13353   1.37757   1.98503 
 O                     0.37925   0.23631   1.29168 
 H                     1.02292   0.47143   0.61935 
 C                    -0.819     3.67664   2.06556 
 H                     0.1044    4.01453   2.48753 
 H                    -0.75868   3.71558   0.99797 
 H                    -1.61612   4.3067    2.40098 
 

 GradGradGradGradGradGradGradGradGradGradGradGradGradGradGradGradGradGrad
 Berny optimization.
 Initialization pass.
                           ----------------------------
                           !    Initial Parameters    !
                           ! (Angstroms and Degrees)  !
 --------------------------                            --------------------------
 ! Name  Definition              Value          Derivative Info.                !
 --------------------------------------------------------------------------------
 ! R1    R(1,2)                  1.07           calculate D2E/DX2 analytically  !
 ! R2    R(1,3)                  1.07           calculate D2E/DX2 analytically  !
 ! R3    R(1,4)                  1.07           calculate D2E/DX2 analytically  !
 ! R4    R(1,14)                 1.43           calculate D2E/DX2 analytically  !
 ! R5    R(5,6)                  1.07           calculate D2E/DX2 analytically  !
 ! R6    R(5,7)                  1.07           calculate D2E/DX2 analytically  !
 ! R7    R(5,8)                  1.07           calculate D2E/DX2 analytically  !
 ! R8    R(5,9)                  1.54           calculate D2E/DX2 analytically  !
 ! R9    R(9,10)                 1.43           calculate D2E/DX2 analytically  !
 ! R10   R(9,14)                 2.1621         calculate D2E/DX2 analytically  !
 ! R11   R(9,16)                 2.1631         calculate D2E/DX2 analytically  !
 ! R12   R(10,11)                0.96           calculate D2E/DX2 analytically  !
 ! R13   R(12,13)                1.423          calculate D2E/DX2 analytically  !
 ! R14   R(12,15)                1.4241         calculate D2E/DX2 analytically  !
 ! R15   R(12,18)                1.43           calculate D2E/DX2 analytically  !
 ! R16   R(13,14)                1.4291         calculate D2E/DX2 analytically  !
 ! R17   R(15,16)                1.4304         calculate D2E/DX2 analytically  !
 ! R18   R(16,17)                0.96           calculate D2E/DX2 analytically  !
 ! R19   R(18,19)                1.07           calculate D2E/DX2 analytically  !
 ! R20   R(18,20)                1.07           calculate D2E/DX2 analytically  !
 ! R21   R(18,21)                1.07           calculate D2E/DX2 analytically  !
 ! A1    A(2,1,3)              109.4712         calculate D2E/DX2 analytically  !
 ! A2    A(2,1,4)              109.4712         calculate D2E/DX2 analytically  !
 ! A3    A(2,1,14)             109.4712         calculate D2E/DX2 analytically  !
 ! A4    A(3,1,4)              109.4712         calculate D2E/DX2 analytically  !
 ! A5    A(3,1,14)             109.4712         calculate D2E/DX2 analytically  !
 ! A6    A(4,1,14)             109.4712         calculate D2E/DX2 analytically  !
 ! A7    A(6,5,7)              109.4712         calculate D2E/DX2 analytically  !
 ! A8    A(6,5,8)              109.4712         calculate D2E/DX2 analytically  !
 ! A9    A(6,5,9)              109.4712         calculate D2E/DX2 analytically  !
 ! A10   A(7,5,8)              109.4712         calculate D2E/DX2 analytically  !
 ! A11   A(7,5,9)              109.4712         calculate D2E/DX2 analytically  !
 ! A12   A(8,5,9)              109.4712         calculate D2E/DX2 analytically  !
 ! A13   A(5,9,10)             108.6883         calculate D2E/DX2 analytically  !
 ! A14   A(5,9,14)             110.9006         calculate D2E/DX2 analytically  !
 ! A15   A(5,9,16)             110.8863         calculate D2E/DX2 analytically  !
 ! A16   A(10,9,14)            110.7865         calculate D2E/DX2 analytically  !
 ! A17   A(10,9,16)            110.8005         calculate D2E/DX2 analytically  !
 ! A18   A(14,9,16)            104.7619         calculate D2E/DX2 analytically  !
 ! A19   A(9,10,11)            109.4712         calculate D2E/DX2 analytically  !
 ! A20   A(13,12,15)            95.6552         calculate D2E/DX2 analytically  !
 ! A21   A(13,12,18)           114.4982         calculate D2E/DX2 analytically  !
 ! A22   A(15,12,18)           114.5029         calculate D2E/DX2 analytically  !
 ! A23   A(12,13,14)           159.4245         calculate D2E/DX2 analytically  !
 ! A24   A(1,14,9)             112.7306         calculate D2E/DX2 analytically  !
 ! A25   A(1,14,13)            112.7087         calculate D2E/DX2 analytically  !
 ! A26   A(9,14,13)            100.3523         calculate D2E/DX2 analytically  !
 ! A27   A(12,15,16)           159.7149         calculate D2E/DX2 analytically  !
 ! A28   A(9,16,15)            100.0911         calculate D2E/DX2 analytically  !
 ! A29   A(9,16,17)            112.5941         calculate D2E/DX2 analytically  !
 ! A30   A(15,16,17)           112.6075         calculate D2E/DX2 analytically  !
 ! A31   A(12,18,19)           109.4712         calculate D2E/DX2 analytically  !
 ! A32   A(12,18,20)           109.4712         calculate D2E/DX2 analytically  !
 ! A33   A(12,18,21)           109.4712         calculate D2E/DX2 analytically  !
 ! A34   A(19,18,20)           109.4712         calculate D2E/DX2 analytically  !
 ! A35   A(19,18,21)           109.4712         calculate D2E/DX2 analytically  !
 ! A36   A(20,18,21)           109.4712         calculate D2E/DX2 analytically  !
 ! D1    D(2,1,14,9)            63.6308         calculate D2E/DX2 analytically  !
 ! D2    D(2,1,14,13)          176.3692         calculate D2E/DX2 analytically  !
 ! D3    D(3,1,14,9)           -56.3692         calculate D2E/DX2 analytically  !
 ! D4    D(3,1,14,13)           56.3692         calculate D2E/DX2 analytically  !
 ! D5    D(4,1,14,9)          -176.3692         calculate D2E/DX2 analytically  !
 ! D6    D(4,1,14,13)          -63.6308         calculate D2E/DX2 analytically  !
 ! D7    D(6,5,9,10)          -179.9973         calculate D2E/DX2 analytically  !
 ! D8    D(6,5,9,14)           -57.9785         calculate D2E/DX2 analytically  !
 ! D9    D(6,5,9,16)            57.9757         calculate D2E/DX2 analytically  !
 ! D10   D(7,5,9,10)            60.0027         calculate D2E/DX2 analytically  !
 ! D11   D(7,5,9,14)          -177.9785         calculate D2E/DX2 analytically  !
 ! D12   D(7,5,9,16)           -62.0243         calculate D2E/DX2 analytically  !
 ! D13   D(8,5,9,10)           -59.9973         calculate D2E/DX2 analytically  !
 ! D14   D(8,5,9,14)            62.0215         calculate D2E/DX2 analytically  !
 ! D15   D(8,5,9,16)           177.9757         calculate D2E/DX2 analytically  !
 ! D16   D(5,9,10,11)           60.003          calculate D2E/DX2 analytically  !
 ! D17   D(14,9,10,11)         -62.0852         calculate D2E/DX2 analytically  !
 ! D18   D(16,9,10,11)        -177.9178         calculate D2E/DX2 analytically  !
 ! D19   D(5,9,14,1)          -120.2098         calculate D2E/DX2 analytically  !
 ! D20   D(5,9,14,13)          119.6571         calculate D2E/DX2 analytically  !
 ! D21   D(10,9,14,1)            0.5756         calculate D2E/DX2 analytically  !
 ! D22   D(10,9,14,13)        -119.5574         calculate D2E/DX2 analytically  !
 ! D23   D(16,9,14,1)          120.1022         calculate D2E/DX2 analytically  !
 ! D24   D(16,9,14,13)          -0.0308         calculate D2E/DX2 analytically  !
 ! D25   D(5,9,16,15)         -119.6874         calculate D2E/DX2 analytically  !
 ! D26   D(5,9,16,17)          120.5126         calculate D2E/DX2 analytically  !
 ! D27   D(10,9,16,15)         119.5274         calculate D2E/DX2 analytically  !
 ! D28   D(10,9,16,17)          -0.2726         calculate D2E/DX2 analytically  !
 ! D29   D(14,9,16,15)           0.0101         calculate D2E/DX2 analytically  !
 ! D30   D(14,9,16,17)        -119.7899         calculate D2E/DX2 analytically  !
 ! D31   D(15,12,13,14)         -0.0864         calculate D2E/DX2 analytically  !
 ! D32   D(18,12,13,14)        120.1206         calculate D2E/DX2 analytically  !
 ! D33   D(13,12,15,16)         -0.0077         calculate D2E/DX2 analytically  !
 ! D34   D(18,12,15,16)       -120.2109         calculate D2E/DX2 analytically  !
 ! D35   D(13,12,18,19)       -174.5345         calculate D2E/DX2 analytically  !
 ! D36   D(13,12,18,20)        -54.5345         calculate D2E/DX2 analytically  !
 ! D37   D(13,12,18,21)         65.4655         calculate D2E/DX2 analytically  !
 ! D38   D(15,12,18,19)        -65.4655         calculate D2E/DX2 analytically  !
 ! D39   D(15,12,18,20)         54.5345         calculate D2E/DX2 analytically  !
 ! D40   D(15,12,18,21)        174.5345         calculate D2E/DX2 analytically  !
 ! D41   D(12,13,14,1)        -120.047          calculate D2E/DX2 analytically  !
 ! D42   D(12,13,14,9)           0.1019         calculate D2E/DX2 analytically  !
 ! D43   D(12,15,16,9)           0.0144         calculate D2E/DX2 analytically  !
 ! D44   D(12,15,16,17)        119.8046         calculate D2E/DX2 analytically  !
 --------------------------------------------------------------------------------
 Trust Radius=3.00D-01 FncErr=1.00D-07 GrdErr=1.00D-06
 Number of steps in this run=    111 maximum allowed number of steps=    126.
 Search for a saddle point of order  1.
 GradGradGradGradGradGradGradGradGradGradGradGradGradGradGradGradGradGrad

                          Input orientation:                          
 ---------------------------------------------------------------------
 Center     Atomic      Atomic             Coordinates (Angstroms)
 Number     Number       Type             X           Y           Z
 ---------------------------------------------------------------------
      1          6           0       -3.687594    1.434513    0.037662
      2          1           0       -4.204232    0.690882   -0.532424
      3          1           0       -2.984994    1.941142   -0.590493
      4          1           0       -4.392409    2.139865    0.425754
      5          6           0       -1.719802   -1.979180    0.958198
      6          1           0       -1.772937   -1.973794    2.026864
      7          1           0       -0.926107   -2.624240    0.643800
      8          1           0       -2.646654   -2.332327    0.556782
      9          6           0       -1.451684   -0.550263    0.450352
     10          8           0       -1.384008   -0.576716   -0.977800
     11          1           0       -2.216645   -0.897736   -1.331724
     12          8           0       -1.068366    2.330958    2.480128
     13          1           0       -2.211160    1.731065    1.880865
     14          8           0       -2.994176    0.808588    1.120385
     15          1           0       -0.133531    1.377565    1.985027
     16          8           0        0.379254    0.236310    1.291676
     17          1           0        1.022919    0.471427    0.619355
     18          6           0       -0.818997    3.676636    2.065560
     19          1           0        0.104404    4.014533    2.487527
     20          1           0       -0.758683    3.715580    0.997972
     21          1           0       -1.616123    4.306702    2.400981
 ---------------------------------------------------------------------
                    Distance matrix (angstroms):
                    1          2          3          4          5
     1  C    0.000000
     2  H    1.070000   0.000000
     3  H    1.070000   1.747303   0.000000
     4  H    1.070000   1.747303   1.747303   0.000000
     5  C    4.046343   3.939997   4.400918   4.938913   0.000000
     6  H    4.386273   4.422855   4.862753   5.132969   1.070000
     7  H    4.946382   4.808289   5.158024   5.895718   1.070000
     8  H    3.942351   3.571024   4.437708   4.802638   1.070000
     9  C    3.018103   3.175344   3.105076   3.985631   1.540000
    10  O    3.222222   3.123913   3.008783   4.289552   2.414074
    11  H    3.078685   2.667038   3.032988   4.129128   2.580720
    12  O    3.691831   4.647470   3.640623   3.912318   4.617135
    13  H    2.380168   3.298224   2.598184   2.653736   3.854694
    14  O    1.430000   2.051796   2.051796   2.051796   3.069525
    15  H    4.053004   4.835256   3.883524   4.598964   3.852061
    16  O    4.421256   4.954021   4.215113   5.209809   3.070121
    17  H    4.843020   5.357039   4.437022   5.669828   3.693618
    18  C    4.167534   5.208077   3.841627   4.221363   5.833178
    19  H    5.199768   6.223432   4.828823   5.290238   6.449122
    20  H    3.834577   4.833500   3.260109   4.001784   5.775433
    21  H    4.257434   5.327038   4.051987   4.037879   6.450170
                    6          7          8          9         10
     6  H    0.000000
     7  H    1.747303   0.000000
     8  H    1.747303   1.747303   0.000000
     9  C    2.148263   2.148263   2.148263   0.000000
    10  O    3.336330   2.651719   2.651676   1.430000   0.000000
    11  H    3.554559   2.923867   2.410273   1.970203   0.960000
    12  O    4.385517   5.286428   5.285497   3.545188   4.528959
    13  H    3.733542   4.706418   4.295813   2.797790   3.765900
    14  O    3.170927   4.035882   3.209948   2.162105   2.985647
    15  H    3.731087   4.294358   4.703081   2.794508   3.763144
    16  O    3.171276   3.210366   4.036593   2.163066   2.986742
    17  H    3.972028   3.658203   4.618519   2.682550   3.072915
    18  C    5.730520   6.460179   6.459441   4.569011   5.260445
    19  H    6.292589   6.966676   7.181833   5.235346   5.941669
    20  H    5.869949   6.351911   6.351083   4.356323   4.766393
    21  H    6.293583   7.183437   6.967049   5.236612   5.942879
                   11         12         13         14         15
    11  H    0.000000
    12  O    5.125742   0.000000
    13  H    4.151067   1.423013   0.000000
    14  O    3.086897   2.806289   1.429129   0.000000
    15  H    4.529591   1.424078   2.110060   3.042142   0.000000
    16  O    3.860956   2.809906   3.048226   3.425912   1.430437
    17  H    4.021951   3.360626   3.692880   4.062236   2.005873
    18  C    5.866843   1.430000   2.399474   3.721621   2.400433
    19  H    6.641109   2.051796   3.308187   4.663514   2.694943
    20  H    5.369899   2.051796   2.612946   3.669198   2.613696
    21  H    6.432721   2.051796   2.694160   3.971871   3.309221
                   16         17         18         19         20
    16  O    0.000000
    17  H    0.960000   0.000000
    18  C    3.724319   3.969576   0.000000
    19  H    3.972477   4.109420   1.070000   0.000000
    20  H    3.672395   3.720481   1.070000   1.747303   0.000000
    21  H    4.666925   4.984784   1.070000   1.747303   1.747303
                   21
    21  H    0.000000
 Stoichiometry    C4H13O4(1+)
 Framework group  C1[X(C4H13O4)]
 Deg. of freedom    57
 Full point group                 C1      NOp   1
 Largest Abelian subgroup         C1      NOp   1
 Largest concise Abelian subgroup C1      NOp   1
                         Standard orientation:                         
 ---------------------------------------------------------------------
 Center     Atomic      Atomic             Coordinates (Angstroms)
 Number     Number       Type             X           Y           Z
 ---------------------------------------------------------------------
      1          6           0        0.045723    2.380470    0.197704
      2          1           0        1.025782    2.807576    0.242022
      3          1           0       -0.252020    2.068542    1.176964
      4          1           0       -0.645141    3.110340   -0.169579
      5          6           0        2.440897   -0.658154   -0.986693
      6          1           0        2.000805   -0.922404   -1.925517
      7          1           0        3.034009   -1.473605   -0.628700
      8          1           0        3.060579    0.204859   -1.113590
      9          6           0        1.328786   -0.346287    0.031908
     10          8           0        1.934701    0.004407    1.278816
     11          1           0        2.492006    0.776655    1.157795
     12          8           0       -2.156599   -0.471953   -0.604215
     13          1           0       -1.201584    0.575948   -0.725942
     14          8           0        0.057146    1.251108   -0.679400
     15          1           0       -1.232386   -1.450881   -0.139966
     16          8           0        0.004711   -2.039992    0.270751
     17          1           0       -0.022226   -2.362525    1.174547
     18          6           0       -3.229873   -0.194126    0.299000
     19          1           0       -3.843872   -1.064381    0.401770
     20          1           0       -2.831094    0.075887    1.254493
     21          1           0       -3.817732    0.613999   -0.083433
 ---------------------------------------------------------------------
 Rotational constants (GHZ):      1.8654036      1.0334429      0.8032297
 Standard basis: 6-31+G(d) (6D, 7F)
 There are   178 symmetry adapted cartesian basis functions of A   symmetry.
 There are   178 symmetry adapted basis functions of A   symmetry.
   178 basis functions,   308 primitive gaussians,   178 cartesian basis functions
    34 alpha electrons       34 beta electrons
       nuclear repulsion energy       408.7347662487 Hartrees.
 NAtoms=   21 NActive=   21 NUniq=   21 SFac= 1.00D+00 NAtFMM=   60 NAOKFM=F Big=F
 Integral buffers will be    131072 words long.
 Raffenetti 2 integral format.
 Two-electron integral symmetry is turned on.
 One-electron integrals computed using PRISM.
 NBasis=   178 RedAO= T EigKep=  1.04D-04  NBF=   178
 NBsUse=   178 1.00D-06 EigRej= -1.00D+00 NBFU=   178
 ExpMin= 4.38D-02 ExpMax= 5.48D+03 ExpMxC= 8.25D+02 IAcc=2 IRadAn=         4 AccDes= 0.00D+00
 Harris functional with IExCor= 3102 and IRadAn=       4 diagonalized for initial guess.
 HarFok:  IExCor= 3102 AccDes= 0.00D+00 IRadAn=         4 IDoV= 1 UseB2=F ITyADJ=14
 ICtDFT=  3500011 ScaDFX=  1.000000  1.000000  1.000000  1.000000
 FoFCou: FMM=F IPFlag=           0 FMFlag=      100000 FMFlg1=           0
         NFxFlg=           0 DoJE=T BraDBF=F KetDBF=T FulRan=T
         wScrn=  0.000000 ICntrl=     500 IOpCl=  0 I1Cent=   200000004 NGrid=           0
         NMat0=    1 NMatS0=      1 NMatT0=    0 NMatD0=    1 NMtDS0=    0 NMtDT0=    0
 Petite list used in FoFCou.
 Requested convergence on RMS density matrix=1.00D-08 within 128 cycles.
 Requested convergence on MAX density matrix=1.00D-06.
 Requested convergence on             energy=1.00D-06.
 No special actions if energy rises.
 EnCoef did     2 forward-backward iterations
 EnCoef did     2 forward-backward iterations
 SCF Done:  E(RX3LYP) =  -460.435429083     A.U. after   17 cycles
            NFock= 17  Conv=0.79D-08     -V/T= 2.0110
 DoSCS=F DFT=T ScalE2(SS,OS)=  1.000000  1.000000
 Range of M.O.s used for correlation:     1   178
 NBasis=   178 NAE=    34 NBE=    34 NFC=     0 NFV=     0
 NROrb=    178 NOA=    34 NOB=    34 NVA=   144 NVB=   144

 **** Warning!!: The largest alpha MO coefficient is  0.26452165D+02


 **** Warning!!: The smallest alpha delta epsilon is  0.84833543D-01

 Symmetrizing basis deriv contribution to polar:
 IMax=3 JMax=2 DiffMx= 0.00D+00
 G2DrvN: will do    22 centers at a time, making    1 passes.
 Calling FoFCou, ICntrl=  3107 FMM=F I1Cent=   0 AccDes= 0.00D+00.
 End of G2Drv F.D. properties file   721 does not exist.
 End of G2Drv F.D. properties file   722 does not exist.
 End of G2Drv F.D. properties file   788 does not exist.
          IDoAtm=111111111111111111111
          Differentiating once with respect to nuclear coordinates.
          There are    66 degrees of freedom in the 1st order CPHF.  IDoFFX=6 NUNeed=     0.
     60 vectors produced by pass  0 Test12= 7.42D-15 1.52D-09 XBig12= 1.08D-01 9.65D-02.
 AX will form    60 AO Fock derivatives at one time.
     60 vectors produced by pass  1 Test12= 7.42D-15 1.52D-09 XBig12= 1.06D-02 1.72D-02.
     60 vectors produced by pass  2 Test12= 7.42D-15 1.52D-09 XBig12= 1.05D-04 1.89D-03.
     60 vectors produced by pass  3 Test12= 7.42D-15 1.52D-09 XBig12= 4.87D-07 6.95D-05.
     60 vectors produced by pass  4 Test12= 7.42D-15 1.52D-09 XBig12= 6.26D-10 2.14D-06.
     50 vectors produced by pass  5 Test12= 7.42D-15 1.52D-09 XBig12= 5.73D-13 7.01D-08.
      6 vectors produced by pass  6 Test12= 7.42D-15 1.52D-09 XBig12= 1.97D-15 4.80D-09.
 InvSVY:  IOpt=1 It=  1 EMax= 3.33D-16
 Solved reduced A of dimension   356 with    66 vectors.
 End of Minotr F.D. properties file   721 does not exist.
 End of Minotr F.D. properties file   722 does not exist.
 End of Minotr F.D. properties file   788 does not exist.

 **********************************************************************

            Population analysis using the SCF density.

 **********************************************************************

 Orbital symmetries:
       Occupied  (A) (A) (A) (A) (A) (A) (A) (A) (A) (A) (A) (A)
                 (A) (A) (A) (A) (A) (A) (A) (A) (A) (A) (A) (A)
                 (A) (A) (A) (A) (A) (A) (A) (A) (A) (A)
       Virtual   (A) (A) (A) (A) (A) (A) (A) (A) (A) (A) (A) (A)
                 (A) (A) (A) (A) (A) (A) (A) (A) (A) (A) (A) (A)
                 (A) (A) (A) (A) (A) (A) (A) (A) (A) (A) (A) (A)
                 (A) (A) (A) (A) (A) (A) (A) (A) (A) (A) (A) (A)
                 (A) (A) (A) (A) (A) (A) (A) (A) (A) (A) (A) (A)
                 (A) (A) (A) (A) (A) (A) (A) (A) (A) (A) (A) (A)
                 (A) (A) (A) (A) (A) (A) (A) (A) (A) (A) (A) (A)
                 (A) (A) (A) (A) (A) (A) (A) (A) (A) (A) (A) (A)
                 (A) (A) (A) (A) (A) (A) (A) (A) (A) (A) (A) (A)
                 (A) (A) (A) (A) (A) (A) (A) (A) (A) (A) (A) (A)
                 (A) (A) (A) (A) (A) (A) (A) (A) (A) (A) (A) (A)
                 (A) (A) (A) (A) (A) (A) (A) (A) (A) (A) (A) (A)
 The electronic state is 1-A.
 Alpha  occ. eigenvalues --  -19.46330 -19.42084 -19.42025 -19.35732 -10.63456
 Alpha  occ. eigenvalues --  -10.42076 -10.41833 -10.37479  -1.29496  -1.18881
 Alpha  occ. eigenvalues --   -1.17939  -1.14076  -0.97377  -0.85690  -0.84187
 Alpha  occ. eigenvalues --   -0.81487  -0.71821  -0.68739  -0.66540  -0.66045
 Alpha  occ. eigenvalues --   -0.65494  -0.62517  -0.61409  -0.60932  -0.60526
 Alpha  occ. eigenvalues --   -0.59232  -0.57705  -0.56753  -0.54879  -0.52692
 Alpha  occ. eigenvalues --   -0.51079  -0.48334  -0.45334  -0.43231
 Alpha virt. eigenvalues --   -0.34748  -0.27979  -0.16629  -0.14476  -0.11606
 Alpha virt. eigenvalues --   -0.11239  -0.09426  -0.08096  -0.07431  -0.06990
 Alpha virt. eigenvalues --   -0.06713  -0.06304  -0.05325  -0.03828  -0.03310
 Alpha virt. eigenvalues --   -0.03008  -0.02142  -0.01400  -0.00878  -0.00636
 Alpha virt. eigenvalues --    0.00515   0.01691   0.02290   0.03284   0.04537
 Alpha virt. eigenvalues --    0.04860   0.05335   0.05899   0.06617   0.07697
 Alpha virt. eigenvalues --    0.08043   0.08738   0.09811   0.10309   0.11845
 Alpha virt. eigenvalues --    0.12494   0.13301   0.14518   0.15360   0.15823
 Alpha virt. eigenvalues --    0.16945   0.17810   0.18335   0.19088   0.19835
 Alpha virt. eigenvalues --    0.20944   0.21998   0.23250   0.24932   0.26249
 Alpha virt. eigenvalues --    0.37015   0.46264   0.50127   0.51056   0.52184
 Alpha virt. eigenvalues --    0.52695   0.54029   0.55065   0.56446   0.58200
 Alpha virt. eigenvalues --    0.61591   0.64576   0.67436   0.77818   0.78024
 Alpha virt. eigenvalues --    0.80290   0.80550   0.82557   0.84679   0.86156
 Alpha virt. eigenvalues --    0.87465   0.89173   0.89682   0.94246   0.95091
 Alpha virt. eigenvalues --    0.96219   0.98716   0.99397   1.01564   1.02223
 Alpha virt. eigenvalues --    1.03887   1.07380   1.08133   1.09937   1.11378
 Alpha virt. eigenvalues --    1.12418   1.14237   1.15119   1.17362   1.19907
 Alpha virt. eigenvalues --    1.21378   1.25524   1.25714   1.29362   1.32206
 Alpha virt. eigenvalues --    1.36142   1.37385   1.40780   1.43642   1.46004
 Alpha virt. eigenvalues --    1.49132   1.50320   1.54707   1.58042   1.59385
 Alpha virt. eigenvalues --    1.63524   1.65675   1.66747   1.70934   1.73922
 Alpha virt. eigenvalues --    1.77111   1.85016   1.89046   1.91571   1.92173
 Alpha virt. eigenvalues --    1.95272   1.96564   1.99635   2.02949   2.05421
 Alpha virt. eigenvalues --    2.06155   2.08234   2.12095   2.13887   2.14619
 Alpha virt. eigenvalues --    2.22650   2.23572   2.24139   2.26007   2.26895
 Alpha virt. eigenvalues --    2.33996   2.37154   2.41205   2.65570   2.69967
 Alpha virt. eigenvalues --    2.70877   3.85761   3.88307   4.02559   4.04553
 Alpha virt. eigenvalues --    4.11005   4.18182   4.20454   4.27013
          Condensed to atoms (all electrons):
               1          2          3          4          5          6
     1  C    5.205610   0.386171   0.394112   0.377741  -0.006263  -0.000392
     2  H    0.386171   0.500124  -0.038370  -0.023201  -0.010926   0.000010
     3  H    0.394112  -0.038370   0.495175  -0.025851  -0.000596   0.000001
     4  H    0.377741  -0.023201  -0.025851   0.431565   0.002196  -0.000001
     5  C   -0.006263  -0.010926  -0.000596   0.002196   6.156419   0.391711
     6  H   -0.000392   0.000010   0.000001  -0.000001   0.391711   0.399022
     7  H    0.000915  -0.000012  -0.000001   0.000001   0.388344  -0.018518
     8  H   -0.002945   0.000078  -0.000006  -0.000001   0.351282  -0.018447
     9  C   -0.058694   0.013368  -0.013008  -0.000656  -0.588950  -0.058685
    10  O    0.009333  -0.001661   0.005172  -0.000452  -0.088304   0.007085
    11  H   -0.004413   0.001495  -0.000476  -0.000016  -0.026642  -0.000045
    12  O    0.012314  -0.000572   0.000906  -0.000149  -0.001922   0.000081
    13  H   -0.004069   0.001337  -0.001874  -0.002143  -0.009525   0.000002
    14  O    0.084324  -0.043985  -0.055801  -0.027218   0.003896   0.000212
    15  H   -0.000660   0.000005  -0.000026   0.000004   0.000081  -0.000001
    16  O    0.000608  -0.000042   0.001043  -0.000073  -0.041017   0.000180
    17  H    0.000368   0.000001  -0.000020   0.000000  -0.000913  -0.000009
    18  C   -0.011100   0.000631  -0.001585  -0.000378  -0.001052  -0.000006
    19  H    0.000752   0.000000   0.000005   0.000000  -0.000100   0.000000
    20  H   -0.001494   0.000006   0.000155   0.000008   0.000056   0.000000
    21  H   -0.000499   0.000000   0.000000  -0.000001  -0.000172   0.000000
               7          8          9         10         11         12
     1  C    0.000915  -0.002945  -0.058694   0.009333  -0.004413   0.012314
     2  H   -0.000012   0.000078   0.013368  -0.001661   0.001495  -0.000572
     3  H   -0.000001  -0.000006  -0.013008   0.005172  -0.000476   0.000906
     4  H    0.000001  -0.000001  -0.000656  -0.000452  -0.000016  -0.000149
     5  C    0.388344   0.351282  -0.588950  -0.088304  -0.026642  -0.001922
     6  H   -0.018518  -0.018447  -0.058685   0.007085  -0.000045   0.000081
     7  H    0.402286  -0.022479  -0.054860  -0.002348  -0.000354  -0.000002
     8  H   -0.022479   0.430321  -0.006640  -0.010755   0.002024   0.000045
     9  C   -0.054860  -0.006640   5.994035   0.249598   0.048931   0.000886
    10  O   -0.002348  -0.010755   0.249598   8.140323   0.172444  -0.002902
    11  H   -0.000354   0.002024   0.048931   0.172444   0.277411   0.000132
    12  O   -0.000002   0.000045   0.000886  -0.002902   0.000132   8.446244
    13  H   -0.000015  -0.000007   0.010782  -0.000336  -0.000001   0.148235
    14  O    0.002882  -0.003237   0.115158  -0.025337  -0.005775  -0.023469
    15  H   -0.000004  -0.000011  -0.002656   0.000321  -0.000028   0.165003
    16  O   -0.001554   0.002370   0.178473  -0.020440   0.003167  -0.035123
    17  H    0.000046  -0.000017   0.003245  -0.000789  -0.000012  -0.000069
    18  C   -0.000021  -0.000009  -0.000399   0.000431   0.000002   0.104104
    19  H    0.000000   0.000000  -0.000534  -0.000001   0.000000  -0.036479
    20  H    0.000000   0.000000   0.001253  -0.000011   0.000000  -0.075183
    21  H    0.000000   0.000000  -0.000292   0.000003   0.000000  -0.039798
              13         14         15         16         17         18
     1  C   -0.004069   0.084324  -0.000660   0.000608   0.000368  -0.011100
     2  H    0.001337  -0.043985   0.000005  -0.000042   0.000001   0.000631
     3  H   -0.001874  -0.055801  -0.000026   0.001043  -0.000020  -0.001585
     4  H   -0.002143  -0.027218   0.000004  -0.000073   0.000000  -0.000378
     5  C   -0.009525   0.003896   0.000081  -0.041017  -0.000913  -0.001052
     6  H    0.000002   0.000212  -0.000001   0.000180  -0.000009  -0.000006
     7  H   -0.000015   0.002882  -0.000004  -0.001554   0.000046  -0.000021
     8  H   -0.000007  -0.003237  -0.000011   0.002370  -0.000017  -0.000009
     9  C    0.010782   0.115158  -0.002656   0.178473   0.003245  -0.000399
    10  O   -0.000336  -0.025337   0.000321  -0.020440  -0.000789   0.000431
    11  H   -0.000001  -0.005775  -0.000028   0.003167  -0.000012   0.000002
    12  O    0.148235  -0.023469   0.165003  -0.035123  -0.000069   0.104104
    13  H    0.327328   0.075106  -0.014013   0.004088  -0.000072  -0.019411
    14  O    0.075106   8.332954   0.006709  -0.024606   0.001091   0.008252
    15  H   -0.014013   0.006709   0.309348   0.066068  -0.004594  -0.015216
    16  O    0.004088  -0.024606   0.066068   8.360800   0.195858   0.002462
    17  H   -0.000072   0.001091  -0.004594   0.195858   0.280973  -0.000695
    18  C   -0.019411   0.008252  -0.015216   0.002462  -0.000695   5.103497
    19  H    0.002015  -0.000540  -0.003225   0.000453  -0.000016   0.391219
    20  H   -0.001566   0.000080  -0.002163   0.000608   0.000005   0.402950
    21  H   -0.002964   0.000485   0.002117  -0.000596   0.000007   0.394982
              19         20         21
     1  C    0.000752  -0.001494  -0.000499
     2  H    0.000000   0.000006   0.000000
     3  H    0.000005   0.000155   0.000000
     4  H    0.000000   0.000008  -0.000001
     5  C   -0.000100   0.000056  -0.000172
     6  H    0.000000   0.000000   0.000000
     7  H    0.000000   0.000000   0.000000
     8  H    0.000000   0.000000   0.000000
     9  C   -0.000534   0.001253  -0.000292
    10  O   -0.000001  -0.000011   0.000003
    11  H    0.000000   0.000000   0.000000
    12  O   -0.036479  -0.075183  -0.039798
    13  H    0.002015  -0.001566  -0.002964
    14  O   -0.000540   0.000080   0.000485
    15  H   -0.003225  -0.002163   0.002117
    16  O    0.000453   0.000608  -0.000596
    17  H   -0.000016   0.000005   0.000007
    18  C    0.391219   0.402950   0.394982
    19  H    0.474620  -0.034025  -0.024337
    20  H   -0.034025   0.553366  -0.036337
    21  H   -0.024337  -0.036337   0.478958
 Mulliken charges:
               1
     1  C   -0.381717
     2  H    0.215544
     3  H    0.241046
     4  H    0.268627
     5  C   -0.517601
     6  H    0.297803
     7  H    0.305694
     8  H    0.278435
     9  C    0.169644
    10  O   -0.431373
    11  H    0.532155
    12  O   -0.662280
    13  H    0.487102
    14  O   -0.421179
    15  H    0.492941
    16  O   -0.692727
    17  H    0.525615
    18  C   -0.358658
    19  H    0.230194
    20  H    0.192294
    21  H    0.228443
 Sum of Mulliken charges =   1.00000
 Mulliken charges with hydrogens summed into heavy atoms:
               1
     1  C    0.343500
     5  C    0.364331
     9  C    0.169644
    10  O    0.100782
    12  O    0.317763
    14  O   -0.421179
    16  O   -0.167112
    18  C    0.292273
 APT charges:
               1
     1  C   -1.299899
     2  H    0.527404
     3  H    0.322116
     4  H    0.677495
     5  C   -1.271501
     6  H    0.432263
     7  H    0.709833
     8  H    0.617706
     9  C   -0.222608
    10  O   -0.518452
    11  H    0.817617
    12  O   -0.366904
    13  H    0.449450
    14  O   -0.291727
    15  H    0.451684
    16  O   -0.852936
    17  H    0.761516
    18  C   -1.484452
    19  H    0.697005
    20  H    0.226682
    21  H    0.617706
 Sum of APT charges =   1.00000
 APT charges with hydrogens summed into heavy atoms:
               1
     1  C    0.227116
     5  C    0.488301
     9  C   -0.222608
    10  O    0.299165
    12  O    0.534231
    14  O   -0.291727
    16  O   -0.091420
    18  C    0.056941
 Electronic spatial extent (au):  <R**2>=           1525.2928
 Charge=              1.0000 electrons
 Dipole moment (field-independent basis, Debye):
    X=              4.0816    Y=              1.5057    Z=              2.1791  Tot=              4.8657
 Quadrupole moment (field-independent basis, Debye-Ang):
   XX=            -20.7271   YY=            -34.5443   ZZ=            -47.7596
   XY=              0.5913   XZ=             -5.0096   YZ=             -0.9739
 Traceless Quadrupole moment (field-independent basis, Debye-Ang):
   XX=             13.6165   YY=             -0.2006   ZZ=            -13.4159
   XY=              0.5913   XZ=             -5.0096   YZ=             -0.9739
 Octapole moment (field-independent basis, Debye-Ang**2):
  XXX=             22.2021  YYY=             12.4906  ZZZ=              2.8137  XYY=              0.7143
  XXY=              2.2182  XXZ=              3.6852  XZZ=              9.0586  YZZ=             -6.9176
  YYZ=             14.5528  XYZ=             11.5147
 Hexadecapole moment (field-independent basis, Debye-Ang**3):
 XXXX=           -847.2014 YYYY=           -462.3438 ZZZZ=           -201.1349 XXXY=             15.0570
 XXXZ=            -20.1880 YYYX=              4.1303 YYYZ=            -30.1286 ZZZX=             -1.6722
 ZZZY=             -3.8102 XXYY=           -243.6448 XXZZ=           -213.6266 YYZZ=           -111.1124
 XXYZ=              8.8861 YYXZ=              5.7192 ZZXY=             -0.1515
 N-N= 4.087347662487D+02 E-N=-1.883089651498D+03  KE= 4.554243904017D+02
  Exact polarizability:   0.000   0.000   0.000   0.000   0.000   0.000
 Approx polarizability: 157.398  -8.155 191.687  16.174 -24.860  98.794
 Calling FoFJK, ICntrl=    100147 FMM=F ISym2X=0 I1Cent= 0 IOpClX= 0 NMat=1 NMatS=1 NMatT=0.
 ***** Axes restored to original set *****
 -------------------------------------------------------------------
 Center     Atomic                   Forces (Hartrees/Bohr)
 Number     Number              X              Y              Z
 -------------------------------------------------------------------
      1        6           0.022775852   -0.015435322    0.001706194
      2        1          -0.011052553   -0.011791808   -0.007293794
      3        1           0.009369347    0.012403392   -0.012116731
      4        1          -0.011048062    0.011173881    0.012519529
      5        6           0.012034998    0.044768901    0.025757758
      6        1          -0.002298389   -0.002949382    0.016312002
      7        1           0.016073225   -0.005877066   -0.007838180
      8        1          -0.017721340   -0.000410170   -0.008980391
      9        6           0.000443858   -0.007662509   -0.073837479
     10        8           0.023401605    0.038388495    0.090707862
     11        1          -0.016941827   -0.007819221   -0.007164778
     12        8          -0.010292777   -0.074694302   -0.036658442
     13        1           0.033772033    0.003936849    0.005964676
     14        8           0.048043111   -0.008644009    0.010828643
     15        1          -0.030016673    0.018562924    0.002337993
     16        8          -0.074647997   -0.004192461    0.016449511
     17        1           0.006281928    0.005109696   -0.020685179
     18        6          -0.001317417   -0.011690997   -0.004705316
     19        1           0.013809661    0.003603586    0.008343807
     20        1           0.002031506    0.005202617   -0.018871671
     21        1          -0.012700089    0.008016907    0.007223987
 -------------------------------------------------------------------
 Cartesian Forces:  Max     0.090707862 RMS     0.025601501
 FormGI is forming the generalized inverse of G from B-inverse, IUseBI=4.

 GradGradGradGradGradGradGradGradGradGradGradGradGradGradGradGradGradGrad
 Berny optimization.
 Internal  Forces:  Max     0.083699123 RMS     0.017739059
 Search for a saddle point.
 Step number   1 out of a maximum of  111
 All quantities printed in internal units (Hartrees-Bohrs-Radians)
 Swapping is turned off.
 Second derivative matrix not updated -- analytic derivatives used.
 ITU=  0
     Eigenvalues ---   -0.09008  -0.03819  -0.02757  -0.02184  -0.00533
     Eigenvalues ---    0.00055   0.00061   0.00085   0.00125   0.00140
     Eigenvalues ---    0.00174   0.00724   0.00786   0.01375   0.01596
     Eigenvalues ---    0.02944   0.03208   0.03510   0.04089   0.04294
     Eigenvalues ---    0.04390   0.04423   0.04808   0.05472   0.06201
     Eigenvalues ---    0.06271   0.06510   0.06693   0.06736   0.06810
     Eigenvalues ---    0.07093   0.08239   0.09606   0.12090   0.12634
     Eigenvalues ---    0.13629   0.14135   0.15015   0.16981   0.18443
     Eigenvalues ---    0.18578   0.19005   0.19599   0.27361   0.33120
     Eigenvalues ---    0.36322   0.39030   0.39166   0.39432   0.39467
     Eigenvalues ---    0.39776   0.39955   0.40417   0.40626   0.40801
     Eigenvalues ---    0.55013   0.55891
 Eigenvectors required to have negative eigenvalues:
                          R14       R17       R13       R16       R11
   1                   -0.47784   0.47311   0.46327  -0.46292  -0.25568
                          R10       A29       D16       A14       A21
   1                    0.16511  -0.05166  -0.04869  -0.04198   0.03759
 RFO step:  Lambda0=1.089042648D-03 Lambda=-1.54453609D-01.
 Linear search not attempted -- option 19 set.
 Maximum step size (   0.300) exceeded in Quadratic search.
    -- Step size scaled by   0.229
 Iteration  1 RMS(Cart)=  0.04858708 RMS(Int)=  0.00147370
 Iteration  2 RMS(Cart)=  0.00216187 RMS(Int)=  0.00006266
 Iteration  3 RMS(Cart)=  0.00000169 RMS(Int)=  0.00006266
 Iteration  4 RMS(Cart)=  0.00000000 RMS(Int)=  0.00006266
 Variable       Old X    -DE/DX   Delta X   Delta X   Delta X     New X
                                 (Linear)    (Quad)   (Total)
    R1        2.02201   0.01742   0.00000   0.00783   0.00783   2.02984
    R2        2.02201   0.01914   0.00000   0.00764   0.00764   2.02965
    R3        2.02201   0.01918   0.00000   0.00699   0.00699   2.02900
    R4        2.70231  -0.00254   0.00000   0.00004   0.00004   2.70235
    R5        2.02201   0.01640   0.00000   0.00669   0.00669   2.02869
    R6        2.02201   0.01777   0.00000   0.00697   0.00697   2.02898
    R7        2.02201   0.01885   0.00000   0.00709   0.00709   2.02910
    R8        2.91018  -0.02604   0.00000  -0.01894  -0.01894   2.89124
    R9        2.70231  -0.08370   0.00000  -0.05078  -0.05078   2.65153
   R10        4.08579  -0.05806   0.00000  -0.10245  -0.10249   3.98330
   R11        4.08760  -0.06753   0.00000  -0.21499  -0.21490   3.87271
   R12        1.81414   0.01995   0.00000   0.00562   0.00562   1.81976
   R13        2.68911  -0.05955   0.00000  -0.14211  -0.14221   2.54690
   R14        2.69112  -0.06096   0.00000  -0.06579  -0.06575   2.62537
   R15        2.70231   0.00748   0.00000   0.00620   0.00620   2.70851
   R16        2.70066  -0.03204   0.00000   0.02482   0.02470   2.72536
   R17        2.70313  -0.03096   0.00000  -0.04094  -0.04086   2.66227
   R18        1.81414   0.01995   0.00000   0.00613   0.00613   1.82027
   R19        2.02201   0.01635   0.00000   0.00589   0.00589   2.02790
   R20        2.02201   0.01914   0.00000   0.00733   0.00733   2.02934
   R21        2.02201   0.01645   0.00000   0.00608   0.00608   2.02809
    A1        1.91063   0.00042   0.00000  -0.00059  -0.00062   1.91002
    A2        1.91063   0.00161   0.00000  -0.00167  -0.00167   1.90897
    A3        1.91063   0.00083   0.00000   0.00391   0.00390   1.91453
    A4        1.91063   0.00014   0.00000   0.00032   0.00033   1.91096
    A5        1.91063   0.00818   0.00000   0.00694   0.00694   1.91757
    A6        1.91063  -0.01118   0.00000  -0.00891  -0.00891   1.90173
    A7        1.91063   0.00163   0.00000  -0.00019  -0.00019   1.91045
    A8        1.91063   0.00077   0.00000  -0.00244  -0.00243   1.90820
    A9        1.91063   0.00774   0.00000   0.00607   0.00608   1.91671
   A10        1.91063   0.00680   0.00000   0.00339   0.00338   1.91402
   A11        1.91063  -0.00833   0.00000  -0.00335  -0.00335   1.90728
   A12        1.91063  -0.00861   0.00000  -0.00348  -0.00348   1.90715
   A13        1.89697   0.02675   0.00000   0.03120   0.03126   1.92822
   A14        1.93558  -0.00550   0.00000  -0.01405  -0.01405   1.92153
   A15        1.93533  -0.00814   0.00000  -0.00325  -0.00321   1.93212
   A16        1.93359  -0.00552   0.00000  -0.00395  -0.00394   1.92965
   A17        1.93383  -0.00941   0.00000  -0.01911  -0.01913   1.91470
   A18        1.82844   0.00018   0.00000   0.00733   0.00730   1.83574
   A19        1.91063  -0.00030   0.00000   0.00316   0.00316   1.91380
   A20        1.66950   0.00298   0.00000  -0.00751  -0.00757   1.66193
   A21        1.99837  -0.00243   0.00000  -0.00127  -0.00122   1.99715
   A22        1.99845  -0.00262   0.00000   0.00500   0.00503   2.00349
   A23        2.78248   0.00100   0.00000  -0.01251  -0.01279   2.76970
   A24        1.96752  -0.00288   0.00000  -0.00781  -0.00775   1.95977
   A25        1.96714   0.00234   0.00000   0.00440   0.00444   1.97158
   A26        1.75148  -0.00363   0.00000  -0.00070  -0.00084   1.75064
   A27        2.78755   0.00181   0.00000  -0.00414  -0.00400   2.78355
   A28        1.74692  -0.00234   0.00000   0.01753   0.01788   1.76480
   A29        1.96514  -0.00865   0.00000  -0.02001  -0.02009   1.94504
   A30        1.96537   0.00261   0.00000   0.00120   0.00125   1.96662
   A31        1.91063  -0.00420   0.00000  -0.00542  -0.00542   1.90521
   A32        1.91063   0.00868   0.00000   0.00390   0.00390   1.91454
   A33        1.91063  -0.00445   0.00000  -0.00314  -0.00314   1.90749
   A34        1.91063  -0.00076   0.00000   0.00160   0.00161   1.91224
   A35        1.91063   0.00122   0.00000   0.00167   0.00165   1.91229
   A36        1.91063  -0.00050   0.00000   0.00139   0.00139   1.91202
    D1        1.11057   0.00609   0.00000   0.00505   0.00512   1.11569
    D2        3.07822   0.00120   0.00000   0.00203   0.00198   3.08020
    D3       -0.98383   0.00005   0.00000  -0.00087  -0.00083  -0.98466
    D4        0.98383  -0.00483   0.00000  -0.00390  -0.00398   0.97985
    D5       -3.07822   0.00172   0.00000  -0.00005   0.00001  -3.07821
    D6       -1.11057  -0.00316   0.00000  -0.00308  -0.00314  -1.11370
    D7       -3.14154  -0.00180   0.00000  -0.00331  -0.00326   3.13838
    D8       -1.01192   0.00552   0.00000   0.00346   0.00340  -1.00851
    D9        1.01187  -0.00259   0.00000   0.00193   0.00195   1.01381
   D10        1.04725  -0.00343   0.00000  -0.00474  -0.00469   1.04255
   D11       -3.10631   0.00389   0.00000   0.00203   0.00197  -3.10434
   D12       -1.08253  -0.00422   0.00000   0.00050   0.00052  -1.08201
   D13       -1.04715  -0.00138   0.00000  -0.00471  -0.00467  -1.05182
   D14        1.08248   0.00594   0.00000   0.00206   0.00200   1.08448
   D15        3.10626  -0.00217   0.00000   0.00053   0.00054   3.10680
   D16        1.04725   0.00123   0.00000  -0.01509  -0.01497   1.03228
   D17       -1.08359  -0.00606   0.00000  -0.01567  -0.01566  -1.09925
   D18       -3.10525   0.00276   0.00000  -0.01071  -0.01084  -3.11609
   D19       -2.09806  -0.01319   0.00000  -0.00846  -0.00845  -2.10651
   D20        2.08841  -0.01249   0.00000  -0.00967  -0.00967   2.07874
   D21        0.01005   0.01320   0.00000   0.01887   0.01890   0.02894
   D22       -2.08667   0.01389   0.00000   0.01766   0.01767  -2.06900
   D23        2.09618  -0.00073   0.00000  -0.00160  -0.00159   2.09459
   D24       -0.00054  -0.00004   0.00000  -0.00281  -0.00282  -0.00335
   D25       -2.08894   0.01036   0.00000   0.01615   0.01616  -2.07278
   D26        2.10334   0.01251   0.00000   0.01342   0.01345   2.11679
   D27        2.08615  -0.01165   0.00000  -0.00825  -0.00823   2.07791
   D28       -0.00476  -0.00950   0.00000  -0.01098  -0.01095  -0.01571
   D29        0.00018  -0.00033   0.00000   0.00205   0.00206   0.00223
   D30       -2.09073   0.00182   0.00000  -0.00068  -0.00066  -2.09138
   D31       -0.00151   0.00185   0.00000   0.00274   0.00270   0.00120
   D32        2.09650  -0.00037   0.00000   0.00368   0.00368   2.10018
   D33       -0.00013  -0.00358   0.00000  -0.00617  -0.00614  -0.00628
   D34       -2.09808  -0.00150   0.00000  -0.00220  -0.00219  -2.10026
   D35       -3.04620  -0.00218   0.00000   0.00211   0.00214  -3.04406
   D36       -0.95181  -0.00036   0.00000   0.00314   0.00316  -0.94865
   D37        1.14259   0.00162   0.00000   0.00531   0.00532   1.14791
   D38       -1.14259  -0.00162   0.00000  -0.00505  -0.00506  -1.14765
   D39        0.95181   0.00020   0.00000  -0.00402  -0.00404   0.94777
   D40        3.04620   0.00218   0.00000  -0.00185  -0.00188   3.04432
   D41       -2.09522   0.00336   0.00000   0.00801   0.00799  -2.08722
   D42        0.00178  -0.00109   0.00000   0.00042   0.00040   0.00218
   D43        0.00025   0.00322   0.00000   0.00384   0.00381   0.00406
   D44        2.09099  -0.00711   0.00000  -0.00886  -0.00876   2.08223
         Item               Value     Threshold  Converged?
 Maximum Force            0.083699     0.000450     NO 
 RMS     Force            0.017739     0.000300     NO 
 Maximum Displacement     0.187664     0.001800     NO 
 RMS     Displacement     0.050095     0.001200     NO 
 Predicted change in Energy=-4.315742D-02
 GradGradGradGradGradGradGradGradGradGradGradGradGradGradGradGradGradGrad

                          Input orientation:                          
 ---------------------------------------------------------------------
 Center     Atomic      Atomic             Coordinates (Angstroms)
 Number     Number       Type             X           Y           Z
 ---------------------------------------------------------------------
      1          6           0       -3.647454    1.416677    0.035367
      2          1           0       -4.163851    0.670413   -0.539270
      3          1           0       -2.947397    1.932251   -0.595245
      4          1           0       -4.358559    2.117994    0.429471
      5          6           0       -1.713404   -1.931429    0.979900
      6          1           0       -1.768372   -1.922476    2.051993
      7          1           0       -0.916962   -2.580416    0.667966
      8          1           0       -2.644992   -2.284254    0.579146
      9          6           0       -1.444484   -0.516955    0.462427
     10          8           0       -1.365764   -0.513440   -0.938489
     11          1           0       -2.191512   -0.841122   -1.310083
     12          8           0       -1.081852    2.283951    2.459359
     13          1           0       -2.171173    1.725703    1.895270
     14          8           0       -2.956407    0.795252    1.122220
     15          1           0       -0.185530    1.350123    1.954693
     16          8           0        0.293765    0.225799    1.254030
     17          1           0        0.923612    0.459181    0.563620
     18          6           0       -0.832154    3.636194    2.055144
     19          1           0        0.100421    3.962505    2.473961
     20          1           0       -0.783799    3.690594    0.983733
     21          1           0       -1.625656    4.264964    2.411232
 ---------------------------------------------------------------------
                    Distance matrix (angstroms):
                    1          2          3          4          5
     1  C    0.000000
     2  H    1.074143   0.000000
     3  H    1.074043   1.753604   0.000000
     4  H    1.073701   1.752672   1.753831   0.000000
     5  C    3.980264   3.883574   4.351073   4.868022   0.000000
     6  H    4.329858   4.379045   4.822539   5.066265   1.073539
     7  H    4.881856   4.750536   5.107105   5.828938   1.073688
     8  H    3.872662   3.505402   4.387431   4.726362   1.073753
     9  C    2.962160   3.131804   3.062030   3.928852   1.529978
    10  O    3.143224   3.064339   2.932709   4.213381   2.410759
    11  H    3.004606   2.601732   2.962085   4.059373   2.580965
    12  O    3.634586   4.592820   3.596464   3.858082   4.511883
    13  H    2.394608   3.318342   2.616840   2.662164   3.797640
    14  O    1.430022   2.057682   2.059741   2.048311   3.000016
    15  H    3.958934   4.744354   3.803809   4.508891   3.748760
    16  O    4.293779   4.825344   4.103282   5.089638   2.959308
    17  H    4.700053   5.209920   4.300885   5.538139   3.583595
    18  C    4.114811   5.160140   3.795028   4.169326   5.738569
    19  H    5.145343   6.172637   4.778196   5.240674   6.345127
    20  H    3.777647   4.781818   3.204075   3.944513   5.698361
    21  H    4.224351   5.297990   4.028331   4.000702   6.360165
                    6          7          8          9         10
     6  H    0.000000
     7  H    1.753087   0.000000
     8  H    1.751749   1.755474   0.000000
     9  C    2.146418   2.139719   2.139670   0.000000
    10  O    3.330234   2.656033   2.659966   1.403130   0.000000
    11  H    3.556956   2.926141   2.420219   1.950623   0.962974
    12  O    4.281505   5.186361   5.181419   3.458947   4.410371
    13  H    3.673693   4.649944   4.246933   2.758737   3.700356
    14  O    3.108367   3.969989   3.142493   2.107872   2.913647
    15  H    3.636586   4.199975   4.598888   2.701444   3.638175
    16  O    3.082894   3.111940   3.923279   2.049348   2.847393
    17  H    3.890285   3.554961   4.501289   2.563388   2.905781
    18  C    5.636960   6.370062   6.365269   4.490027   5.144515
    19  H    6.188978   6.863418   7.081639   5.147676   5.816236
    20  H    5.798027   6.280366   6.271087   4.290889   4.659133
    21  H    6.199503   7.099327   6.876615   5.166954   5.841346
                   11         12         13         14         15
    11  H    0.000000
    12  O    5.020570   0.000000
    13  H    4.106494   1.347760   0.000000
    14  O    3.029667   2.741920   1.442200   0.000000
    15  H    4.414100   1.389286   2.021724   2.945955   0.000000
    16  O    3.726875   2.753385   2.955811   3.302313   1.408815
    17  H    3.860771   3.308398   3.599314   3.934403   1.989738
    18  C    5.763590   1.433282   2.338484   3.667936   2.377883
    19  H    6.530450   2.053175   3.240109   4.604661   2.678796
    20  H    5.270645   2.060328   2.572256   3.622487   2.603554
    21  H    6.343540   2.054861   2.647952   3.933365   3.283091
                   16         17         18         19         20
    16  O    0.000000
    17  H    0.963245   0.000000
    18  C    3.679711   3.924381   0.000000
    19  H    3.935555   4.074350   1.073118   0.000000
    20  H    3.638545   3.678828   1.073881   1.754013   0.000000
    21  H    4.619324   4.939274   1.073218   1.753499   1.753961
                   21
    21  H    0.000000
 Stoichiometry    C4H13O4(1+)
 Framework group  C1[X(C4H13O4)]
 Deg. of freedom    57
 Full point group                 C1      NOp   1
 Largest Abelian subgroup         C1      NOp   1
 Largest concise Abelian subgroup C1      NOp   1
                         Standard orientation:                         
 ---------------------------------------------------------------------
 Center     Atomic      Atomic             Coordinates (Angstroms)
 Number     Number       Type             X           Y           Z
 ---------------------------------------------------------------------
      1          6           0        0.042946    2.339991    0.187231
      2          1           0        1.024580    2.773920    0.230628
      3          1           0       -0.259557    2.041000    1.173468
      4          1           0       -0.650343    3.064894   -0.195784
      5          6           0        2.392564   -0.652913   -0.980812
      6          1           0        1.949741   -0.926992   -1.919574
      7          1           0        2.992795   -1.465686   -0.617590
      8          1           0        3.007047    0.216859   -1.118117
      9          6           0        1.295414   -0.340241    0.038663
     10          8           0        1.859392    0.015930    1.273104
     11          1           0        2.424264    0.787652    1.160484
     12          8           0       -2.100385   -0.487095   -0.602664
     13          1           0       -1.211360    0.517871   -0.729688
     14          8           0        0.055881    1.204740   -0.682253
     15          1           0       -1.178403   -1.412480   -0.129666
     16          8           0        0.054796   -1.952651    0.285294
     17          1           0        0.040814   -2.249291    1.201618
     18          6           0       -3.185574   -0.209025    0.291395
     19          1           0       -3.783795   -1.092688    0.404767
     20          1           0       -2.799104    0.088762    1.248048
     21          1           0       -3.786254    0.581911   -0.115300
 ---------------------------------------------------------------------
 Rotational constants (GHZ):      1.9445890      1.0729148      0.8413354
 Standard basis: 6-31+G(d) (6D, 7F)
 There are   178 symmetry adapted cartesian basis functions of A   symmetry.
 There are   178 symmetry adapted basis functions of A   symmetry.
   178 basis functions,   308 primitive gaussians,   178 cartesian basis functions
    34 alpha electrons       34 beta electrons
       nuclear repulsion energy       415.6668576313 Hartrees.
 NAtoms=   21 NActive=   21 NUniq=   21 SFac= 1.00D+00 NAtFMM=   60 NAOKFM=F Big=F
 Integral buffers will be    131072 words long.
 Raffenetti 2 integral format.
 Two-electron integral symmetry is turned on.
 One-electron integrals computed using PRISM.
 NBasis=   178 RedAO= T EigKep=  9.27D-05  NBF=   178
 NBsUse=   178 1.00D-06 EigRej= -1.00D+00 NBFU=   178
 Initial guess from the checkpoint file:  "/data/sawal/gaussian/Gau-27575.chk"
 B after Tr=     0.000000    0.000000    0.000000
         Rot=    0.999985    0.004400    0.001197   -0.003151 Ang=   0.64 deg.
 ExpMin= 4.38D-02 ExpMax= 5.48D+03 ExpMxC= 8.25D+02 IAcc=2 IRadAn=         4 AccDes= 0.00D+00
 Harris functional with IExCor= 3102 and IRadAn=       4 diagonalized for initial guess.
 HarFok:  IExCor= 3102 AccDes= 0.00D+00 IRadAn=         4 IDoV= 1 UseB2=F ITyADJ=14
 ICtDFT=  3500011 ScaDFX=  1.000000  1.000000  1.000000  1.000000
 FoFCou: FMM=F IPFlag=           0 FMFlag=      100000 FMFlg1=           0
         NFxFlg=           0 DoJE=T BraDBF=F KetDBF=T FulRan=T
         wScrn=  0.000000 ICntrl=     500 IOpCl=  0 I1Cent=   200000004 NGrid=           0
         NMat0=    1 NMatS0=      1 NMatT0=    0 NMatD0=    1 NMtDS0=    0 NMtDT0=    0
 Petite list used in FoFCou.
 Requested convergence on RMS density matrix=1.00D-08 within 128 cycles.
 Requested convergence on MAX density matrix=1.00D-06.
 Requested convergence on             energy=1.00D-06.
 No special actions if energy rises.
 SCF Done:  E(RX3LYP) =  -460.478434331     A.U. after   13 cycles
            NFock= 13  Conv=0.94D-08     -V/T= 2.0110
 Calling FoFJK, ICntrl=      2127 FMM=F ISym2X=0 I1Cent= 0 IOpClX= 0 NMat=1 NMatS=1 NMatT=0.
 ***** Axes restored to original set *****
 -------------------------------------------------------------------
 Center     Atomic                   Forces (Hartrees/Bohr)
 Number     Number              X              Y              Z
 -------------------------------------------------------------------
      1        6           0.020213736   -0.013161060    0.000552941
      2        1          -0.009693279   -0.009705737   -0.006068956
      3        1           0.007558360    0.010597680   -0.010185578
      4        1          -0.009346655    0.008885692    0.010620058
      5        6           0.010226423    0.039801093    0.023964894
      6        1          -0.002150370   -0.002642196    0.013595392
      7        1           0.013393627   -0.004935299   -0.006584076
      8        1          -0.014799662   -0.000380742   -0.007312122
      9        6           0.005411142    0.001763564   -0.057787155
     10        8           0.019055293    0.034316353    0.078526579
     11        1          -0.013168556   -0.007017597   -0.006772104
     12        8          -0.012925826   -0.072536662   -0.038021270
     13        1           0.037890943    0.008297975    0.009747270
     14        8           0.048399468   -0.014414664    0.006349773
     15        1          -0.029246562    0.019644191    0.003930134
     16        8          -0.076033715   -0.007163906    0.010281938
     17        1           0.003786649    0.003960872   -0.018046619
     18        6          -0.001141448   -0.008944664   -0.004651309
     19        1           0.011497820    0.002672208    0.007085044
     20        1           0.001536026    0.004489119   -0.015685011
     21        1          -0.010463416    0.006473782    0.006460176
 -------------------------------------------------------------------
 Cartesian Forces:  Max     0.078526579 RMS     0.023588798

 GradGradGradGradGradGradGradGradGradGradGradGradGradGradGradGradGradGrad
 Berny optimization.
 FormGI is forming the generalized inverse of G from B-inverse, IUseBI=4.
 Internal  Forces:  Max     0.072623010 RMS     0.016763813
 Search for a saddle point.
 Step number   2 out of a maximum of  111
 All quantities printed in internal units (Hartrees-Bohrs-Radians)
 Swapping is turned off.
 Update second derivatives using D2CorX and points    1    2
 ITU=  0  0
     Eigenvalues ---   -0.08991  -0.03762  -0.02772  -0.02181  -0.00534
     Eigenvalues ---    0.00055   0.00061   0.00085   0.00125   0.00140
     Eigenvalues ---    0.00174   0.00724   0.00786   0.01375   0.01609
     Eigenvalues ---    0.02945   0.03210   0.03545   0.04130   0.04364
     Eigenvalues ---    0.04390   0.04427   0.04822   0.05472   0.06205
     Eigenvalues ---    0.06311   0.06510   0.06692   0.06744   0.06849
     Eigenvalues ---    0.07141   0.08343   0.09635   0.12090   0.12634
     Eigenvalues ---    0.13629   0.14136   0.15028   0.16982   0.18442
     Eigenvalues ---    0.18578   0.19005   0.19706   0.27527   0.33120
     Eigenvalues ---    0.36322   0.39030   0.39166   0.39433   0.39467
     Eigenvalues ---    0.39776   0.39955   0.40416   0.40625   0.40800
     Eigenvalues ---    0.55013   0.55891
 Eigenvectors required to have negative eigenvalues:
                          R14       R17       R16       R13       R11
   1                    0.48171  -0.47338   0.46144  -0.45638   0.26532
                          R10       A29       D16       A14       A21
   1                   -0.16045   0.05318   0.04899   0.04214  -0.03753
 RFO step:  Lambda0=1.090439189D-03 Lambda=-1.49381838D-01.
 Linear search not attempted -- option 19 set.
 Maximum step size (   0.300) exceeded in Quadratic search.
    -- Step size scaled by   0.232
 Iteration  1 RMS(Cart)=  0.04684818 RMS(Int)=  0.00181139
 Iteration  2 RMS(Cart)=  0.00268932 RMS(Int)=  0.00007298
 Iteration  3 RMS(Cart)=  0.00000259 RMS(Int)=  0.00007297
 Iteration  4 RMS(Cart)=  0.00000000 RMS(Int)=  0.00007297
 Variable       Old X    -DE/DX   Delta X   Delta X   Delta X     New X
                                 (Linear)    (Quad)   (Total)
    R1        2.02984   0.01465   0.00000   0.00689   0.00689   2.03672
    R2        2.02965   0.01600   0.00000   0.00661   0.00661   2.03626
    R3        2.02900   0.01589   0.00000   0.00590   0.00590   2.03490
    R4        2.70235  -0.00182   0.00000   0.00019   0.00019   2.70254
    R5        2.02869   0.01367   0.00000   0.00579   0.00579   2.03448
    R6        2.02898   0.01483   0.00000   0.00598   0.00598   2.03496
    R7        2.02910   0.01570   0.00000   0.00592   0.00592   2.03502
    R8        2.89124  -0.02260   0.00000  -0.01675  -0.01675   2.87449
    R9        2.65153  -0.07124   0.00000  -0.03722  -0.03722   2.61431
   R10        3.98330  -0.05996   0.00000  -0.10335  -0.10343   3.87987
   R11        3.87271  -0.07262   0.00000  -0.21854  -0.21845   3.65426
   R12        1.81976   0.01629   0.00000   0.00441   0.00441   1.82417
   R13        2.54690  -0.06086   0.00000  -0.14192  -0.14203   2.40487
   R14        2.62537  -0.05905   0.00000  -0.06151  -0.06142   2.56395
   R15        2.70851   0.00659   0.00000   0.00608   0.00608   2.71459
   R16        2.72536  -0.02584   0.00000   0.03403   0.03389   2.75926
   R17        2.66227  -0.02796   0.00000  -0.03902  -0.03890   2.62337
   R18        1.82027   0.01637   0.00000   0.00522   0.00522   1.82549
   R19        2.02790   0.01357   0.00000   0.00489   0.00489   2.03279
   R20        2.02934   0.01595   0.00000   0.00615   0.00615   2.03549
   R21        2.02809   0.01367   0.00000   0.00512   0.00512   2.03321
    A1        1.91002   0.00030   0.00000  -0.00072  -0.00075   1.90927
    A2        1.90897   0.00104   0.00000  -0.00201  -0.00200   1.90696
    A3        1.91453   0.00098   0.00000   0.00414   0.00412   1.91865
    A4        1.91096   0.00017   0.00000   0.00022   0.00023   1.91120
    A5        1.91757   0.00727   0.00000   0.00635   0.00635   1.92391
    A6        1.90173  -0.00980   0.00000  -0.00803  -0.00803   1.89370
    A7        1.91045   0.00133   0.00000  -0.00027  -0.00027   1.91017
    A8        1.90820   0.00039   0.00000  -0.00255  -0.00255   1.90565
    A9        1.91671   0.00686   0.00000   0.00484   0.00485   1.92156
   A10        1.91402   0.00563   0.00000   0.00240   0.00240   1.91642
   A11        1.90728  -0.00709   0.00000  -0.00237  -0.00237   1.90492
   A12        1.90715  -0.00711   0.00000  -0.00204  -0.00204   1.90510
   A13        1.92822   0.02531   0.00000   0.02794   0.02797   1.95620
   A14        1.92153  -0.00592   0.00000  -0.01418  -0.01416   1.90738
   A15        1.93212  -0.00730   0.00000  -0.00104  -0.00100   1.93112
   A16        1.92965  -0.00493   0.00000  -0.00279  -0.00276   1.92689
   A17        1.91470  -0.00931   0.00000  -0.01850  -0.01851   1.89619
   A18        1.83574   0.00053   0.00000   0.00708   0.00703   1.84278
   A19        1.91380   0.00102   0.00000   0.00226   0.00226   1.91606
   A20        1.66193   0.00159   0.00000  -0.00912  -0.00916   1.65277
   A21        1.99715  -0.00174   0.00000  -0.00046  -0.00041   1.99674
   A22        2.00349  -0.00168   0.00000   0.00617   0.00620   2.00969
   A23        2.76970  -0.00010   0.00000  -0.01487  -0.01519   2.75450
   A24        1.95977  -0.00303   0.00000  -0.00760  -0.00750   1.95227
   A25        1.97158   0.00207   0.00000   0.00414   0.00422   1.97580
   A26        1.75064  -0.00273   0.00000   0.00049   0.00029   1.75093
   A27        2.78355   0.00102   0.00000  -0.00464  -0.00444   2.77912
   A28        1.76480  -0.00032   0.00000   0.02105   0.02143   1.78623
   A29        1.94504  -0.00880   0.00000  -0.01897  -0.01907   1.92597
   A30        1.96662   0.00229   0.00000   0.00054   0.00060   1.96722
   A31        1.90521  -0.00382   0.00000  -0.00542  -0.00542   1.89979
   A32        1.91454   0.00734   0.00000   0.00308   0.00308   1.91762
   A33        1.90749  -0.00398   0.00000  -0.00304  -0.00305   1.90444
   A34        1.91224  -0.00043   0.00000   0.00197   0.00197   1.91421
   A35        1.91229   0.00109   0.00000   0.00173   0.00171   1.91400
   A36        1.91202  -0.00021   0.00000   0.00165   0.00165   1.91367
    D1        1.11569   0.00539   0.00000   0.00414   0.00424   1.11993
    D2        3.08020   0.00135   0.00000   0.00254   0.00247   3.08267
    D3       -0.98466  -0.00014   0.00000  -0.00154  -0.00147  -0.98613
    D4        0.97985  -0.00418   0.00000  -0.00314  -0.00324   0.97661
    D5       -3.07821   0.00129   0.00000  -0.00071  -0.00062  -3.07884
    D6       -1.11370  -0.00275   0.00000  -0.00231  -0.00239  -1.11609
    D7        3.13838  -0.00175   0.00000  -0.00297  -0.00293   3.13545
    D8       -1.00851   0.00501   0.00000   0.00267   0.00263  -1.00588
    D9        1.01381  -0.00217   0.00000   0.00223   0.00222   1.01603
   D10        1.04255  -0.00320   0.00000  -0.00414  -0.00409   1.03846
   D11       -3.10434   0.00356   0.00000   0.00150   0.00146  -3.10288
   D12       -1.08201  -0.00362   0.00000   0.00106   0.00105  -1.08096
   D13       -1.05182  -0.00147   0.00000  -0.00441  -0.00436  -1.05617
   D14        1.08448   0.00529   0.00000   0.00124   0.00120   1.08568
   D15        3.10680  -0.00190   0.00000   0.00079   0.00078   3.10759
   D16        1.03228   0.00072   0.00000  -0.01664  -0.01654   1.01575
   D17       -1.09925  -0.00561   0.00000  -0.01575  -0.01576  -1.11501
   D18       -3.11609   0.00205   0.00000  -0.01187  -0.01197  -3.12806
   D19       -2.10651  -0.01206   0.00000  -0.00608  -0.00607  -2.11258
   D20        2.07874  -0.01154   0.00000  -0.00780  -0.00781   2.07093
   D21        0.02894   0.01255   0.00000   0.01769   0.01773   0.04667
   D22       -2.06900   0.01308   0.00000   0.01598   0.01599  -2.05301
   D23        2.09459  -0.00068   0.00000  -0.00158  -0.00157   2.09302
   D24       -0.00335  -0.00016   0.00000  -0.00329  -0.00331  -0.00666
   D25       -2.07278   0.01031   0.00000   0.01588   0.01588  -2.05690
   D26        2.11679   0.01181   0.00000   0.01191   0.01194   2.12873
   D27        2.07791  -0.01042   0.00000  -0.00612  -0.00610   2.07181
   D28       -0.01571  -0.00893   0.00000  -0.01008  -0.01004  -0.02575
   D29        0.00223  -0.00019   0.00000   0.00260   0.00262   0.00485
   D30       -2.09138   0.00131   0.00000  -0.00136  -0.00132  -2.09271
   D31        0.00120   0.00169   0.00000   0.00247   0.00243   0.00363
   D32        2.10018   0.00002   0.00000   0.00418   0.00418   2.10436
   D33       -0.00628  -0.00335   0.00000  -0.00557  -0.00554  -0.01182
   D34       -2.10026  -0.00163   0.00000  -0.00200  -0.00197  -2.10223
   D35       -3.04406  -0.00161   0.00000   0.00259   0.00260  -3.04146
   D36       -0.94865  -0.00001   0.00000   0.00354   0.00355  -0.94510
   D37        1.14791   0.00176   0.00000   0.00558   0.00558   1.15349
   D38       -1.14765  -0.00176   0.00000  -0.00538  -0.00538  -1.15303
   D39        0.94777  -0.00017   0.00000  -0.00443  -0.00443   0.94333
   D40        3.04432   0.00161   0.00000  -0.00239  -0.00241   3.04192
   D41       -2.08722   0.00335   0.00000   0.00757   0.00754  -2.07968
   D42        0.00218  -0.00090   0.00000   0.00080   0.00078   0.00296
   D43        0.00406   0.00293   0.00000   0.00294   0.00291   0.00697
   D44        2.08223  -0.00656   0.00000  -0.00676  -0.00664   2.07559
         Item               Value     Threshold  Converged?
 Maximum Force            0.072623     0.000450     NO 
 RMS     Force            0.016764     0.000300     NO 
 Maximum Displacement     0.192651     0.001800     NO 
 RMS     Displacement     0.048785     0.001200     NO 
 Predicted change in Energy=-4.180688D-02
 GradGradGradGradGradGradGradGradGradGradGradGradGradGradGradGradGradGrad

                          Input orientation:                          
 ---------------------------------------------------------------------
 Center     Atomic      Atomic             Coordinates (Angstroms)
 Number     Number       Type             X           Y           Z
 ---------------------------------------------------------------------
      1          6           0       -3.607813    1.397136    0.032646
      2          1           0       -4.122904    0.648074   -0.546329
      3          1           0       -2.910975    1.921775   -0.600022
      4          1           0       -4.325738    2.093493    0.431667
      5          6           0       -1.707981   -1.885729    1.000803
      6          1           0       -1.765144   -1.872934    2.075809
      7          1           0       -0.909626   -2.539097    0.692013
      8          1           0       -2.643518   -2.238539    0.600827
      9          6           0       -1.437221   -0.484271    0.475073
     10          8           0       -1.347914   -0.454813   -0.905162
     11          1           0       -2.165884   -0.790302   -1.292709
     12          8           0       -1.094184    2.241469    2.440110
     13          1           0       -2.130013    1.724079    1.912017
     14          8           0       -2.918262    0.781131    1.123657
     15          1           0       -0.237001    1.324722    1.924670
     16          8           0        0.205882    0.216227    1.215956
     17          1           0        0.821665    0.447451    0.508486
     18          6           0       -0.843401    3.600258    2.047267
     19          1           0        0.098683    3.913532    2.461371
     20          1           0       -0.808595    3.670313    0.972976
     21          1           0       -1.631579    4.227535    2.425321
 ---------------------------------------------------------------------
                    Distance matrix (angstroms):
                    1          2          3          4          5
     1  C    0.000000
     2  H    1.077786   0.000000
     3  H    1.077543   1.758968   0.000000
     4  H    1.076823   1.756944   1.759382   0.000000
     5  C    3.914574   3.826960   4.301967   4.796954   0.000000
     6  H    4.273559   4.334758   4.782554   4.999239   1.076601
     7  H    4.817562   4.692196   5.057087   5.761813   1.076853
     8  H    3.804054   3.440507   4.338408   4.650266   1.076886
     9  C    2.906355   3.088423   3.019410   3.871728   1.521114
    10  O    3.068606   3.007606   2.860846   4.141064   2.410367
    11  H    2.936087   2.540854   2.896608   3.994335   2.582601
    12  O    3.581495   4.542121   3.556028   3.807713   4.413854
    13  H    2.413052   3.342583   2.638053   2.673782   3.746883
    14  O    1.430122   2.063424   2.066928   2.045026   2.931214
    15  H    3.866183   4.654453   3.725679   4.420163   3.650248
    16  O    4.164017   4.693669   3.990171   4.967375   2.850856
    17  H    4.555063   5.059807   4.163535   5.404731   3.476380
    18  C    4.068712   5.118326   3.755038   4.123976   5.651427
    19  H    5.095986   6.126277   4.732575   5.196898   6.247297
    20  H    3.726550   4.735700   3.154633   3.892258   5.628434
    21  H    4.200185   5.277304   4.013239   3.973322   6.277506
                    6          7          8          9         10
     6  H    0.000000
     7  H    1.758002   0.000000
     8  H    1.755214   1.762110   0.000000
     9  C    2.144359   2.132540   2.132703   0.000000
    10  O    3.327362   2.662199   2.669882   1.383435   0.000000
    11  H    3.560842   2.928410   2.431255   1.936403   0.965308
    12  O    4.184640   5.093496   5.084669   3.377677   4.304087
    13  H    3.619180   4.599176   4.205383   2.724258   3.646334
    14  O    3.046365   3.904465   3.076888   2.053141   2.847747
    15  H    3.547262   4.111078   4.498968   2.610425   3.522616
    16  O    2.998147   3.018391   3.810950   1.933751   2.713617
    17  H    3.812122   3.456953   4.385267   2.443725   2.742181
    18  C    5.550338   6.287509   6.278865   4.416762   5.041327
    19  H    6.091445   6.766368   6.987794   5.064095   5.701634
    20  H    5.732262   6.216584   6.198384   4.231270   4.564530
    21  H    6.111933   7.022312   6.794329   5.103171   5.752996
                   11         12         13         14         15
    11  H    0.000000
    12  O    4.926876   0.000000
    13  H    4.073532   1.272602   0.000000
    14  O    2.978976   2.681957   1.460136   0.000000
    15  H    4.306442   1.356785   1.934720   2.850662   0.000000
    16  O    3.596077   2.700061   2.866099   3.176147   1.388230
    17  H    3.701592   3.258857   3.508858   3.804844   1.973818
    18  C    5.672866   1.436498   2.278971   3.620162   2.358138
    19  H    6.430197   2.054065   3.172157   4.550096   2.665084
    20  H    5.183884   2.067762   2.532937   3.580611   2.595042
    21  H    6.268007   2.057540   2.603691   3.902253   3.259113
                   16         17         18         19         20
    16  O    0.000000
    17  H    0.966006   0.000000
    18  C    3.639194   3.883360   0.000000
    19  H    3.902898   4.043536   1.075707   0.000000
    20  H    3.608173   3.641475   1.077135   1.760008   0.000000
    21  H    4.574868   4.897111   1.075930   1.758893   1.759859
                   21
    21  H    0.000000
 Stoichiometry    C4H13O4(1+)
 Framework group  C1[X(C4H13O4)]
 Deg. of freedom    57
 Full point group                 C1      NOp   1
 Largest Abelian subgroup         C1      NOp   1
 Largest concise Abelian subgroup C1      NOp   1
                         Standard orientation:                         
 ---------------------------------------------------------------------
 Center     Atomic      Atomic             Coordinates (Angstroms)
 Number     Number       Type             X           Y           Z
 ---------------------------------------------------------------------
      1          6           0        0.045652    2.299685    0.173308
      2          1           0        1.029378    2.738074    0.214792
      3          1           0       -0.261865    2.016133    1.166349
      4          1           0       -0.647845    3.020338   -0.225778
      5          6           0        2.344980   -0.652717   -0.975733
      6          1           0        1.898661   -0.936915   -1.913336
      7          1           0        2.951592   -1.462621   -0.607373
      8          1           0        2.955500    0.221729   -1.125039
      9          6           0        1.261714   -0.336877    0.044349
     10          8           0        1.791240    0.026529    1.269677
     11          1           0        2.364956    0.795423    1.162566
     12          8           0       -2.050114   -0.500037   -0.598981
     13          1           0       -1.224843    0.459348   -0.733235
     14          8           0        0.057144    1.156693   -0.686160
[...]
 -0.00299688,0.00351953,-0.00098915,0.00113564,-0.00040017,0.00086457,0
 .00128298,-0.00095532,0.00442141,-0.11380383,-0.04780805,-0.13130767,0
 .59535401,-0.00539684,0.00491332,-0.00431059,0.00158977,-0.00024286,0.
 00133277,0.00036149,-0.00099550,0.00073300,0.00027028,0.00047534,0.000
 63926,-0.00596554,-0.01262023,-0.04205883,-0.00033364,0.00719512,-0.00
 351007,-0.00071735,-0.00124082,0.00157779,0.00051096,-0.00165928,0.001
 43835,-0.02692946,0.00553555,-0.24452925,0.03387499,0.13222174,0.37880
 169,0.00028263,-0.00018772,0.00092467,0.00008677,0.00044945,-0.0000256
 4,-0.00016613,-0.00006170,-0.00020340,0.00006122,0.00004787,0.00013701
 ,0.00108824,-0.00103727,-0.00132574,-0.00070862,0.00023983,-0.00025223
 ,-0.00041423,0.00045681,-0.00042902,-0.00054041,-0.00026584,0.00098428
 ,0.00175943,-0.00664728,-0.00283813,-0.03183820,0.12912196,0.01462397,
 0.03748673,0.00007107,-0.00044977,0.00013227,0.00005415,0.00001259,-0.
 00009023,-0.00000350,0.00007642,-0.00007073,-0.00001270,0.00011142,-0.
 00002820,-0.00031506,0.00278563,0.00312081,-0.00010453,-0.00113780,0.0
 0090437,0.00063828,0.00075507,-0.00012007,-0.00055053,0.00034908,0.000
 08857,0.00374690,-0.01021117,0.00054068,0.12119337,-0.45772918,-0.0763
 6591,-0.12279936,0.46208910,-0.00078623,0.00097321,-0.00058119,0.00018
 877,0.00025168,0.00020599,-0.00016450,-0.00027842,0.00003980,0.0000013
 1,-0.00002799,0.00036836,0.00102471,0.00040393,0.00192256,-0.00018621,
 0.00007969,0.00083794,-0.00125533,0.00067022,-0.00078980,0.00058869,0.
 00028737,-0.00075570,0.01299413,-0.04556960,-0.00860167,-0.00096331,-0
 .02372203,-0.04509302,-0.01068890,0.06976555,0.06149387,0.00190851,-0.
 00288582,0.00178263,-0.00051131,0.00046021,-0.00068276,-0.00005355,0.0
 0044504,-0.00029115,0.00009860,0.00014421,0.00015752,0.00144199,-0.000
 05972,0.00002405,-0.00024211,0.00018077,-0.00018271,0.00010618,-0.0004
 2093,0.00003409,0.00008013,0.00031042,-0.00026468,-0.01984629,0.001923
 56,0.00361763,0.00413169,0.00017631,0.00034360,0.00035536,-0.00008523,
 -0.00027913,0.58606641,0.00184982,-0.00374720,0.00190780,-0.00038971,0
 .00060728,-0.00078688,0.00013232,0.00014413,-0.00065136,-0.00045234,0.
 00014430,0.00000270,-0.00091942,-0.00056293,0.00036340,0.00007654,0.00
 022626,-0.00057681,-0.00003960,0.00007742,-0.00022619,-0.00005444,-0.0
 0033155,-0.00002667,0.00940312,0.00652580,0.00091243,-0.00270330,-0.00
 262548,-0.00334821,0.00004340,0.00062406,0.00036854,0.06427296,0.39512
 424,0.00173353,-0.00170929,0.00199866,-0.00013665,0.00021662,-0.000331
 84,0.00013902,0.00005934,-0.00012211,-0.00034862,0.00020521,-0.0001098
 0,-0.00140198,-0.00062663,-0.00045162,0.00005913,-0.00025128,0.0000991
 0,-0.00005664,0.00024772,0.00003872,-0.00003336,-0.00034182,0.00041892
 ,0.01496700,0.00717703,-0.00188013,-0.00376252,-0.00327356,-0.00306491
 ,0.00002475,0.00080804,0.00014479,-0.00223577,0.14956468,0.26949939,-0
 .00148836,0.00185540,-0.00264537,0.00017234,-0.00019725,0.00058712,0.0
 0004846,-0.00035131,0.00060687,-0.00054010,0.00000688,-0.00044534,-0.0
 0098802,0.00007955,0.00033994,0.00032420,0.00022332,-0.00016727,-0.000
 09999,0.00025973,-0.00013922,-0.00006714,-0.00033733,-0.00005637,0.014
 52403,-0.00076766,0.00181742,-0.00257876,0.00185603,0.00083661,-0.0002
 2375,-0.00010609,0.00043944,-0.39629577,-0.05165726,-0.05843741,0.4181
 5329,-0.00246600,0.00509515,-0.00114975,0.00075964,-0.00090513,0.00116
 887,0.00009419,-0.00046363,0.00101499,0.00059925,-0.00004329,-0.000048
 45,-0.00074135,-0.00000191,-0.00024154,0.00043809,-0.00047170,0.000432
 69,-0.00002899,0.00036315,0.00020404,-0.00007051,-0.00010093,0.0001174
 1,0.01001242,-0.00436585,-0.00406131,-0.00173506,0.00095871,0.00152883
 ,-0.00014743,-0.00010797,0.00008008,-0.02985669,-0.06258612,-0.0265709
 0,0.04536626,0.06210732,-0.00332205,0.00212552,-0.00346893,0.00044893,
 -0.00012641,0.00060988,0.00014932,-0.00042074,-0.00000438,-0.00019918,
 -0.00025551,0.00014107,-0.00051531,0.00033675,0.00070277,-0.00017290,0
 .00031721,-0.00012423,-0.00008300,0.00022388,-0.00037144,-0.00009583,-
 0.00006608,-0.00000102,0.01067621,-0.00749187,-0.00241820,-0.00173208,
 0.00182798,0.00133654,-0.00023289,-0.00026774,0.00030103,-0.08256517,-
 0.02979539,-0.04555061,0.05454419,0.01788595,0.03815459,-0.09092720,0.
 02911572,-0.04465718,-0.01172333,0.01484473,-0.01858055,0.01360496,0.0
 0067316,0.00464792,-0.01638780,0.01618286,-0.02700549,-0.01442713,0.01
 807730,0.00249875,-0.00015513,-0.00118185,0.00145289,0.00099736,0.0030
 9321,-0.00220228,0.00096082,0.00036004,0.00038618,-0.11929001,0.062242
 85,0.01799267,0.00474412,0.01424619,0.01625695,-0.00155213,-0.00221981
 ,0.00063275,0.00088169,-0.01003255,-0.00953001,-0.01057831,-0.00017062
 ,-0.00099212,0.31831706,0.03550879,-0.08385530,0.04303167,-0.00190394,
 0.01258454,-0.00583627,0.01624987,-0.01196178,0.01937307,0.01442722,-0
 .01301979,0.02301394,0.03156867,-0.02624118,-0.00391682,0.00032885,0.0
 0059302,-0.00056430,0.00053060,-0.00404455,0.00457810,0.00096788,0.001
 60723,-0.00173543,0.03808020,-0.11840352,-0.00805329,0.01701063,-0.021
 66295,-0.03205046,0.00435031,0.00315929,-0.00305789,-0.01288494,-0.002
 72420,-0.00596629,0.00515970,0.00016507,0.00969092,-0.16135394,0.24800
 449,-0.02421927,0.02222392,-0.15374187,-0.01702021,0.01881650,-0.02279
 244,-0.01701316,0.01553857,-0.01999313,0.00259552,-0.00352300,0.008878
 04,-0.01602253,0.01636105,0.01037751,0.00026726,-0.00097862,0.00206098
 ,-0.00029830,0.00439541,-0.00213063,-0.00007751,0.00001266,-0.00014962
 ,-0.01002062,0.00364719,-0.11335093,0.02867024,-0.04469277,-0.02447440
 ,0.00379497,0.00196835,-0.00757508,-0.01138330,-0.00944431,-0.00439060
 ,0.00326368,0.00683031,0.00352247,0.04397289,-0.03135126,0.31711000,-0
 .00089882,0.00088204,-0.00051473,0.00032907,-0.00010994,0.00024761,0.0
 0010482,-0.00023450,-0.00017390,-0.00017220,-0.00001136,-0.00004020,-0
 .00144684,-0.00006327,-0.00004336,0.00028779,-0.00037130,0.00024635,-0
 .00001248,0.00048304,0.00004852,-0.00008816,-0.00023130,0.00028243,0.0
 1707574,-0.00634554,-0.01049308,-0.00455281,-0.00293139,-0.00249893,-0
 .00051477,0.00027651,0.00001021,-0.09493564,0.01059211,0.04949868,-0.0
 2288754,0.01462390,0.02888621,-0.00123051,0.00454737,0.00319682,0.1271
 5606,-0.00031947,0.00118629,-0.00131354,-0.00011210,-0.00020037,0.0001
 8441,-0.00018366,0.00016200,0.00055000,0.00056287,-0.00014206,0.000215
 83,0.00191329,0.00023758,0.00008065,-0.00051624,-0.00027538,0.00059507
 ,0.00009656,-0.00045484,0.00002009,0.00012474,0.00070666,-0.00016572,-
 0.02823455,-0.01073473,-0.00112643,0.00609369,0.00337168,0.00346400,0.
 00018763,-0.00074231,-0.00045414,0.00701100,-0.06484560,-0.04011355,0.
 00690115,0.01299798,0.00849596,0.00693219,-0.00780420,-0.00381075,-0.0
 1033811,0.07957875,-0.00092218,0.00028763,-0.00133879,-0.00010918,0.00
 001398,-0.00005115,-0.00032923,0.00038966,-0.00002073,0.00063193,-0.00
 013689,0.00021994,0.00299799,0.00094828,0.00096866,0.00016685,0.000714
 35,-0.00059063,0.00019282,-0.00059912,-0.00000328,0.00008402,0.0006940
 9,-0.00107689,-0.03830072,-0.01237953,0.00469596,0.00774763,0.00456509
 ,0.00444535,0.00011046,-0.00112223,-0.00030479,0.06860537,-0.05451235,
 -0.12876896,0.00420276,0.01118079,0.01213935,0.00890310,-0.00658363,-0
 .00496268,-0.05831156,0.02659383,0.10496739,0.00205950,-0.00653030,0.0
 0703071,-0.00072653,0.00076763,-0.00077197,0.00048466,0.00091623,-0.00
 116397,-0.00048507,0.00064284,-0.00082847,-0.01472020,-0.01229326,0.00
 185971,-0.00026149,0.00079076,-0.00028244,0.00074579,-0.00050287,-0.00
 080091,0.00160452,-0.00181456,0.00183157,-0.06331329,-0.01376564,-0.00
 693810,-0.00787560,-0.02506065,-0.02762843,-0.00635825,0.00040736,-0.0
 0094247,0.01241834,0.00817573,0.00456061,-0.00298100,-0.00372216,-0.00
 476996,-0.06887561,0.00569871,0.01341443,-0.02594236,0.00008912,0.0143
 2441,0.23295651,-0.00106465,-0.00033306,0.00045560,0.00058286,0.000154
 40,-0.00001210,-0.00075144,0.00056804,-0.00107615,-0.00024854,0.000518
 69,-0.00031796,-0.03126253,-0.01853178,0.00350592,-0.00012616,0.000313
 27,0.00043587,-0.00117112,0.00185540,-0.00138490,0.00048250,-0.0031035
 8,0.00464355,0.00432334,-0.07493921,-0.00272972,-0.02757523,-0.0149722
 6,-0.02635931,-0.00227462,0.00184254,0.00023136,0.01759765,-0.01976243
 ,-0.03772142,-0.00524086,-0.00526796,-0.00244989,0.00489598,0.02232535
 ,0.00121731,-0.01028424,-0.01018878,0.03003948,0.09958666,0.16956966,0
 .00081133,0.00173488,-0.00171087,0.00086795,-0.00033804,0.00055936,0.0
 0049770,-0.00071462,0.00018205,0.00005914,-0.00008404,0.00049577,0.020
 95164,0.01707097,0.00462534,0.00002125,-0.00133841,0.00231850,-0.00028
 619,0.00039267,-0.00023613,-0.00033977,0.00427052,-0.00230599,0.029985
 74,0.02098040,-0.09813287,-0.04183162,-0.03744716,-0.02036623,-0.00407
 722,0.00119411,-0.00156487,0.01487682,-0.03908608,-0.03514073,-0.00341
 083,-0.00278226,-0.00196411,0.01030970,-0.00183143,0.01212740,0.000483
 82,0.01843069,0.00775292,-0.11604998,-0.08223322,0.56446198,-0.0009289
 4,-0.00100908,0.00077321,-0.00017692,0.00020010,-0.00018370,-0.0003306
 1,0.00074008,-0.00041785,0.00008603,0.00020497,-0.00035130,-0.00255532
 ,-0.00159466,-0.00169484,-0.00006810,0.00029897,-0.00007747,0.00012315
 ,-0.00014610,0.00000997,0.00031909,-0.00053909,0.00053243,-0.00629508,
 -0.01136126,0.03421663,0.00235317,0.00420999,0.00034202,0.00116365,-0.
 00008310,-0.00050413,0.00099903,-0.00170542,-0.00165410,-0.00005061,-0
 .00017594,0.00029055,-0.00407316,0.00223741,-0.00170974,-0.00209715,0.
 00363426,0.00234577,-0.05769930,-0.05014918,0.08238383,0.06875190,0.00
 047307,0.00110594,-0.00078404,-0.00020883,-0.00011810,0.00019662,0.000
 22658,-0.00028383,0.00031527,-0.00007404,-0.00019965,0.00006624,-0.006
 04055,-0.00260636,-0.00158030,0.00022027,0.00039237,-0.00034977,0.0002
 2250,-0.00002779,0.00004931,0.00010631,-0.00128068,0.00100278,-0.00482
 863,-0.00736004,0.02343454,0.00543728,0.00141868,-0.00214427,-0.001456
 88,-0.00115776,0.00021360,0.00218594,-0.00733877,-0.00545506,-0.000380
 85,0.00024585,-0.00018816,0.00215464,-0.00067392,0.00021506,0.00043905
 ,0.01354910,0.00279184,-0.05401092,-0.05499901,0.09905662,0.05469451,0
 .05927544,0.00041455,-0.00056577,0.00096144,-0.00021562,-0.00005149,-0
 .00005644,-0.00023776,0.00019805,0.00013650,-0.00004599,0.00013245,-0.
 00021501,-0.00081336,-0.00155962,0.00009247,-0.00006654,-0.00005657,-0
 .00008120,-0.00002248,0.00004385,0.00007371,-0.00012782,-0.00041609,0.
 00049386,0.00394992,0.00365899,0.00884881,-0.00024270,-0.00179304,-0.0
 0322753,-0.00053144,-0.00038595,0.00000582,-0.00015888,-0.00040911,0.0
 0092842,0.00017678,-0.00009137,-0.00035865,-0.00381301,0.00095049,-0.0
 0048307,0.00050214,0.00284347,-0.00398344,0.11554129,0.11381678,-0.427
 75391,-0.11442338,-0.11577182,0.42493222,-0.00028677,-0.00016152,-0.00
 036844,-0.00003836,0.00007190,-0.00004649,-0.00004509,0.00002903,-0.00
 003775,0.00001250,0.00000029,-0.00000626,0.00026477,0.00007246,-0.0001
 0663,-0.00004988,-0.00013160,0.00013762,0.00001317,-0.00003004,0.00005
 753,0.00001645,0.00009799,0.00002536,-0.00307772,-0.00120043,-0.000478
 96,0.00066921,0.00038186,0.00055516,0.00003193,-0.00012641,-0.00012267
 ,-0.10312072,-0.00314925,0.01107360,0.00242263,-0.03207437,-0.00094973
 ,0.00022471,-0.00084410,-0.00134315,0.01137167,0.00584650,-0.01362083,
 -0.00085809,0.00361868,0.00582165,0.00051356,0.00093472,0.00013271,0.6
 3643616,-0.00180426,0.00194285,-0.00214508,0.00017694,-0.00021062,0.00
 043346,-0.00011454,-0.00013002,0.00034187,0.00011442,-0.00004522,-0.00
 007827,0.00021315,0.00012151,-0.00026285,-0.00001653,-0.00036017,0.000
 35642,-0.00000633,0.00002873,0.00013599,0.00003113,0.00010780,0.000071
 08,-0.00202420,-0.00422036,-0.00220250,0.00058351,0.00132728,0.0021721
 8,-0.00002891,-0.00033219,-0.00023637,-0.02444716,-0.16343811,-0.01684
 506,-0.00701111,-0.00334018,-0.00012414,0.00321309,0.00267365,0.004172
 62,0.00536455,-0.01811413,-0.01101821,-0.00031625,0.00681362,0.0062701
 6,0.00073073,0.00102129,-0.00037468,-0.06091239,0.40761785,-0.00027820
 ,-0.00009291,0.00003119,0.00002672,0.00009876,-0.00003421,0.00005240,-
 0.00003381,-0.00018233,-0.00009541,-0.00002375,0.00000934,-0.00003163,
 0.00006451,-0.00018953,0.00000218,-0.00011960,0.00016697,0.00001235,0.
 00005193,0.00006234,-0.00000502,0.00001904,0.00007646,0.00066464,-0.00
 025181,-0.00045346,-0.00018201,0.00012178,0.00027935,0.00000694,-0.000
 04763,-0.00005645,0.01181148,-0.00062532,-0.06613972,-0.00246470,-0.00
 506586,-0.00230320,-0.00043710,0.00028645,0.00004421,-0.01021927,-0.01
 462042,0.00489643,0.00122283,-0.00072106,-0.00338240,0.00020957,-0.000
 92731,-0.00024645,-0.01343358,-0.03009366,0.62724369,-0.00001093,-0.00
 002617,0.00001237,0.00000276,0.00000157,-0.00000649,-0.00000396,0.0000
 0186,-0.00000299,0.00001019,0.00000318,0.00000266,0.00001247,-0.000001
 22,-0.00000085,-0.00000365,0.00000026,-0.00000368,-0.00000017,-0.00000
 265,0.00000099,0.00000080,0.00000250,-0.00000032,-0.00011435,0.0000413
 7,0.00001930,0.00000726,-0.00000532,-0.00001431,0.00000419,0.00000184,
 -0.00000093,-0.00339460,-0.00261279,-0.00079581,0.00170004,-0.00007599
 ,0.00019110,-0.00000610,-0.00005187,-0.00005984,-0.00016935,-0.0001209
 8,0.00006949,0.00005011,-0.00001843,-0.00010683,0.00000078,-0.00006779
 ,-0.00003578,-0.33486213,-0.00182962,-0.05289543,0.35152074,0.00024495
 ,-0.00037920,0.00022553,-0.00005343,0.00007650,-0.00008903,0.00001248,
 0.00002600,-0.00008342,-0.00004280,-0.00000611,0.00001567,0.00005372,-
 0.00000111,0.00000611,-0.00003952,0.00002751,-0.00002142,-0.00000128,-
 0.00003253,-0.00001650,0.00000771,0.00000465,0.00000017,-0.00074037,0.
 00038435,0.00022400,0.00011758,-0.00010417,-0.00012004,0.00001463,0.00
 001240,-0.00001586,-0.04484237,-0.01356588,-0.00749947,0.00164938,-0.0
 0593162,-0.00014580,-0.00039780,-0.00075974,-0.00109390,-0.00114745,0.
 00139684,-0.00016137,0.00039367,-0.00010654,-0.00015367,-0.00003492,-0
 .00004708,-0.00001073,0.01596254,-0.04769682,0.00246986,0.00346001,0.0
 6095378,-0.00002650,0.00001317,-0.00007099,-0.00001010,-0.00001176,0.0
 0001041,-0.00002100,0.00001293,0.00004044,0.00003054,0.00000840,-0.000
 01035,0.00005748,0.00002616,0.00001273,0.00000133,-0.00000507,0.000004
 93,0.00000024,-0.00001255,0.00000462,0.00000100,0.00001323,-0.00001358
 ,-0.00056949,-0.00012359,0.00006566,0.00011149,0.00006610,0.00004622,-
 0.00000219,-0.00001753,0.00000158,-0.00451117,-0.00259824,-0.00018272,
 0.00038032,-0.00052232,-0.00010129,0.00014105,-0.00012168,-0.00009306,
 -0.00090772,-0.00042868,-0.00022086,0.00047756,0.00030537,-0.00005024,
 -0.00009938,-0.00012526,-0.00006812,-0.05172872,0.00145073,-0.06407632
 ,0.05728196,0.00161797,0.05889076,0.00013386,-0.00011873,0.00007960,-0
 .00002068,0.00005352,-0.00003091,0.00004282,-0.00002911,-0.00009034,-0
 .00011117,-0.00004001,0.00001314,-0.00007647,-0.00000865,0.00002554,0.
 00000462,0.00002152,-0.00002260,-0.00000437,0.00001332,-0.00001758,-0.
 00000164,-0.00002264,0.00000277,0.00074694,0.00004202,0.00000691,-0.00
 014009,-0.00001832,-0.00004596,0.00000066,0.00001207,0.00000654,0.0026
 0360,-0.01078038,0.00772463,0.00067910,-0.00074985,0.00132862,-0.00028
 671,0.00032822,0.00000370,-0.00018438,0.00128107,0.00010367,-0.0003901
 3,-0.00039508,-0.00006737,0.00004565,0.00014846,0.00006092,-0.07358224
 ,0.03671956,-0.05887904,-0.00264797,0.01582078,-0.02639684,0.06698225,
 0.00011612,-0.00028000,0.00028409,-0.00000312,0.00007203,-0.00008201,0
 .00001528,0.00002646,-0.00015431,-0.00005043,0.00000650,-0.00000043,-0
 .00000470,-0.00000135,0.00010216,0.00000815,0.00008000,-0.00008667,-0.
 00000522,-0.00000961,-0.00003544,-0.00000326,-0.00001620,-0.00004123,0
 .00013243,0.00007103,0.00029279,-0.00005517,-0.00002773,-0.00016599,-0
 .00000125,0.00001266,0.00002303,0.00212568,-0.03402682,0.02037343,0.00
 182039,0.00060301,0.00129831,-0.00021960,0.00004853,-0.00037328,-0.000
 65700,0.00122202,0.00326595,0.00009336,-0.00019609,-0.00086201,-0.0000
 2887,-0.00036107,-0.00010035,0.03231652,-0.11339235,0.10843735,0.00083
 842,0.00346419,-0.00116268,-0.03300974,0.13368107,-0.00008799,-0.00002
 392,0.00006198,0.00002225,-0.00000382,-0.00001711,-0.00001489,-0.00000
 624,-0.00002867,0.00004449,0.00002130,-0.00000347,0.00001259,-0.000013
 39,0.00001129,-0.00000223,0.00002014,-0.00002058,0.00000121,-0.0000068
 4,-0.00000238,0.00000091,0.,-0.00000984,-0.00017435,-0.00003325,0.0000
 3355,0.00002825,0.00000263,-0.00001164,0.00000003,-0.00000306,-0.00000
 257,0.00238044,-0.00945136,0.01141262,0.00044140,0.00093192,0.00026474
 ,0.00013644,0.00005146,-0.00002055,0.00024036,0.00003161,0.00083665,-0
 .00001870,0.00029874,-0.00000358,0.00002049,-0.00008126,-0.00002782,-0
 .05722475,0.11792215,-0.25644394,0.00038267,0.00104439,-0.00218580,0.0
 6205358,-0.12297621,0.26277302,0.00008359,-0.00004494,0.00000398,-0.00
 001779,0.00001074,-0.00000103,-0.00000167,-0.00000196,0.00000372,-0.00
 003100,-0.00000067,-0.00001368,-0.00003241,0.00000577,0.00000454,0.000
 01663,0.00000286,-0.00000148,-0.00000284,0.00000564,0.00000090,-0.0000
 0118,-0.00001388,-0.00000353,0.00037775,0.00010018,0.00001582,-0.00009
 232,-0.00002137,-0.00003534,-0.00000430,0.00000476,0.00000725,0.007308
 47,-0.01004954,-0.01138807,0.00075526,0.00012121,-0.00088491,-0.000217
 59,0.00004438,-0.00001187,-0.00119215,-0.00084894,0.00110745,0.0001674
 8,-0.00052559,-0.00090077,-0.00008082,-0.00017484,-0.00004352,-0.13605
 574,0.05136422,0.12491226,-0.01209613,0.00956247,0.02579012,0.00620633
 ,-0.00342799,-0.00824221,0.13491042,0.00009347,-0.00016541,0.00017627,
 -0.00000706,0.00003014,-0.00003824,0.00000945,0.00000132,-0.00004638,-
 0.00002395,0.00001917,-0.00001135,-0.00007924,-0.00001881,-0.00000430,
 0.00002209,0.00002412,-0.00003179,-0.00000496,0.00000903,-0.00000202,-
 0.00000459,-0.00003204,0.00000246,0.00093907,0.00058639,0.00011154,-0.
 00023281,-0.00017456,-0.00019320,-0.00000361,0.00003789,0.00001405,0.0
 1864912,-0.02791839,-0.03227772,0.00087192,0.00105004,-0.00087076,-0.0
 0045577,-0.00001004,-0.00013106,-0.00448317,-0.00090651,0.00502839,0.0
 0045454,-0.00156026,-0.00253008,-0.00012341,-0.00055463,-0.00005747,0.
 03929764,-0.07037438,-0.05892652,0.00046182,0.00228457,0.00161533,-0.0
 0926802,0.00902372,0.01227503,-0.04611253,0.08864865,0.00007575,-0.000
 01024,-0.00006149,-0.00002312,0.00000817,0.00001266,0.00000200,-0.0000
 0779,0.00001322,-0.00004893,-0.00001943,-0.00001087,-0.00001846,0.0000
 1527,0.00000725,0.00000413,-0.00000652,0.00000502,-0.00000179,0.000004
 77,-0.00000194,0.00000079,-0.00000534,0.00000118,0.00016813,-0.0000485
 5,-0.00000885,-0.00002753,0.00003216,0.00001615,-0.00000028,-0.0000034
 3,0.00000339,-0.00107890,-0.00158128,0.00159310,0.00012996,-0.00084211
 ,-0.00050640,-0.00011355,0.00009265,0.00003747,-0.00044039,0.00052763,
 0.00039955,-0.00006770,0.00005574,0.00008862,-0.00000859,0.00006537,0.
 00002838,0.12166434,-0.06994584,-0.23930198,-0.00403726,0.00380750,0.0
 0799600,0.01414104,-0.00803651,-0.01661589,-0.13031961,0.07589780,0.24
 630542\\-0.00000365,-0.00000456,0.00000220,-0.00000057,-0.00000723,0.0
 0000173,-0.00000416,-0.00000355,0.00000086,-0.00000355,-0.00000719,0.0
 0000082,0.00001080,0.00000589,-0.00000387,0.00000577,0.00000088,0.0000
 0073,0.00000829,0.00000225,-0.00000025,0.00000790,-0.00000215,0.000000
 87,-0.00000190,-0.00000701,0.00000305,0.00000553,0.00000302,0.00000410
 ,0.00000510,-0.00000011,0.00000072,0.00001043,-0.00000600,-0.00001114,
 -0.00000591,0.00000049,0.00000170,0.00000802,-0.00000373,-0.00000370,-
 0.00000671,0.00000683,0.00000717,-0.00000367,0.00000490,0.00000091,-0.
 00000211,0.00000343,-0.00000139,-0.00000892,0.00000312,-0.00000061,-0.
 00000588,0.00000580,-0.00000207,-0.00000852,0.00000263,-0.00000119,-0.
 00000630,0.00000229,-0.00000061\\\@


 THE ONLY TROUBLE WITH A SURE THING IS THE UNCERTAINTY.
     -- FROM A TEABAG (BELONGING TO W.H.?)
 Job cpu time:       0 days  0 hours  9 minutes  1.5 seconds.
 File lengths (MBytes):  RWF=     78 Int=      0 D2E=      0 Chk=      4 Scr=      1
 Normal termination of Gaussian 09 at Wed Sep 30 09:07:57 2015.
