 Entering Link 1 = C:\G09W\l1.exe PID=      2224.
  
 Copyright (c) 1988,1990,1992,1993,1995,1998,2003,2009, Gaussian, Inc.
                  All Rights Reserved.
  
 This is part of the Gaussian(R) 09 program.  It is based on
 the Gaussian(R) 03 system (copyright 2003, Gaussian, Inc.),
 the Gaussian(R) 98 system (copyright 1998, Gaussian, Inc.),
 the Gaussian(R) 94 system (copyright 1995, Gaussian, Inc.),
 the Gaussian 92(TM) system (copyright 1992, Gaussian, Inc.),
 the Gaussian 90(TM) system (copyright 1990, Gaussian, Inc.),
 the Gaussian 88(TM) system (copyright 1988, Gaussian, Inc.),
 the Gaussian 86(TM) system (copyright 1986, Carnegie Mellon
 University), and the Gaussian 82(TM) system (copyright 1983,
 Carnegie Mellon University). Gaussian is a federally registered
 trademark of Gaussian, Inc.
  
 This software contains proprietary and confidential information,
 including trade secrets, belonging to Gaussian, Inc.
  
 This software is provided under written license and may be
 used, copied, transmitted, or stored only in accord with that
 written license.
  
 The following legend is applicable only to US Government
 contracts under FAR:
  
                    RESTRICTED RIGHTS LEGEND
  
 Use, reproduction and disclosure by the US Government is
 subject to restrictions as set forth in subparagraphs (a)
 and (c) of the Commercial Computer Software - Restricted
 Rights clause in FAR 52.227-19.
  
 Gaussian, Inc.
 340 Quinnipiac St., Bldg. 40, Wallingford CT 06492
  
  
 ---------------------------------------------------------------
 Warning -- This program may not be used in any manner that
 competes with the business of Gaussian, Inc. or will provide
 assistance to any competitor of Gaussian, Inc.  The licensee
 of this program is prohibited from giving any competitor of
 Gaussian, Inc. access to this program.  By using this program,
 the user acknowledges that Gaussian, Inc. is engaged in the
 business of creating and licensing software in the field of
 computational chemistry and represents and warrants to the
 licensee that it is not a competitor of Gaussian, Inc. and that
 it will not use this program in any manner prohibited above.
 ---------------------------------------------------------------
  

 Cite this work as:
 Gaussian 09, Revision A.02,
 M. J. Frisch, G. W. Trucks, H. B. Schlegel, G. E. Scuseria, 
 M. A. Robb, J. R. Cheeseman, G. Scalmani, V. Barone, B. Mennucci, 
 G. A. Petersson, H. Nakatsuji, M. Caricato, X. Li, H. P. Hratchian, 
 A. F. Izmaylov, J. Bloino, G. Zheng, J. L. Sonnenberg, M. Hada, 
 M. Ehara, K. Toyota, R. Fukuda, J. Hasegawa, M. Ishida, T. Nakajima, 
 Y. Honda, O. Kitao, H. Nakai, T. Vreven, J. A. Montgomery, Jr., 
 J. E. Peralta, F. Ogliaro, M. Bearpark, J. J. Heyd, E. Brothers, 
 K. N. Kudin, V. N. Staroverov, R. Kobayashi, J. Normand, 
 K. Raghavachari, A. Rendell, J. C. Burant, S. S. Iyengar, J. Tomasi, 
 M. Cossi, N. Rega, J. M. Millam, M. Klene, J. E. Knox, J. B. Cross, 
 V. Bakken, C. Adamo, J. Jaramillo, R. Gomperts, R. E. Stratmann, 
 O. Yazyev, A. J. Austin, R. Cammi, C. Pomelli, J. W. Ochterski, 
 R. L. Martin, K. Morokuma, V. G. Zakrzewski, G. A. Voth, 
 P. Salvador, J. J. Dannenberg, S. Dapprich, A. D. Daniels, 
 O. Farkas, J. B. Foresman, J. V. Ortiz, J. Cioslowski, 
 and D. J. Fox, Gaussian, Inc., Wallingford CT, 2009.
 
 ******************************************
 Gaussian 09:  IA32W-G09RevA.02 11-Jun-2009
                30-Sep-2015 
 ******************************************
 %chk=C:\Users\214584429\Google Drive\214584429 MONSURAT\Silva-2014remix\tsb-4cpc
 m.chk
 ---------------------------------------------------------------------
 # freq x3lyp/6-31+g(d) scrf=(cpcm,solvent=methanol) geom=connectivity
 ---------------------------------------------------------------------
 1/10=4,30=1,38=1,57=2/1,3;
 2/12=2,17=6,18=5,40=1/2;
 3/5=1,6=6,7=11,11=2,16=1,25=1,30=1,70=2101,71=2,72=3,74=-33/1,2,3;
 4//1;
 5/5=2,38=5,53=3,98=1/2;
 8/6=4,10=90,11=11/1;
 11/6=1,8=1,9=11,15=111,16=1/1,2,10;
 10/6=1/2;
 6/7=2,8=2,9=2,10=2,18=1,28=1/1;
 7/8=1,10=1,25=1/1,2,3,16;
 1/10=4,30=1/3;
 99//99;
 ---------
 tsb-4cpcm
 ---------
 Symbolic Z-matrix:
 Charge =  1 Multiplicity = 1
 C                     0.6347    2.08334  -0.16158 
 H                     1.69152   2.34509  -0.20607 
 H                     0.26539   2.19515   0.86309 
 H                     0.06426   2.71711  -0.84075 
 C                     1.39853  -1.42303  -0.96286 
 H                     0.49973  -1.74656  -1.49431 
 H                     1.81416  -2.28888  -0.43928 
 H                     2.11551  -1.04548  -1.69661 
 C                     1.0649   -0.32316   0.02334 
 O                     2.11727   0.1487    0.77315 
 H                     2.86206  -0.4746    0.76724 
 O                    -1.97727  -0.40889  -0.31376 
 H                    -1.4714    0.27501  -0.8221 
 O                     0.43006   0.73218  -0.6512 
 H                    -1.2501   -0.68782   0.41402 
 O                     0.07244  -0.88048   0.98171 
 H                     0.27836  -0.54333   1.87324 
 C                    -3.30054   0.02862   0.17424 
 H                    -3.7138   -0.82543   0.7072 
 H                    -3.18553   0.8966    0.82455 
 H                    -3.89572   0.25639  -0.70822 
 

 GradGradGradGradGradGradGradGradGradGradGradGradGradGradGradGradGradGrad
 Berny optimization.
 Initialization pass.
 Trust Radius=3.00D-01 FncErr=1.00D-07 GrdErr=1.00D-07
 Number of steps in this run=   2 maximum allowed number of steps=   2.
 GradGradGradGradGradGradGradGradGradGradGradGradGradGradGradGradGradGrad

                          Input orientation:                          
 ---------------------------------------------------------------------
 Center     Atomic      Atomic             Coordinates (Angstroms)
 Number     Number       Type             X           Y           Z
 ---------------------------------------------------------------------
      1          6           0        0.634704    2.083342   -0.161584
      2          1           0        1.691516    2.345086   -0.206066
      3          1           0        0.265387    2.195151    0.863086
      4          1           0        0.064262    2.717105   -0.840747
      5          6           0        1.398527   -1.423025   -0.962861
      6          1           0        0.499728   -1.746559   -1.494313
      7          1           0        1.814164   -2.288883   -0.439284
      8          1           0        2.115505   -1.045482   -1.696614
      9          6           0        1.064896   -0.323158    0.023336
     10          8           0        2.117274    0.148697    0.773152
     11          1           0        2.862062   -0.474597    0.767241
     12          8           0       -1.977270   -0.408889   -0.313755
     13          1           0       -1.471395    0.275007   -0.822104
     14          8           0        0.430062    0.732181   -0.651197
     15          1           0       -1.250104   -0.687824    0.414018
     16          8           0        0.072438   -0.880475    0.981705
     17          1           0        0.278357   -0.543333    1.873237
     18          6           0       -3.300536    0.028618    0.174239
     19          1           0       -3.713799   -0.825425    0.707202
     20          1           0       -3.185534    0.896597    0.824552
     21          1           0       -3.895720    0.256386   -0.708223
 ---------------------------------------------------------------------
                    Distance matrix (angstroms):
                    1          2          3          4          5
     1  C    0.000000
     2  H    1.089651   0.000000
     3  H    1.094918   1.788690   0.000000
     4  H    1.090102   1.785826   1.793303   0.000000
     5  C    3.676966   3.854509   4.208240   4.351534   0.000000
     6  H    4.057404   4.452134   4.598839   4.532226   1.093140
     7  H    4.537025   4.641455   4.919496   5.318199   1.093891
     8  H    3.786638   3.727929   4.525119   4.370031   1.093156
     9  C    2.451633   2.750419   2.772413   3.315284   1.514464
    10  O    2.610478   2.442184   2.761439   3.662820   2.449622
    11  H    3.516659   3.204390   3.725515   4.538752   2.456563
    12  O    3.613417   4.588678   3.632560   3.770598   3.584106
    13  H    2.853422   3.829979   3.089212   2.884863   3.337601
    14  O    1.451632   2.095440   2.111978   2.027230   2.383269
    15  H    3.400468   4.270384   3.287844   3.859473   3.074339
    16  O    3.226060   3.799534   3.083954   4.032863   2.415411
    17  H    3.341691   3.829293   2.918881   4.247588   3.173656
    18  C    4.452054   5.516452   4.228969   4.424932   5.047916
    19  H    5.303319   6.332743   4.998210   5.405498   5.411295
    20  H    4.120078   5.190945   3.687354   4.080275   5.439587
    21  H    4.915417   5.985987   4.852075   4.664135   5.560064
                    6          7          8          9         10
     6  H    0.000000
     7  H    1.770577   0.000000
     8  H    1.772899   1.793804   0.000000
     9  C    2.156095   2.153949   2.140972   0.000000
    10  O    3.368954   2.739283   2.743321   1.375635   0.000000
    11  H    3.509008   2.417732   2.637013   1.950932   0.971205
    12  O    3.052638   4.233805   4.366733   3.061985   4.272887
    13  H    2.902399   4.185090   3.921009   2.739588   3.929293
    14  O    2.619132   3.329786   2.663400   1.404190   2.283836
    15  H    2.797241   3.561075   3.988735   2.375887   3.488263
    16  O    2.657695   2.652627   3.372646   1.487967   2.298705
    17  H    3.582897   3.279238   4.046122   2.022190   2.251823
    18  C    4.514125   5.648662   5.829861   4.382181   5.452135
    19  H    4.842413   5.832196   6.309322   4.853439   5.912248
    20  H    5.093581   6.061480   6.182957   4.493985   5.355536
    21  H    4.893842   6.257276   6.229495   5.047649   6.193720
                   11         12         13         14         15
    11  H    0.000000
    12  O    4.959033   0.000000
    13  H    4.676192   0.990980   0.000000
    14  O    3.063153   2.685359   1.963099   0.000000
    15  H    4.132813   1.065940   1.582407   2.444188   0.000000
    16  O    2.827142   2.470205   2.640509   2.322697   1.452068
    17  H    2.811313   3.144656   3.316048   2.832440   2.118110
    18  C    6.211481   1.476680   2.097418   3.885062   2.185190
    19  H    6.585487   2.057034   2.928840   4.630655   2.484891
    20  H    6.201361   2.111857   2.456852   3.908632   2.534722
    21  H    6.955498   2.068489   2.427070   4.352243   3.024937
                   16         17         18         19         20
    16  O    0.000000
    17  H    0.975139   0.000000
    18  C    3.585443   4.002774   0.000000
    19  H    3.796574   4.168516   1.088221   0.000000
    20  H    3.714440   3.895084   1.090651   1.805047   0.000000
    21  H    4.460335   4.972565   1.088513   1.790765   1.806553
                   21
    21  H    0.000000
 Stoichiometry    C4H13O4(1+)
 Framework group  C1[X(C4H13O4)]
 Deg. of freedom    57
 Full point group                 C1      NOp   1
 Largest Abelian subgroup         C1      NOp   1
 Largest concise Abelian subgroup C1      NOp   1
                         Standard orientation:                         
 ---------------------------------------------------------------------
 Center     Atomic      Atomic             Coordinates (Angstroms)
 Number     Number       Type             X           Y           Z
 ---------------------------------------------------------------------
      1          6           0        0.634704    2.083342   -0.161584
      2          1           0        1.691516    2.345086   -0.206066
      3          1           0        0.265387    2.195151    0.863086
      4          1           0        0.064262    2.717105   -0.840747
      5          6           0        1.398527   -1.423025   -0.962861
      6          1           0        0.499728   -1.746559   -1.494313
      7          1           0        1.814164   -2.288883   -0.439284
      8          1           0        2.115505   -1.045482   -1.696614
      9          6           0        1.064896   -0.323158    0.023336
     10          8           0        2.117274    0.148697    0.773152
     11          1           0        2.862062   -0.474597    0.767241
     12          8           0       -1.977270   -0.408889   -0.313755
     13          1           0       -1.471395    0.275007   -0.822104
     14          8           0        0.430062    0.732181   -0.651197
     15          1           0       -1.250104   -0.687824    0.414018
     16          8           0        0.072438   -0.880475    0.981705
     17          1           0        0.278357   -0.543333    1.873237
     18          6           0       -3.300536    0.028618    0.174239
     19          1           0       -3.713799   -0.825425    0.707202
     20          1           0       -3.185534    0.896597    0.824552
     21          1           0       -3.895720    0.256386   -0.708223
 ---------------------------------------------------------------------
 Rotational constants (GHZ):      2.6583803      1.1725858      1.0025896
 Standard basis: 6-31+G(d) (6D, 7F)
 There are   178 symmetry adapted basis functions of A   symmetry.
 Integral buffers will be    262144 words long.
 Raffenetti 2 integral format.
 Two-electron integral symmetry is turned on.
   178 basis functions,   308 primitive gaussians,   178 cartesian basis functions
    34 alpha electrons       34 beta electrons
       nuclear repulsion energy       457.4268905335 Hartrees.
 NAtoms=   21 NActive=   21 NUniq=   21 SFac= 7.50D-01 NAtFMM=   80 NAOKFM=F Big=F
 ------------------------------------------------------------------------------
 Polarizable Continuum Model (PCM)
 =================================
 Model                : C-PCM.
 Atomic radii         : UFF (Universal Force Field).
 Polarization charges : Total charges.
 Charge compensation  : None.
 Solution method      : Matrix inversion.
 Cavity type          : Scaled VdW (van der Waals Surface) (Alpha=1.100).
 Cavity algorithm     : GePol (No added spheres)
                        Default sphere list used, NSphG=   21.
                        Lebedev-Laikov grids with approx.  5.0 points / Ang**2.
                        Smoothing algorithm: Karplus/York (Gamma=1.0000).
                        Polarization charges: spherical gaussians, with
                                              point-specific exponents (IZeta= 3).
                        Self-potential: point-specific (ISelfS= 7).
                        Self-field    : sphere-specific E.n sum rule (ISelfD= 2).
 1st derivatives      : Analytical E(r).r(x)/FMM algorithm (CHGder, D1EAlg=3).
                        Cavity 1st derivative terms included.
 2nd derivatives      : Analytical E(r).r(xy)/FMM algorithm (CHGder, D2EAlg=3).
                        Cavity 2nd derivative terms included.
 Solvent              : Methanol, Eps=  32.613000 Eps(inf)=   1.765709
 ------------------------------------------------------------------------------
 One-electron integrals computed using PRISM.
 NBasis=   178 RedAO= T  NBF=   178
 NBsUse=   178 1.00D-06 NBFU=   178
 Harris functional with IExCor= 3102 diagonalized for initial guess.
 ExpMin= 4.38D-02 ExpMax= 5.48D+03 ExpMxC= 8.25D+02 IAcc=2 IRadAn=         0 AccDes= 0.00D+00
 HarFok:  IExCor= 3102 AccDes= 0.00D+00 IRadAn=         0 IDoV= 1
 ScaDFX=  1.000000  1.000000  1.000000  1.000000
 FoFCou: FMM=F IPFlag=           0 FMFlag=      100000 FMFlg1=           0
         NFxFlg=           0 DoJE=T BraDBF=F KetDBF=T FulRan=T
         Omega=  0.000000  0.000000  1.000000  0.000000  0.000000 ICntrl=     500 IOpCl=  0
         NMat0=    1 NMatS0=    1 NMatT0=    0 NMatD0=    1 NMtDS0=    0 NMtDT0=    0
         I1Cent=           4 NGrid=           0.
 Petite list used in FoFCou.
 Initial guess orbital symmetries:
       Occupied  (A) (A) (A) (A) (A) (A) (A) (A) (A) (A) (A) (A)
                 (A) (A) (A) (A) (A) (A) (A) (A) (A) (A) (A) (A)
                 (A) (A) (A) (A) (A) (A) (A) (A) (A) (A)
       Virtual   (A) (A) (A) (A) (A) (A) (A) (A) (A) (A) (A) (A)
                 (A) (A) (A) (A) (A) (A) (A) (A) (A) (A) (A) (A)
                 (A) (A) (A) (A) (A) (A) (A) (A) (A) (A) (A) (A)
                 (A) (A) (A) (A) (A) (A) (A) (A) (A) (A) (A) (A)
                 (A) (A) (A) (A) (A) (A) (A) (A) (A) (A) (A) (A)
                 (A) (A) (A) (A) (A) (A) (A) (A) (A) (A) (A) (A)
                 (A) (A) (A) (A) (A) (A) (A) (A) (A) (A) (A) (A)
                 (A) (A) (A) (A) (A) (A) (A) (A) (A) (A) (A) (A)
                 (A) (A) (A) (A) (A) (A) (A) (A) (A) (A) (A) (A)
                 (A) (A) (A) (A) (A) (A) (A) (A) (A) (A) (A) (A)
                 (A) (A) (A) (A) (A) (A) (A) (A) (A) (A) (A) (A)
                 (A) (A) (A) (A) (A) (A) (A) (A) (A) (A) (A) (A)
 The electronic state of the initial guess is 1-A.
 Requested convergence on RMS density matrix=1.00D-08 within 128 cycles.
 Requested convergence on MAX density matrix=1.00D-06.
 Requested convergence on             energy=1.00D-06.
 No special actions if energy rises.
 Error on total polarization charges =  0.00946
 SCF Done:  E(RX3LYP) =  -460.771122929     A.U. after   12 cycles
             Convg  =    0.5542D-08             -V/T =  2.0091
 Range of M.O.s used for correlation:     1   178
 NBasis=   178 NAE=    34 NBE=    34 NFC=     0 NFV=     0
 NROrb=    178 NOA=    34 NOB=    34 NVA=   144 NVB=   144

 **** Warning!!: The largest alpha MO coefficient is  0.48683449D+02

 Symmetrizing basis deriv contribution to polar:
 IMax=3 JMax=2 DiffMx= 0.00D+00
 G2DrvN: will do    22 centers at a time, making    1 passes doing MaxLOS=2.
 Calling FoFCou, ICntrl=  3107 FMM=F I1Cent=   0 AccDes= 0.00D+00.
 FoFDir/FoFCou used for L=0 through L=2.
 G2PCM: DoFxE=T DoFxN=T DoGrad=T DoPD/DQ/DG=FFF NFrqRd=   0 IEInf=0 DoCFld=F IF1Alg=4.
 End of G2Drv Frequency-dependent properties file   721 does not exist.
 End of G2Drv Frequency-dependent properties file   722 does not exist.
          IDoAtm=111111111111111111111
 NEqPCM:  Using equilibrium solvation (IEInf=0, Eps=  32.6130, EpsInf=   1.7657)
          Differentiating once with respect to electric field.
                with respect to dipole field.
          Differentiating once with respect to nuclear coordinates.
          There are    66 degrees of freedom in the 1st order CPHF.  IDoFFX=5.
     63 vectors produced by pass  0 Test12= 7.42D-15 1.52D-09 XBig12= 3.66D+01 1.27D+00.
 AX will form    63 AO Fock derivatives at one time.
     63 vectors produced by pass  1 Test12= 7.42D-15 1.52D-09 XBig12= 2.08D+00 2.32D-01.
     63 vectors produced by pass  2 Test12= 7.42D-15 1.52D-09 XBig12= 1.37D-02 1.41D-02.
     63 vectors produced by pass  3 Test12= 7.42D-15 1.52D-09 XBig12= 2.53D-05 6.46D-04.
     63 vectors produced by pass  4 Test12= 7.42D-15 1.52D-09 XBig12= 2.70D-08 1.91D-05.
     35 vectors produced by pass  5 Test12= 7.42D-15 1.52D-09 XBig12= 2.08D-11 5.22D-07.
      4 vectors produced by pass  6 Test12= 7.42D-15 1.52D-09 XBig12= 2.07D-14 1.88D-08.
 Inverted reduced A of dimension   354 with in-core refinement.
 Isotropic polarizability for W=    0.000000       81.74 Bohr**3.
 End of Minotr Frequency-dependent properties file   721 does not exist.
 End of Minotr Frequency-dependent properties file   722 does not exist.

 **********************************************************************

            Population analysis using the SCF density.

 **********************************************************************

 Orbital symmetries:
       Occupied  (A) (A) (A) (A) (A) (A) (A) (A) (A) (A) (A) (A)
                 (A) (A) (A) (A) (A) (A) (A) (A) (A) (A) (A) (A)
                 (A) (A) (A) (A) (A) (A) (A) (A) (A) (A)
       Virtual   (A) (A) (A) (A) (A) (A) (A) (A) (A) (A) (A) (A)
                 (A) (A) (A) (A) (A) (A) (A) (A) (A) (A) (A) (A)
                 (A) (A) (A) (A) (A) (A) (A) (A) (A) (A) (A) (A)
                 (A) (A) (A) (A) (A) (A) (A) (A) (A) (A) (A) (A)
                 (A) (A) (A) (A) (A) (A) (A) (A) (A) (A) (A) (A)
                 (A) (A) (A) (A) (A) (A) (A) (A) (A) (A) (A) (A)
                 (A) (A) (A) (A) (A) (A) (A) (A) (A) (A) (A) (A)
                 (A) (A) (A) (A) (A) (A) (A) (A) (A) (A) (A) (A)
                 (A) (A) (A) (A) (A) (A) (A) (A) (A) (A) (A) (A)
                 (A) (A) (A) (A) (A) (A) (A) (A) (A) (A) (A) (A)
                 (A) (A) (A) (A) (A) (A) (A) (A) (A) (A) (A) (A)
                 (A) (A) (A) (A) (A) (A) (A) (A) (A) (A) (A) (A)
 The electronic state is 1-A.
 Alpha  occ. eigenvalues --  -19.31272 -19.25161 -19.24386 -19.23924 -10.41265
 Alpha  occ. eigenvalues --  -10.30315 -10.27279 -10.23065  -1.16257  -1.14539
 Alpha  occ. eigenvalues --   -1.06304  -1.05954  -0.79904  -0.76747  -0.72196
 Alpha  occ. eigenvalues --   -0.66259  -0.63761  -0.60795  -0.57423  -0.55402
 Alpha  occ. eigenvalues --   -0.52446  -0.50805  -0.49095  -0.46701  -0.46026
 Alpha  occ. eigenvalues --   -0.44012  -0.43205  -0.42203  -0.40328  -0.40032
 Alpha  occ. eigenvalues --   -0.38374  -0.36540  -0.35014  -0.32168
 Alpha virt. eigenvalues --   -0.01993   0.00836   0.01213   0.02007   0.02444
 Alpha virt. eigenvalues --    0.03842   0.04291   0.04935   0.06070   0.06316
 Alpha virt. eigenvalues --    0.07192   0.07942   0.09013   0.09505   0.11398
 Alpha virt. eigenvalues --    0.11639   0.12565   0.13451   0.14241   0.14249
 Alpha virt. eigenvalues --    0.15562   0.16639   0.17034   0.17470   0.17938
 Alpha virt. eigenvalues --    0.18925   0.19357   0.19895   0.20591   0.22048
 Alpha virt. eigenvalues --    0.22416   0.23379   0.24206   0.25325   0.25811
 Alpha virt. eigenvalues --    0.26126   0.27396   0.27780   0.29142   0.29778
 Alpha virt. eigenvalues --    0.31382   0.32330   0.33217   0.33433   0.33986
 Alpha virt. eigenvalues --    0.35527   0.38244   0.38843   0.41473   0.42465
 Alpha virt. eigenvalues --    0.44491   0.61442   0.62731   0.63017   0.65342
 Alpha virt. eigenvalues --    0.67832   0.70507   0.71266   0.75107   0.76626
 Alpha virt. eigenvalues --    0.78023   0.78691   0.82872   0.88983   0.90586
 Alpha virt. eigenvalues --    0.94050   0.94756   0.95379   0.98512   1.02551
 Alpha virt. eigenvalues --    1.04330   1.05044   1.06621   1.07394   1.09645
 Alpha virt. eigenvalues --    1.10541   1.11013   1.12341   1.15210   1.16463
 Alpha virt. eigenvalues --    1.18865   1.20633   1.23184   1.26051   1.27509
 Alpha virt. eigenvalues --    1.29717   1.32052   1.33450   1.37917   1.39894
 Alpha virt. eigenvalues --    1.42491   1.45975   1.47970   1.51222   1.52792
 Alpha virt. eigenvalues --    1.55603   1.57649   1.61168   1.68494   1.69746
 Alpha virt. eigenvalues --    1.69964   1.75388   1.78192   1.80850   1.83037
 Alpha virt. eigenvalues --    1.85871   1.88539   1.93467   1.94059   1.99496
 Alpha virt. eigenvalues --    2.00472   2.02592   2.06489   2.08139   2.17318
 Alpha virt. eigenvalues --    2.20804   2.21690   2.23988   2.24535   2.25846
 Alpha virt. eigenvalues --    2.28022   2.28512   2.33027   2.34989   2.38274
 Alpha virt. eigenvalues --    2.48056   2.54329   2.59660   2.61145   2.67033
 Alpha virt. eigenvalues --    2.75463   2.78067   2.85742   2.90515   2.93948
 Alpha virt. eigenvalues --    3.00369   4.03622   4.16675   4.18115   4.27588
 Alpha virt. eigenvalues --    4.28882   4.38507   4.42077   4.62313
          Condensed to atoms (all electrons):
              1          2          3          4          5          6
     1  C    5.304859   0.399010   0.406619   0.385922   0.005413   0.001904
     2  H    0.399010   0.473603  -0.034114  -0.024734   0.007762   0.000006
     3  H    0.406619  -0.034114   0.496129  -0.028193  -0.006776  -0.000002
     4  H    0.385922  -0.024734  -0.028193   0.477248   0.000667  -0.000007
     5  C    0.005413   0.007762  -0.006776   0.000667   6.296020   0.388355
     6  H    0.001904   0.000006  -0.000002  -0.000007   0.388355   0.454644
     7  H    0.001015  -0.000011   0.000010   0.000002   0.393515  -0.023010
     8  H   -0.002413   0.000055  -0.000014   0.000005   0.411357  -0.021845
     9  C   -0.181009  -0.032403  -0.015987   0.011477  -0.656351  -0.052756
    10  O   -0.028501   0.003791   0.000838  -0.000314  -0.090593   0.007826
    11  H    0.004436  -0.000198   0.000064  -0.000009   0.018035   0.000104
    12  O    0.005491  -0.000461   0.000058   0.000556   0.008904   0.003302
    13  H   -0.006361   0.000130   0.000201  -0.000584  -0.007389  -0.000089
    14  O    0.086760  -0.026695  -0.056166  -0.048850  -0.143563  -0.000749
    15  H    0.001227   0.000008  -0.000127   0.000022  -0.013311  -0.000380
    16  O   -0.007898  -0.002513   0.013515  -0.001441   0.000334  -0.001940
    17  H   -0.006378   0.000107  -0.001025   0.000022  -0.006610   0.000019
    18  C   -0.004394   0.000344  -0.000921  -0.000521  -0.006259   0.000107
    19  H    0.000335   0.000000   0.000001   0.000000   0.000327   0.000001
    20  H    0.000110   0.000001   0.000034  -0.000006  -0.001656   0.000001
    21  H   -0.000357   0.000000   0.000002   0.000000   0.000485   0.000001
              7          8          9         10         11         12
     1  C    0.001015  -0.002413  -0.181009  -0.028501   0.004436   0.005491
     2  H   -0.000011   0.000055  -0.032403   0.003791  -0.000198  -0.000461
     3  H    0.000010  -0.000014  -0.015987   0.000838   0.000064   0.000058
     4  H    0.000002   0.000005   0.011477  -0.000314  -0.000009   0.000556
     5  C    0.393515   0.411357  -0.656351  -0.090593   0.018035   0.008904
     6  H   -0.023010  -0.021845  -0.052756   0.007826   0.000104   0.003302
     7  H    0.460452  -0.023585  -0.055072  -0.006454   0.001569  -0.000200
     8  H   -0.023585   0.452255  -0.067782  -0.002750  -0.000449   0.000013
     9  C   -0.055072  -0.067782   6.040315   0.332555  -0.036247  -0.069034
    10  O   -0.006454  -0.002750   0.332555   8.456555   0.196772   0.002376
    11  H    0.001569  -0.000449  -0.036247   0.196772   0.270242   0.000085
    12  O   -0.000200   0.000013  -0.069034   0.002376   0.000085   8.676644
    13  H   -0.000003   0.000013   0.019468   0.000037  -0.000017   0.155177
    14  O    0.007796  -0.002957   0.202371  -0.077956   0.008838  -0.020267
    15  H    0.000081  -0.000004   0.016509   0.001271  -0.000065   0.072125
    16  O    0.000012   0.006014   0.039190  -0.096610   0.001922  -0.010416
    17  H   -0.000220  -0.000122   0.038729   0.005820  -0.000649  -0.000081
    18  C    0.000036   0.000052   0.009379  -0.000060  -0.000016   0.039630
    19  H    0.000000   0.000000  -0.001474   0.000001   0.000000  -0.033535
    20  H    0.000000   0.000000   0.003467  -0.000013   0.000000  -0.053039
    21  H    0.000000   0.000000  -0.000649   0.000001   0.000000  -0.033173
             13         14         15         16         17         18
     1  C   -0.006361   0.086760   0.001227  -0.007898  -0.006378  -0.004394
     2  H    0.000130  -0.026695   0.000008  -0.002513   0.000107   0.000344
     3  H    0.000201  -0.056166  -0.000127   0.013515  -0.001025  -0.000921
     4  H   -0.000584  -0.048850   0.000022  -0.001441   0.000022  -0.000521
     5  C   -0.007389  -0.143563  -0.013311   0.000334  -0.006610  -0.006259
     6  H   -0.000089  -0.000749  -0.000380  -0.001940   0.000019   0.000107
     7  H   -0.000003   0.007796   0.000081   0.000012  -0.000220   0.000036
     8  H    0.000013  -0.002957  -0.000004   0.006014  -0.000122   0.000052
     9  C    0.019468   0.202371   0.016509   0.039190   0.038729   0.009379
    10  O    0.000037  -0.077956   0.001271  -0.096610   0.005820  -0.000060
    11  H   -0.000017   0.008838  -0.000065   0.001922  -0.000649  -0.000016
    12  O    0.155177  -0.020267   0.072125  -0.010416  -0.000081   0.039630
    13  H    0.211538   0.044413  -0.004778  -0.005902   0.000016  -0.007418
    14  O    0.044413   8.638879   0.003171  -0.187627  -0.000361   0.005405
    15  H   -0.004778   0.003171   0.200887   0.095719  -0.003917  -0.004314
    16  O   -0.005902  -0.187627   0.095719   8.743441   0.181993   0.001369
    17  H    0.000016  -0.000361  -0.003917   0.181993   0.247850  -0.000740
    18  C   -0.007418   0.005405  -0.004314   0.001369  -0.000740   5.153707
    19  H    0.002571  -0.000045  -0.002015  -0.000151  -0.000008   0.387824
    20  H   -0.000580  -0.000111  -0.000375   0.000486   0.000028   0.393256
    21  H   -0.002714   0.000050   0.001775  -0.000378   0.000003   0.388012
             19         20         21
     1  C    0.000335   0.000110  -0.000357
     2  H    0.000000   0.000001   0.000000
     3  H    0.000001   0.000034   0.000002
     4  H    0.000000  -0.000006   0.000000
     5  C    0.000327  -0.001656   0.000485
     6  H    0.000001   0.000001   0.000001
     7  H    0.000000   0.000000   0.000000
     8  H    0.000000   0.000000   0.000000
     9  C   -0.001474   0.003467  -0.000649
    10  O    0.000001  -0.000013   0.000001
    11  H    0.000000   0.000000   0.000000
    12  O   -0.033535  -0.053039  -0.033173
    13  H    0.002571  -0.000580  -0.002714
    14  O   -0.000045  -0.000111   0.000050
    15  H   -0.002015  -0.000375   0.001775
    16  O   -0.000151   0.000486  -0.000378
    17  H   -0.000008   0.000028   0.000003
    18  C    0.387824   0.393256   0.388012
    19  H    0.436472  -0.024730  -0.021111
    20  H   -0.024730   0.456637  -0.025177
    21  H   -0.021111  -0.025177   0.438115
 Mulliken atomic charges:
              1
     1  C   -0.365791
     2  H    0.236314
     3  H    0.225852
     4  H    0.228739
     5  C   -0.598664
     6  H    0.244508
     7  H    0.244066
     8  H    0.252158
     9  C    0.455303
    10  O   -0.704592
    11  H    0.535582
    12  O   -0.744155
    13  H    0.602270
    14  O   -0.432336
    15  H    0.636491
    16  O   -0.769118
    17  H    0.545527
    18  C   -0.354476
    19  H    0.255537
    20  H    0.251668
    21  H    0.255116
 Sum of Mulliken atomic charges =   1.00000
 Mulliken charges with hydrogens summed into heavy atoms:
              1
     1  C    0.325114
     5  C    0.142068
     9  C    0.455303
    10  O   -0.169010
    12  O    0.494606
    14  O   -0.432336
    16  O   -0.223592
    18  C    0.407846
 Sum of Mulliken charges with hydrogens summed into heavy atoms =   1.00000
 APT atomic charges:
              1
     1  C    0.556976
     2  H   -0.000129
     3  H   -0.028119
     4  H    0.009022
     5  C   -0.078147
     6  H    0.035449
     7  H    0.019105
     8  H    0.028030
     9  C    1.718777
    10  O   -0.882534
    11  H    0.382760
    12  O   -0.938406
    13  H    0.536997
    14  O   -1.085481
    15  H    0.836878
    16  O   -1.105230
    17  H    0.350181
    18  C    0.538207
    19  H    0.046578
    20  H    0.020240
    21  H    0.038844
 Sum of APT charges=   1.00000
 APT Atomic charges with hydrogens summed into heavy atoms:
              1
     1  C    0.537751
     2  H    0.000000
     3  H    0.000000
     4  H    0.000000
     5  C    0.004438
     6  H    0.000000
     7  H    0.000000
     8  H    0.000000
     9  C    1.718777
    10  O   -0.499774
    11  H    0.000000
    12  O    0.435469
    13  H    0.000000
    14  O   -1.085481
    15  H    0.000000
    16  O   -0.755049
    17  H    0.000000
    18  C    0.643869
    19  H    0.000000
    20  H    0.000000
    21  H    0.000000
 Sum of APT charges=   1.00000
 Electronic spatial extent (au):  <R**2>=           1269.5628
 Charge=              1.0000 electrons
 Dipole moment (field-independent basis, Debye):
    X=             -3.6382    Y=              0.2240    Z=              1.3932  Tot=              3.9022
 Quadrupole moment (field-independent basis, Debye-Ang):
   XX=            -18.4439   YY=            -42.9644   ZZ=            -43.9547
   XY=             -5.7911   XZ=             -0.4522   YZ=             -0.9845
 Traceless Quadrupole moment (field-independent basis, Debye-Ang):
   XX=             16.6771   YY=             -7.8434   ZZ=             -8.8337
   XY=             -5.7911   XZ=             -0.4522   YZ=             -0.9845
 Octapole moment (field-independent basis, Debye-Ang**2):
  XXX=            -44.2621  YYY=             10.5346  ZZZ=             12.9354  XYY=              3.6519
  XXY=            -10.9189  XXZ=              6.3107  XZZ=             -3.6071  YZZ=             -3.1470
  YYZ=             -1.7152  XYZ=              0.8801
 Hexadecapole moment (field-independent basis, Debye-Ang**3):
 XXXX=           -633.9905 YYYY=           -384.0056 ZZZZ=           -171.1989 XXXY=            -31.4690
 XXXZ=             13.7246 YYYX=              3.1851 YYYZ=             -6.6461 ZZZX=              9.5777
 ZZZY=             -8.4010 XXYY=           -214.4052 XXZZ=           -179.1915 YYZZ=            -98.7365
 XXYZ=            -17.2761 YYXZ=             -1.0047 ZZXY=             -6.3568
 N-N= 4.574268905335D+02 E-N=-1.980928625895D+03  KE= 4.566108989794D+02
  Exact polarizability:  87.856  -1.366  81.363   1.081  -0.571  76.016
 Approx polarizability:  88.127  -0.123  82.544   2.389  -1.470  81.472
 D2PCM: C-PCM CHGder 2nd derivatives, FixD1E=F FixD2E=F DoIter=F DoCFld=F I1PDM=0
 Calling FoFJK, ICntrl=    100127 FMM=F ISym2X=0 I1Cent= 0 IOpClX= 0 NMat=1 NMatS=1 NMatT=0.
 Full mass-weighted force constant matrix:
 Low frequencies ---  -57.5274   -0.0006    0.0006    0.0010    9.4993   19.0656
 Low frequencies ---   32.0075   46.8723   81.0416
 ******    1 imaginary frequencies (negative Signs) ****** 
 Diagonal vibrational polarizability:
      400.7933761      96.6462578     567.1679575
 Harmonic frequencies (cm**-1), IR intensities (KM/Mole), Raman scattering
 activities (A**4/AMU), depolarization ratios for plane and unpolarized
 incident light, reduced masses (AMU), force constants (mDyne/A),
 and normal coordinates:
                     1                      2                      3
                     A                      A                      A
 Frequencies --   -53.5585                43.9057                80.1800
 Red. masses --     1.5954                 3.4125                 2.2150
 Frc consts  --     0.0027                 0.0039                 0.0084
 IR Inten    --    39.9198                19.9676                21.3274
  Atom  AN      X      Y      Z        X      Y      Z        X      Y      Z
     1   6     0.08   0.03   0.01     0.02  -0.02  -0.11     0.20   0.05  -0.08
     2   1     0.09   0.01   0.09     0.02  -0.02  -0.08     0.22  -0.07  -0.27
     3   1     0.00   0.03  -0.02    -0.01   0.01  -0.12     0.37   0.17  -0.04
     4   1     0.14   0.04  -0.03     0.04  -0.04  -0.14     0.16   0.07  -0.04
     5   6    -0.02  -0.01   0.01     0.22   0.04   0.00    -0.05   0.03  -0.01
     6   1    -0.02   0.04  -0.03     0.31   0.01  -0.13    -0.07   0.05   0.00
     7   1    -0.10  -0.04   0.03     0.19   0.05   0.04    -0.04   0.02  -0.04
     8   1     0.04  -0.07   0.04     0.30   0.09   0.11    -0.07   0.05  -0.03
     9   6     0.01   0.03  -0.03     0.03  -0.01  -0.02    -0.02   0.01   0.02
    10   8     0.00   0.01  -0.02    -0.11  -0.01   0.18     0.00  -0.05   0.05
    11   1    -0.30  -0.36   0.61     0.16   0.32  -0.26     0.19   0.19  -0.44
    12   8    -0.02   0.00  -0.02    -0.08   0.05   0.00    -0.01   0.04   0.03
    13   1    -0.19   0.02  -0.13    -0.18   0.04  -0.08    -0.03   0.12   0.12
    14   8     0.09   0.04  -0.02     0.03  -0.03  -0.07    -0.03   0.04   0.05
    15   1     0.13   0.07  -0.06     0.04   0.04  -0.07    -0.04   0.03   0.04
    16   8    -0.07   0.03  -0.04    -0.07  -0.06  -0.14    -0.01   0.03   0.02
    17   1    -0.24   0.21  -0.07    -0.06  -0.23  -0.08     0.05  -0.04   0.03
    18   6    -0.01  -0.11   0.08    -0.02   0.05   0.18    -0.10  -0.16  -0.04
    19   1     0.11  -0.13   0.14     0.07   0.06   0.26    -0.05  -0.27  -0.18
    20   1    -0.04  -0.08   0.05     0.06   0.06   0.14    -0.26  -0.23   0.07
    21   1    -0.12  -0.18   0.13    -0.15   0.02   0.26    -0.05  -0.13  -0.07
                     4                      5                      6
                     A                      A                      A
 Frequencies --    90.8093               142.9679               158.5155
 Red. masses --     2.1967                 1.8685                 1.3846
 Frc consts  --     0.0107                 0.0225                 0.0205
 IR Inten    --    15.1575                29.1387                 8.8048
  Atom  AN      X      Y      Z        X      Y      Z        X      Y      Z
     1   6    -0.09  -0.03   0.10     0.06   0.04   0.00     0.02  -0.02   0.02
     2   1    -0.09   0.04   0.39     0.07  -0.01  -0.03    -0.01   0.04  -0.18
     3   1    -0.34  -0.16   0.02     0.09   0.08   0.01     0.21  -0.07   0.09
     4   1     0.04   0.01   0.03     0.07   0.06   0.01    -0.15  -0.03   0.14
     5   6    -0.02  -0.05   0.02    -0.08   0.03  -0.01     0.05   0.01  -0.02
     6   1    -0.03  -0.01   0.03    -0.10   0.06   0.00     0.06  -0.01  -0.03
     7   1    -0.09  -0.05   0.08    -0.08   0.02  -0.04     0.07   0.01  -0.03
     8   1     0.01  -0.14   0.01    -0.09   0.03  -0.03     0.05   0.04  -0.01
     9   6     0.04   0.01  -0.03    -0.03   0.02   0.01     0.02  -0.01  -0.01
    10   8     0.06  -0.08   0.01    -0.02  -0.04   0.04     0.01   0.02  -0.02
    11   1     0.26   0.17  -0.50     0.11   0.11  -0.29    -0.07  -0.08   0.19
    12   8    -0.02   0.04   0.02     0.01  -0.15  -0.08    -0.03   0.04   0.08
    13   1    -0.14   0.01  -0.12    -0.01  -0.19  -0.15    -0.03   0.00   0.02
    14   8     0.11   0.01  -0.09    -0.02   0.04   0.03     0.00  -0.02   0.01
    15   1     0.05   0.17   0.04     0.05  -0.05  -0.05    -0.03   0.06   0.08
    16   8    -0.01   0.15  -0.01    -0.03   0.03   0.01     0.02  -0.04  -0.01
    17   1     0.13  -0.02   0.02    -0.06   0.05   0.01     0.07  -0.09   0.00
    18   6    -0.07  -0.06  -0.01     0.11   0.03   0.03    -0.09   0.01  -0.07
    19   1     0.05  -0.05   0.10     0.23   0.24   0.46     0.08   0.17   0.32
    20   1    -0.16   0.03  -0.12     0.24   0.29  -0.34    -0.22   0.31  -0.44
    21   1    -0.11  -0.25  -0.03    -0.08  -0.32   0.06    -0.15  -0.48  -0.15
                     7                      8                      9
                     A                      A                      A
 Frequencies --   184.0207               209.5168               251.1294
 Red. masses --     1.1948                 3.1664                 1.8766
 Frc consts  --     0.0238                 0.0819                 0.0697
 IR Inten    --     0.9685                22.1315                83.5090
  Atom  AN      X      Y      Z        X      Y      Z        X      Y      Z
     1   6     0.00  -0.02   0.05    -0.09  -0.01  -0.02    -0.04   0.02  -0.04
     2   1    -0.07   0.17  -0.43    -0.10   0.03  -0.09    -0.06   0.09  -0.12
     3   1     0.47  -0.21   0.24    -0.04  -0.01   0.00     0.04  -0.02  -0.01
     4   1    -0.44  -0.04   0.41    -0.16  -0.05   0.00    -0.14  -0.01   0.02
     5   6     0.00  -0.03   0.04    -0.06  -0.05   0.03    -0.04   0.02  -0.05
     6   1     0.01  -0.04   0.03    -0.09  -0.10   0.11     0.04   0.39  -0.39
     7   1    -0.03  -0.02   0.08     0.01  -0.01   0.03    -0.48  -0.17  -0.02
     8   1     0.03  -0.08   0.04    -0.13  -0.05  -0.04     0.32  -0.11   0.23
     9   6     0.00   0.01  -0.01    -0.04  -0.03   0.01    -0.02   0.02  -0.03
    10   8     0.00   0.01   0.00    -0.06   0.00   0.01    -0.06  -0.04   0.05
    11   1     0.03   0.04  -0.06     0.02   0.09  -0.09    -0.06  -0.03   0.04
    12   8    -0.02  -0.01  -0.05     0.17   0.24  -0.09     0.11  -0.02   0.14
    13   1    -0.05  -0.01  -0.07     0.16   0.38   0.08     0.09  -0.08   0.06
    14   8     0.02   0.00  -0.03    -0.06  -0.03   0.01     0.02   0.01  -0.04
    15   1     0.00   0.02  -0.05     0.15   0.09  -0.11     0.18   0.04   0.20
    16   8    -0.02   0.05  -0.01    -0.02  -0.06   0.02    -0.05   0.01  -0.01
    17   1     0.00   0.01   0.00    -0.11   0.05   0.00    -0.01  -0.04   0.00
    18   6     0.01   0.00   0.02     0.14  -0.10   0.05     0.07  -0.01  -0.05
    19   1    -0.01  -0.04  -0.06     0.48  -0.15   0.23    -0.03   0.01  -0.10
    20   1     0.07  -0.08   0.11    -0.03   0.01  -0.07    -0.01  -0.01  -0.02
    21   1     0.00   0.12   0.06    -0.09  -0.39   0.12     0.19   0.01  -0.12
                    10                     11                     12
                     A                      A                      A
 Frequencies --   270.6478               311.1240               371.5098
 Red. masses --     1.5108                 2.8403                 3.1158
 Frc consts  --     0.0652                 0.1620                 0.2534
 IR Inten    --    54.7609                60.4136                 8.1372
  Atom  AN      X      Y      Z        X      Y      Z        X      Y      Z
     1   6     0.00   0.01   0.00     0.15  -0.05   0.15    -0.06   0.19  -0.03
     2   1    -0.01   0.05  -0.02     0.21  -0.29   0.32    -0.10   0.31  -0.08
     3   1     0.03  -0.05   0.02     0.05  -0.12   0.12    -0.06   0.24  -0.03
     4   1    -0.05   0.01   0.04     0.37   0.16   0.17    -0.16   0.04  -0.08
     5   6    -0.02   0.00  -0.03     0.05  -0.10   0.08    -0.07  -0.13   0.12
     6   1    -0.13  -0.35   0.38     0.13  -0.19   0.01    -0.14  -0.12   0.24
     7   1     0.45   0.19  -0.09    -0.04  -0.01   0.30    -0.21  -0.07   0.34
     8   1    -0.43   0.14  -0.35     0.17  -0.23   0.13    -0.02  -0.44   0.01
     9   6     0.00   0.02  -0.04    -0.06   0.02  -0.09     0.07   0.05  -0.03
    10   8    -0.06  -0.02   0.05    -0.11   0.13  -0.11     0.06   0.00  -0.01
    11   1    -0.05   0.00   0.08     0.01   0.28  -0.21     0.14   0.10  -0.21
    12   8     0.05  -0.02   0.10     0.04  -0.01   0.05    -0.02  -0.02   0.03
    13   1     0.01  -0.08  -0.01     0.07   0.00   0.09    -0.06  -0.03  -0.01
    14   8     0.05   0.01  -0.05    -0.09   0.03  -0.04     0.06   0.10   0.07
    15   1     0.15   0.05   0.13     0.06  -0.03   0.07     0.08  -0.07  -0.02
    16   8    -0.06   0.00  -0.04    -0.04  -0.02  -0.05     0.02  -0.19  -0.13
    17   1    -0.05  -0.04  -0.02    -0.03  -0.03  -0.05    -0.22  -0.11  -0.10
    18   6     0.04   0.00  -0.03     0.04  -0.01  -0.01    -0.03   0.02  -0.02
    19   1    -0.05   0.01  -0.08     0.01   0.01  -0.01    -0.08   0.04  -0.02
    20   1    -0.01  -0.01   0.00     0.01   0.01  -0.03    -0.04   0.03  -0.03
    21   1     0.12   0.04  -0.08     0.06  -0.02  -0.04     0.01   0.02  -0.04
                    13                     14                     15
                     A                      A                      A
 Frequencies --   391.9497               421.7889               474.8687
 Red. masses --     2.5426                 1.2277                 1.9005
 Frc consts  --     0.2301                 0.1287                 0.2525
 IR Inten    --    41.5119               163.8485               104.4031
  Atom  AN      X      Y      Z        X      Y      Z        X      Y      Z
     1   6    -0.05   0.06  -0.01    -0.01   0.05  -0.02    -0.01   0.08   0.01
     2   1    -0.04   0.04  -0.08     0.00   0.02  -0.01    -0.01   0.09   0.02
     3   1    -0.01   0.15   0.00    -0.02   0.05  -0.02     0.00  -0.01   0.02
     4   1    -0.07   0.02  -0.03     0.01   0.04  -0.04    -0.03   0.12   0.07
     5   6     0.16   0.00   0.04     0.02  -0.01   0.04     0.03  -0.05   0.00
     6   1     0.33  -0.25  -0.08     0.05  -0.09   0.04     0.09  -0.16  -0.04
     7   1     0.31   0.14   0.15     0.03   0.04   0.11     0.06   0.02   0.08
     8   1     0.19   0.13   0.13     0.03  -0.04   0.04     0.05  -0.04   0.03
     9   6    -0.04   0.00  -0.03    -0.03   0.01   0.00    -0.07  -0.04  -0.02
    10   8     0.06  -0.16  -0.11     0.01  -0.04  -0.02    -0.08  -0.08   0.05
    11   1    -0.02  -0.26  -0.22    -0.13  -0.21   0.16    -0.11  -0.12   0.09
    12   8     0.02   0.01   0.04     0.01  -0.01  -0.02    -0.01  -0.02  -0.01
    13   1    -0.06  -0.03  -0.08     0.10   0.04   0.11     0.32   0.17   0.51
    14   8    -0.09   0.03   0.09    -0.03   0.03   0.01     0.01   0.08  -0.10
    15   1     0.16   0.09   0.05    -0.12  -0.02   0.04    -0.30  -0.38  -0.04
    16   8    -0.11   0.05   0.01    -0.03   0.06  -0.03     0.13   0.02   0.01
    17   1    -0.34   0.42  -0.07     0.47  -0.75   0.15     0.07   0.41  -0.12
    18   6     0.03   0.00  -0.02     0.02  -0.01   0.01    -0.03   0.00   0.02
    19   1    -0.01   0.01  -0.04     0.05  -0.02   0.03     0.01   0.02   0.07
    20   1    -0.01   0.00   0.00     0.04  -0.01   0.00     0.00   0.03  -0.03
    21   1     0.05   0.02  -0.03    -0.01  -0.02   0.03    -0.03  -0.06   0.01
                    16                     17                     18
                     A                      A                      A
 Frequencies --   539.7090               568.5989               602.1457
 Red. masses --     3.0459                 2.2176                 3.5209
 Frc consts  --     0.5227                 0.4224                 0.7521
 IR Inten    --    20.3828                79.6036                50.9441
  Atom  AN      X      Y      Z        X      Y      Z        X      Y      Z
     1   6     0.02   0.01  -0.01    -0.01  -0.09  -0.01     0.01  -0.10  -0.02
     2   1    -0.01   0.14   0.03     0.00  -0.14  -0.01     0.04  -0.25   0.02
     3   1    -0.02  -0.12  -0.01     0.00  -0.05   0.00     0.06  -0.25   0.02
     4   1    -0.05  -0.01   0.02     0.02  -0.06  -0.01     0.09   0.14   0.14
     5   6     0.00   0.12   0.06    -0.03   0.03   0.03    -0.07   0.20   0.20
     6   1     0.07   0.09  -0.05    -0.12   0.15   0.12    -0.05   0.13   0.22
     7   1     0.09   0.10  -0.04    -0.07  -0.03  -0.03    -0.10   0.25   0.31
     8   1    -0.01   0.32   0.15    -0.07  -0.02  -0.04    -0.05   0.13   0.18
     9   6    -0.06   0.00   0.08     0.07   0.02   0.04    -0.06   0.13   0.03
    10   8     0.04   0.03  -0.13     0.11   0.03   0.03     0.08  -0.10   0.03
    11   1     0.06   0.06  -0.30     0.07  -0.02   0.05    -0.14  -0.36  -0.06
    12   8    -0.01  -0.01  -0.01     0.00  -0.02   0.03     0.01   0.02   0.02
    13   1     0.24   0.15   0.42     0.32   0.20   0.59    -0.16  -0.12  -0.32
    14   8     0.17   0.01  -0.11    -0.05  -0.05   0.04    -0.10   0.02  -0.17
    15   1    -0.21  -0.34   0.02    -0.13  -0.39  -0.02     0.12   0.13  -0.04
    16   8    -0.16  -0.13   0.12    -0.07   0.09  -0.18     0.12  -0.09  -0.05
    17   1    -0.26  -0.21   0.17    -0.36   0.08  -0.11    -0.07   0.01  -0.05
    18   6    -0.01   0.00   0.01     0.01   0.00   0.00     0.00   0.00   0.00
    19   1     0.02   0.01   0.05    -0.01   0.03   0.04     0.00  -0.01  -0.03
    20   1     0.01   0.02  -0.02    -0.01   0.03  -0.04    -0.02  -0.01   0.01
    21   1    -0.03  -0.04   0.02     0.02  -0.05  -0.02     0.03   0.01  -0.02
                    19                     20                     21
                     A                      A                      A
 Frequencies --   744.9949               817.0267               941.9769
 Red. masses --     4.9064                 3.2503                 4.9451
 Frc consts  --     1.6044                 1.2783                 2.5853
 IR Inten    --   176.1205               120.1180                86.8979
  Atom  AN      X      Y      Z        X      Y      Z        X      Y      Z
     1   6    -0.01   0.04   0.00     0.01   0.16   0.03     0.00   0.07   0.02
     2   1     0.05  -0.21   0.03     0.04   0.02   0.07     0.01   0.02   0.02
     3   1     0.06  -0.14   0.04     0.05   0.01   0.06     0.01   0.04   0.03
     4   1     0.10   0.27   0.14     0.06   0.33   0.15     0.01   0.09   0.03
     5   6     0.07  -0.07  -0.12     0.01  -0.13  -0.02     0.04   0.02   0.08
     6   1    -0.10   0.03   0.11     0.03   0.05  -0.17    -0.14   0.34   0.19
     7   1    -0.09  -0.07   0.01     0.14  -0.32  -0.44    -0.01  -0.16  -0.19
     8   1     0.05  -0.45  -0.34    -0.08   0.27   0.10    -0.10   0.09  -0.02
     9   6     0.21   0.16  -0.16    -0.06  -0.17   0.21     0.09  -0.06   0.02
    10   8     0.14  -0.01   0.14     0.12   0.06   0.04    -0.07  -0.04  -0.06
    11   1     0.08  -0.09   0.11     0.12   0.04   0.09     0.02   0.07   0.07
    12   8    -0.02  -0.01  -0.05    -0.01   0.02   0.04     0.30  -0.11  -0.10
    13   1     0.05   0.16   0.25    -0.02  -0.20  -0.28     0.19   0.07   0.01
    14   8    -0.17   0.04  -0.14    -0.10   0.03  -0.16    -0.04  -0.03  -0.03
    15   1     0.01  -0.08   0.06    -0.03   0.12  -0.03     0.39   0.22   0.05
    16   8    -0.15  -0.09   0.22    -0.02   0.00  -0.05    -0.01   0.02  -0.02
    17   1    -0.05  -0.06   0.19    -0.24  -0.11   0.04    -0.06  -0.05   0.01
    18   6    -0.02   0.01   0.00     0.04  -0.01   0.00    -0.36   0.11   0.13
    19   1    -0.01   0.02   0.03     0.03  -0.03  -0.03    -0.23   0.04   0.11
    20   1     0.02   0.00   0.00    -0.02  -0.02   0.01    -0.17   0.11   0.09
    21   1    -0.07   0.02   0.03     0.05  -0.02  -0.01    -0.19   0.10   0.02
                    22                     23                     24
                     A                      A                      A
 Frequencies --   953.2751              1027.9273              1037.1779
 Red. masses --     2.7752                 1.0753                 4.1840
 Frc consts  --     1.4859                 0.6694                 2.6518
 IR Inten    --   221.6113                70.7299               213.9658
  Atom  AN      X      Y      Z        X      Y      Z        X      Y      Z
     1   6     0.01   0.11   0.04     0.00  -0.01  -0.01     0.04   0.25   0.12
     2   1     0.02   0.08   0.03    -0.01   0.03   0.02     0.06   0.06  -0.01
     3   1     0.01   0.08   0.04    -0.01  -0.03  -0.01     0.03   0.24   0.10
     4   1     0.01   0.09   0.02    -0.01   0.00   0.01    -0.02  -0.03  -0.08
     5   6     0.09   0.08   0.12    -0.02  -0.03   0.01    -0.12   0.08   0.01
     6   1    -0.28   0.59   0.43     0.04  -0.02  -0.10     0.12  -0.24  -0.18
     7   1    -0.11  -0.20  -0.20     0.08  -0.04  -0.08     0.02   0.33   0.30
     8   1    -0.15   0.00  -0.14    -0.02   0.13   0.09     0.06   0.17   0.23
     9   6     0.17  -0.08  -0.02     0.01   0.01   0.01    -0.06  -0.03  -0.15
    10   8    -0.12  -0.08  -0.09    -0.01   0.00   0.00     0.09   0.04   0.07
    11   1     0.04   0.12   0.12     0.00   0.01   0.01     0.10   0.05   0.05
    12   8    -0.11   0.03   0.02    -0.01  -0.02  -0.01     0.00  -0.01  -0.01
    13   1    -0.07   0.04   0.07    -0.46   0.51   0.29    -0.03   0.12   0.14
    14   8    -0.03  -0.07  -0.03    -0.01   0.01  -0.01     0.00  -0.32  -0.05
    15   1    -0.06   0.03   0.02     0.28   0.14  -0.07     0.02   0.14   0.09
    16   8     0.00   0.01   0.01     0.03   0.00   0.01    -0.03  -0.01  -0.02
    17   1     0.12   0.06  -0.04    -0.07  -0.10   0.07     0.35   0.20  -0.19
    18   6     0.11  -0.04  -0.04     0.02  -0.04   0.00     0.00  -0.01   0.00
    19   1     0.05   0.01  -0.02    -0.33   0.18   0.08    -0.03   0.03   0.03
    20   1     0.07  -0.04  -0.03     0.16   0.06  -0.15     0.06   0.00  -0.02
    21   1     0.03  -0.01   0.01     0.21   0.07  -0.10    -0.03   0.04   0.02
                    25                     26                     27
                     A                      A                      A
 Frequencies --  1079.5440              1097.4859              1119.8098
 Red. masses --     1.7198                 1.4155                 1.6213
 Frc consts  --     1.1809                 1.0045                 1.1978
 IR Inten    --   149.5111               166.0048               107.1088
  Atom  AN      X      Y      Z        X      Y      Z        X      Y      Z
     1   6     0.01   0.07   0.04     0.01  -0.03   0.00     0.00  -0.01   0.00
     2   1     0.02   0.00  -0.01    -0.01   0.06  -0.01     0.00  -0.01  -0.02
     3   1     0.01   0.06   0.03    -0.04   0.01  -0.02    -0.02  -0.02  -0.01
     4   1    -0.01  -0.04  -0.04    -0.04  -0.10  -0.03    -0.01  -0.07  -0.03
     5   6     0.08  -0.04  -0.03     0.08  -0.01   0.02    -0.05  -0.11   0.11
     6   1    -0.07   0.11   0.10    -0.12   0.23   0.20     0.08   0.16  -0.27
     7   1    -0.07  -0.19  -0.16    -0.09  -0.19  -0.15     0.27  -0.26  -0.41
     8   1    -0.04  -0.18  -0.23    -0.08  -0.08  -0.16    -0.19   0.53   0.28
     9   6    -0.08   0.13   0.04    -0.11  -0.02  -0.01     0.04   0.10  -0.12
    10   8    -0.03   0.02   0.00     0.05   0.05   0.03     0.00   0.00   0.02
    11   1    -0.38  -0.39  -0.42    -0.16  -0.21  -0.22    -0.09  -0.10  -0.10
    12   8     0.00   0.01   0.00     0.02  -0.02   0.00    -0.01   0.00   0.00
    13   1    -0.04  -0.02  -0.06    -0.05   0.13   0.12     0.10  -0.08   0.00
    14   8     0.02  -0.11   0.00     0.01   0.03   0.01     0.00   0.01   0.02
    15   1     0.09  -0.23  -0.14    -0.14   0.34   0.20    -0.01  -0.09   0.04
    16   8     0.05   0.03   0.00    -0.05  -0.04  -0.02     0.01  -0.01   0.00
    17   1    -0.33  -0.19   0.17     0.46   0.31  -0.26     0.09   0.00  -0.03
    18   6     0.00   0.00   0.01     0.00  -0.02  -0.01     0.00   0.02  -0.02
    19   1    -0.04   0.00  -0.02    -0.03   0.04   0.06     0.17  -0.06  -0.03
    20   1    -0.08   0.03  -0.01     0.19  -0.03  -0.04    -0.04  -0.04   0.07
    21   1     0.08  -0.04  -0.05    -0.04   0.07   0.04    -0.15  -0.01   0.07
                    28                     29                     30
                     A                      A                      A
 Frequencies --  1166.6363              1177.2153              1214.3899
 Red. masses --     1.2299                 1.2642                 1.3808
 Frc consts  --     0.9863                 1.0322                 1.1997
 IR Inten    --    63.1728                 2.7392                29.5182
  Atom  AN      X      Y      Z        X      Y      Z        X      Y      Z
     1   6    -0.01   0.01   0.00     0.11   0.02  -0.06    -0.07   0.06  -0.11
     2   1     0.01  -0.06   0.00    -0.01   0.61   0.34     0.04  -0.37   0.18
     3   1     0.03  -0.01   0.01    -0.28  -0.55  -0.15     0.16  -0.45   0.03
     4   1     0.02   0.06   0.02    -0.23  -0.07   0.15     0.10   0.64   0.30
     5   6    -0.01   0.00  -0.03     0.00   0.01  -0.01     0.00  -0.01   0.00
     6   1     0.02  -0.08  -0.04     0.01  -0.02   0.00     0.01  -0.01  -0.02
     7   1     0.01   0.04   0.03    -0.01   0.02   0.03     0.01  -0.01  -0.01
     8   1     0.04  -0.04   0.01     0.01  -0.01   0.00     0.00   0.01   0.01
     9   6     0.02   0.03   0.04     0.00   0.00   0.00     0.00   0.02   0.01
    10   8    -0.02  -0.01  -0.01     0.00   0.00   0.00    -0.01   0.00  -0.01
    11   1    -0.03  -0.02  -0.02    -0.01  -0.02  -0.01    -0.04  -0.03  -0.05
    12   8     0.00   0.00   0.03     0.00   0.00   0.00     0.00  -0.01  -0.01
    13   1     0.06   0.03   0.12     0.01  -0.01   0.00     0.00   0.03   0.04
    14   8     0.01  -0.02   0.00    -0.05  -0.02   0.03     0.05  -0.04   0.07
    15   1    -0.02   0.25   0.22     0.00   0.00   0.01    -0.03   0.07   0.03
    16   8     0.03   0.01  -0.01     0.00   0.00   0.00    -0.01  -0.01  -0.01
    17   1    -0.24  -0.08   0.09    -0.04  -0.01   0.01     0.13   0.09  -0.08
    18   6    -0.03  -0.03  -0.10     0.00   0.01  -0.01     0.01   0.01   0.01
    19   1     0.17   0.05   0.18     0.04  -0.01  -0.01     0.00  -0.02  -0.03
    20   1     0.50  -0.18   0.01    -0.01  -0.01   0.02    -0.07   0.02   0.01
    21   1    -0.51   0.26   0.29    -0.04   0.00   0.02     0.06  -0.04  -0.03
                    31                     32                     33
                     A                      A                      A
 Frequencies --  1228.8046              1311.1600              1356.7689
 Red. masses --     1.2921                 1.5118                 1.4640
 Frc consts  --     1.1495                 1.5312                 1.5879
 IR Inten    --   124.4402                45.0986               270.1779
  Atom  AN      X      Y      Z        X      Y      Z        X      Y      Z
     1   6     0.00   0.01  -0.01     0.01  -0.01   0.02    -0.01  -0.02   0.00
     2   1     0.01  -0.02   0.03    -0.01   0.08  -0.03    -0.03   0.11   0.00
     3   1     0.00  -0.07  -0.01    -0.03   0.06   0.00     0.02   0.12   0.00
     4   1     0.00   0.05   0.03     0.00  -0.06  -0.02     0.06   0.11   0.05
     5   6     0.00   0.00   0.02    -0.05  -0.01  -0.02    -0.05   0.03  -0.01
     6   1    -0.01   0.05   0.00     0.07  -0.16  -0.12     0.02  -0.15   0.00
     7   1     0.00  -0.02  -0.02     0.12   0.06  -0.03     0.03   0.10   0.06
     8   1    -0.03   0.04   0.00     0.10  -0.02   0.11     0.11   0.01   0.13
     9   6    -0.01   0.00  -0.04     0.13   0.06   0.08     0.13  -0.10   0.04
    10   8     0.01   0.00   0.00    -0.05   0.00  -0.01    -0.02   0.05   0.01
    11   1     0.04   0.03   0.03    -0.19  -0.17  -0.18    -0.38  -0.38  -0.41
    12   8     0.03   0.08   0.02    -0.01   0.02  -0.04     0.01   0.00   0.02
    13   1     0.11  -0.22  -0.29     0.34  -0.15   0.00    -0.18   0.06  -0.03
    14   8     0.00   0.00   0.02    -0.01  -0.01  -0.02    -0.01   0.02  -0.01
    15   1    -0.07  -0.43  -0.20    -0.35   0.45   0.25     0.24  -0.32  -0.22
    16   8    -0.02   0.01   0.01    -0.01  -0.02  -0.02    -0.03   0.00   0.00
    17   1     0.10   0.02  -0.03     0.01   0.08  -0.06     0.29   0.09  -0.10
    18   6    -0.05  -0.10   0.01     0.01  -0.05   0.07     0.00   0.02  -0.04
    19   1    -0.41   0.20   0.23    -0.26   0.03   0.01     0.09   0.01   0.02
    20   1     0.45   0.00  -0.23     0.03   0.11  -0.16    -0.02  -0.06   0.08
    21   1     0.09   0.21   0.00     0.31   0.00  -0.11    -0.16   0.01   0.06
                    34                     35                     36
                     A                      A                      A
 Frequencies --  1387.8769              1452.5667              1474.3440
 Red. masses --     1.7556                 1.4798                 1.1168
 Frc consts  --     1.9924                 1.8396                 1.4302
 IR Inten    --   147.3339                68.9627                74.9476
  Atom  AN      X      Y      Z        X      Y      Z        X      Y      Z
     1   6     0.01   0.00   0.02     0.01  -0.01   0.01     0.01   0.02   0.00
     2   1     0.00   0.04  -0.02     0.00   0.04  -0.02     0.04  -0.13  -0.02
     3   1    -0.03   0.03  -0.01    -0.03   0.04  -0.01    -0.04  -0.10   0.00
     4   1    -0.01  -0.05   0.00     0.01   0.00   0.01    -0.08  -0.11  -0.04
     5   6    -0.02   0.00   0.01     0.03  -0.12  -0.11     0.01   0.00  -0.01
     6   1     0.15  -0.17  -0.19    -0.33   0.30   0.26    -0.01  -0.03   0.03
     7   1     0.14  -0.12  -0.30    -0.05   0.21   0.50    -0.05  -0.02   0.02
     8   1     0.05  -0.33  -0.11     0.04   0.53   0.23     0.00   0.04   0.01
     9   6     0.00   0.16   0.16     0.00   0.08   0.07     0.00   0.00   0.01
    10   8    -0.02  -0.05  -0.05    -0.01  -0.02  -0.02     0.00   0.00   0.00
    11   1     0.21   0.23   0.23     0.05   0.05   0.05     0.00   0.00   0.00
    12   8     0.02   0.00   0.02     0.00   0.00   0.00     0.01   0.00  -0.02
    13   1    -0.17   0.07  -0.02    -0.05   0.01  -0.01     0.11  -0.04   0.00
    14   8    -0.01  -0.03  -0.02     0.00  -0.01  -0.01     0.00   0.01   0.00
    15   1     0.11  -0.23  -0.14     0.01  -0.07  -0.04     0.09   0.01   0.04
    16   8    -0.04  -0.03  -0.02    -0.01  -0.01  -0.01     0.00   0.00   0.00
    17   1     0.47   0.22  -0.22     0.16   0.08  -0.08     0.04   0.02  -0.01
    18   6    -0.01   0.02  -0.02    -0.01   0.01   0.00     0.09  -0.03  -0.02
    19   1     0.08   0.00   0.01     0.03  -0.01   0.00    -0.50   0.28   0.03
    20   1     0.01  -0.05   0.06     0.03  -0.02   0.02    -0.52   0.04   0.01
    21   1    -0.09  -0.01   0.02     0.01  -0.02  -0.02    -0.42   0.10   0.34
                    37                     38                     39
                     A                      A                      A
 Frequencies --  1487.4496              1500.2037              1502.2073
 Red. masses --     1.1164                 1.0643                 1.0551
 Frc consts  --     1.4553                 1.4113                 1.4028
 IR Inten    --     8.1153                 5.3043                13.7457
  Atom  AN      X      Y      Z        X      Y      Z        X      Y      Z
     1   6    -0.02  -0.08  -0.01    -0.01  -0.02   0.00    -0.01  -0.01   0.00
     2   1    -0.15   0.52  -0.01    -0.06   0.19   0.00    -0.06   0.18  -0.03
     3   1     0.09   0.35  -0.01     0.08   0.04   0.02     0.09  -0.03   0.04
     4   1     0.32   0.43   0.17     0.15   0.12  -0.01     0.18   0.08  -0.07
     5   6     0.02  -0.01   0.02    -0.03   0.00  -0.01    -0.02   0.00  -0.01
     6   1     0.13   0.01  -0.19    -0.21   0.20   0.20    -0.12   0.13   0.09
     7   1    -0.15  -0.02   0.12     0.43   0.11  -0.19     0.25   0.07  -0.09
     8   1    -0.25   0.07  -0.20     0.37  -0.25   0.25     0.19  -0.15   0.12
     9   6    -0.01   0.02  -0.01    -0.04   0.00  -0.02    -0.02   0.00  -0.02
    10   8     0.00   0.00   0.00     0.01   0.00   0.00     0.00   0.00   0.00
    11   1     0.03   0.03   0.04     0.02   0.02   0.02     0.01   0.01   0.01
    12   8     0.01   0.00   0.00     0.01   0.00   0.00     0.00   0.00  -0.01
    13   1     0.02  -0.01   0.00    -0.02   0.01  -0.01     0.03  -0.02  -0.01
    14   8     0.00  -0.03   0.00     0.00  -0.01   0.00     0.00  -0.01   0.00
    15   1    -0.03   0.01   0.04    -0.02  -0.03   0.02    -0.03   0.03   0.02
    16   8     0.00   0.00   0.00     0.01   0.00   0.00     0.00   0.00   0.00
    17   1    -0.02  -0.01   0.01    -0.04  -0.02   0.02    -0.04  -0.01   0.02
    18   6     0.02  -0.01   0.00     0.02   0.01   0.03     0.00  -0.02  -0.04
    19   1    -0.11   0.03  -0.03    -0.16  -0.13  -0.33     0.13   0.27   0.53
    20   1    -0.10   0.04  -0.04     0.11   0.14  -0.18    -0.30  -0.21   0.29
    21   1    -0.10   0.02   0.08    -0.21  -0.13   0.13     0.23   0.21  -0.12
                    40                     41                     42
                     A                      A                      A
 Frequencies --  1505.1273              1507.2441              1509.8990
 Red. masses --     1.0538                 1.0425                 1.0540
 Frc consts  --     1.4066                 1.3954                 1.4158
 IR Inten    --    10.8338                21.3448                11.0264
  Atom  AN      X      Y      Z        X      Y      Z        X      Y      Z
     1   6     0.05  -0.02  -0.03     0.00   0.00   0.00    -0.01   0.02   0.01
     2   1     0.08  -0.22   0.11     0.00  -0.01   0.00     0.01  -0.04   0.02
     3   1    -0.32   0.47  -0.19     0.02  -0.03   0.01     0.10  -0.18   0.06
     4   1    -0.43   0.12   0.50     0.01  -0.02  -0.03     0.04  -0.13  -0.17
     5   6    -0.01  -0.01   0.01     0.00  -0.01   0.01    -0.01  -0.03   0.02
     6   1    -0.03   0.19  -0.08     0.03   0.12  -0.12     0.08   0.46  -0.42
     7   1     0.20   0.11   0.02     0.07   0.07   0.07     0.32   0.29   0.28
     8   1     0.02  -0.12  -0.02    -0.07  -0.05  -0.08    -0.22  -0.19  -0.28
     9   6    -0.01  -0.01  -0.01     0.00  -0.01   0.00     0.01  -0.03   0.02
    10   8     0.00   0.00   0.00     0.00   0.00   0.00     0.00   0.01   0.00
    11   1     0.00   0.00   0.00    -0.01  -0.01  -0.01    -0.05  -0.05  -0.04
    12   8     0.00   0.00   0.00     0.01   0.01   0.00     0.00   0.00   0.00
    13   1     0.00   0.00   0.00     0.02  -0.01  -0.03    -0.02   0.01   0.00
    14   8     0.01  -0.01   0.00     0.00   0.00   0.00     0.00   0.01   0.00
    15   1    -0.01   0.00   0.01    -0.06   0.03   0.01     0.03  -0.01  -0.02
    16   8     0.00   0.00   0.00     0.00   0.00   0.00     0.00   0.00   0.00
    17   1    -0.02  -0.02   0.02    -0.02   0.00   0.01     0.02   0.01  -0.01
    18   6     0.00   0.00  -0.01     0.01   0.05  -0.02     0.00  -0.01   0.01
    19   1     0.01   0.04   0.07    -0.34   0.20   0.00     0.08  -0.07  -0.03
    20   1    -0.06  -0.02   0.03     0.25  -0.33   0.43    -0.05   0.10  -0.12
    21   1     0.02   0.04   0.00    -0.08  -0.63  -0.12    -0.01   0.15   0.05
                    43                     44                     45
                     A                      A                      A
 Frequencies --  1518.3219              1716.3902              2245.9810
 Red. masses --     1.0499                 1.1238                 1.0892
 Frc consts  --     1.4260                 1.9506                 3.2372
 IR Inten    --    17.6349              1569.1993              1920.4316
  Atom  AN      X      Y      Z        X      Y      Z        X      Y      Z
     1   6    -0.02  -0.01  -0.05     0.00  -0.01   0.00     0.00   0.00   0.00
     2   1     0.01   0.03   0.70    -0.01   0.04   0.02     0.00   0.00   0.00
     3   1     0.57   0.25   0.16     0.01   0.02   0.00     0.00   0.00   0.00
     4   1    -0.20  -0.20  -0.06     0.01   0.02   0.01     0.00   0.00   0.00
     5   6     0.00   0.00   0.00     0.00   0.00   0.00     0.00   0.00   0.00
     6   1    -0.01  -0.03   0.02    -0.01   0.02   0.01     0.00   0.00   0.00
     7   1    -0.03  -0.02  -0.01     0.02   0.00  -0.01     0.00   0.00   0.00
     8   1     0.01   0.03   0.02     0.01  -0.02   0.00     0.00  -0.01  -0.01
     9   6     0.00   0.01   0.00    -0.03   0.00   0.01    -0.01  -0.01   0.02
    10   8     0.00   0.00   0.00     0.01   0.00   0.00     0.00   0.00   0.00
    11   1     0.00   0.00   0.01     0.01   0.00   0.01     0.00   0.00   0.00
    12   8     0.00   0.00   0.00    -0.08   0.01  -0.01    -0.03   0.03  -0.06
    13   1     0.00   0.00   0.00     0.52  -0.20   0.21    -0.07  -0.02  -0.08
    14   8    -0.01   0.00  -0.01     0.00   0.00   0.00     0.00   0.00   0.00
    15   1    -0.02   0.00   0.01     0.73   0.19  -0.19     0.30  -0.39   0.86
    16   8     0.00   0.00   0.00     0.00   0.00   0.01     0.01   0.00  -0.01
    17   1     0.01   0.00   0.00     0.11   0.00  -0.01     0.03   0.02   0.00
    18   6     0.00   0.00   0.00    -0.01  -0.01   0.00    -0.01   0.00   0.01
    19   1    -0.01   0.02   0.01    -0.01  -0.02   0.00     0.00  -0.02   0.01
    20   1    -0.02  -0.01   0.01     0.10  -0.02  -0.01     0.03   0.01   0.01
    21   1     0.00   0.00   0.01     0.05  -0.04  -0.05     0.06  -0.02  -0.05
                    46                     47                     48
                     A                      A                      A
 Frequencies --  3076.1621              3081.9588              3113.8264
 Red. masses --     1.0354                 1.0357                 1.0276
 Frc consts  --     5.7727                 5.7961                 5.8706
 IR Inten    --    45.4939                 2.8619                13.5036
  Atom  AN      X      Y      Z        X      Y      Z        X      Y      Z
     1   6     0.01  -0.03  -0.04     0.00   0.00   0.00     0.00   0.00   0.00
     2   1     0.40   0.09  -0.03    -0.01   0.00   0.00     0.00   0.00   0.00
     3   1    -0.28   0.07   0.76     0.01   0.00  -0.02     0.00   0.00   0.01
     4   1    -0.21   0.24  -0.26     0.01  -0.01   0.01     0.00   0.00   0.00
     5   6     0.00   0.00   0.00     0.01  -0.04  -0.03     0.00   0.00   0.00
     6   1     0.01   0.00   0.01     0.45   0.15   0.26     0.00   0.00   0.00
     7   1    -0.01   0.02  -0.01    -0.23   0.48  -0.30     0.00   0.00   0.00
     8   1    -0.01  -0.01   0.01    -0.37  -0.20   0.38     0.00   0.00   0.00
     9   6     0.00   0.00   0.00     0.00   0.00   0.00     0.00   0.00   0.00
    10   8     0.00   0.00   0.00     0.00   0.00   0.00     0.00   0.00   0.00
    11   1     0.00   0.00   0.00     0.00   0.00   0.00     0.00   0.00   0.00
    12   8     0.00   0.00   0.00     0.00   0.00   0.00     0.00   0.00   0.00
    13   1     0.00  -0.01   0.01     0.00   0.00   0.00     0.01   0.02  -0.01
    14   8     0.00   0.00   0.00     0.00   0.00   0.00     0.00   0.00   0.00
    15   1     0.00   0.00   0.00     0.00   0.00   0.00    -0.01   0.01  -0.01
    16   8     0.00   0.00   0.00     0.00   0.00   0.00     0.00   0.00   0.00
    17   1     0.00   0.00   0.00     0.00   0.00   0.00     0.00   0.00   0.00
    18   6     0.00   0.00   0.00     0.00   0.00   0.00     0.03  -0.02  -0.02
    19   1     0.00   0.00   0.00     0.00   0.00   0.00    -0.19  -0.40   0.25
    20   1     0.00   0.00   0.00     0.00   0.00   0.00     0.08   0.54   0.41
    21   1     0.00   0.00   0.00     0.00   0.00   0.00    -0.28   0.11  -0.43
                    49                     50                     51
                     A                      A                      A
 Frequencies --  3157.9536              3164.1378              3165.2948
 Red. masses --     1.1033                 1.1050                 1.1000
 Frc consts  --     6.4829                 6.5181                 6.4931
 IR Inten    --    10.8278                13.0893                22.2107
  Atom  AN      X      Y      Z        X      Y      Z        X      Y      Z
     1   6     0.00   0.00   0.00     0.01   0.00  -0.01    -0.04  -0.03   0.07
     2   1    -0.02   0.00   0.00    -0.09  -0.02   0.00     0.59   0.13  -0.01
     3   1    -0.01   0.00   0.02    -0.03   0.01   0.08     0.19  -0.05  -0.52
     4   1     0.01  -0.01   0.01     0.04  -0.04   0.04    -0.30   0.31  -0.33
     5   6    -0.07   0.02  -0.05     0.05   0.06  -0.05     0.01   0.01  -0.01
     6   1     0.63   0.23   0.37    -0.27  -0.09  -0.17    -0.02  -0.01  -0.01
     7   1     0.23  -0.50   0.30     0.19  -0.36   0.22     0.03  -0.07   0.04
     8   1     0.02   0.02  -0.04    -0.53  -0.28   0.54    -0.08  -0.04   0.08
     9   6     0.00   0.00   0.00     0.00   0.00   0.00     0.00   0.00   0.00
    10   8     0.00   0.00   0.00     0.00   0.00   0.00     0.00   0.00   0.00
    11   1     0.00   0.00   0.00     0.00   0.00   0.00     0.00   0.00   0.00
    12   8     0.00   0.00   0.00     0.00   0.00   0.00     0.00   0.00   0.00
    13   1     0.00   0.00   0.00     0.00   0.00   0.00     0.00   0.00   0.00
    14   8     0.00   0.00   0.00     0.00   0.00   0.00     0.00   0.00   0.00
    15   1     0.00   0.00   0.00     0.00   0.00   0.00     0.00   0.00   0.00
    16   8     0.00   0.00   0.00     0.00   0.00   0.00     0.00   0.00   0.00
    17   1     0.00   0.00   0.00     0.00   0.00   0.00     0.00   0.00   0.00
    18   6     0.00   0.00   0.00     0.00   0.00   0.00     0.00   0.00   0.00
    19   1     0.00   0.00   0.00     0.00   0.00   0.00     0.00   0.00   0.00
    20   1     0.00   0.00   0.00     0.00   0.00   0.00     0.00   0.00   0.00
    21   1     0.00   0.00   0.00     0.00   0.00   0.00     0.00   0.00   0.00
                    52                     53                     54
                     A                      A                      A
 Frequencies --  3195.5908              3218.5151              3234.0741
 Red. masses --     1.1087                 1.1112                 1.1118
 Frc consts  --     6.6707                 6.7822                 6.8512
 IR Inten    --    14.4577                 3.3617                 1.4659
  Atom  AN      X      Y      Z        X      Y      Z        X      Y      Z
     1   6    -0.09   0.02  -0.04     0.00   0.00   0.00     0.00   0.00   0.00
     2   1     0.65   0.15  -0.04     0.00   0.00   0.00     0.00   0.00   0.00
     3   1    -0.03   0.01   0.02     0.00   0.00   0.00     0.00   0.00   0.00
     4   1     0.38  -0.42   0.47     0.00   0.00   0.00     0.00   0.00   0.00
     5   6     0.00   0.00   0.00     0.00   0.00   0.00     0.00   0.00   0.00
     6   1     0.00   0.00   0.00     0.00   0.00   0.00     0.00   0.00   0.00
     7   1     0.00   0.00   0.00     0.00   0.00   0.00     0.00   0.00   0.00
     8   1     0.00   0.00   0.00     0.00   0.00   0.00     0.00   0.00   0.00
     9   6     0.00   0.00   0.00     0.00   0.00   0.00     0.00   0.00   0.00
    10   8     0.00   0.00   0.00     0.00   0.00   0.00     0.00   0.00   0.00
    11   1     0.00   0.00   0.00     0.00   0.00   0.00     0.00   0.00   0.00
    12   8     0.00   0.00   0.00     0.00   0.00   0.00     0.00   0.00   0.00
    13   1     0.00   0.00   0.00     0.00   0.01  -0.01     0.00  -0.02   0.01
    14   8     0.00   0.00   0.00     0.00   0.00   0.00     0.00   0.00   0.00
    15   1     0.00   0.00   0.00     0.00   0.00   0.00     0.00   0.00   0.00
    16   8     0.00   0.00   0.00     0.00   0.00   0.00     0.00   0.00   0.00
    17   1     0.00   0.00   0.00     0.00   0.00   0.00     0.00   0.00   0.00
    18   6     0.00   0.00   0.00     0.05   0.07   0.06     0.01  -0.06   0.07
    19   1     0.00   0.00   0.00    -0.15  -0.33   0.22     0.28   0.60  -0.36
    20   1     0.00   0.00   0.00    -0.09  -0.57  -0.42     0.01   0.04   0.04
    21   1     0.00   0.00   0.00    -0.29   0.13  -0.45    -0.35   0.13  -0.53
                    55                     56                     57
                     A                      A                      A
 Frequencies --  3467.3483              3715.0607              3754.0102
 Red. masses --     1.0648                 1.0665                 1.0673
 Frc consts  --     7.5426                 8.6725                 8.8620
 IR Inten    --   551.4544               143.4011               140.3305
  Atom  AN      X      Y      Z        X      Y      Z        X      Y      Z
     1   6     0.00   0.00   0.00     0.00   0.00   0.00     0.00   0.00   0.00
     2   1     0.01   0.00   0.00     0.00   0.00   0.00     0.00   0.00   0.00
     3   1     0.00   0.00   0.01     0.00   0.00   0.00     0.00   0.00   0.00
     4   1     0.00   0.00   0.00     0.00   0.00   0.00     0.00   0.00   0.00
     5   6     0.00   0.00   0.00     0.00   0.00   0.00     0.00   0.00   0.00
     6   1     0.00   0.00   0.00     0.00   0.00   0.00     0.00   0.00   0.00
     7   1     0.00   0.00   0.00     0.00   0.00   0.00     0.00   0.00   0.00
     8   1     0.00   0.00   0.00     0.00   0.00   0.00     0.00   0.00   0.00
     9   6     0.00   0.00   0.00     0.00   0.00   0.00     0.00   0.00   0.00
    10   8     0.00   0.00   0.00     0.00   0.00   0.00    -0.05   0.04   0.00
    11   1     0.00   0.00   0.00     0.02  -0.01   0.00     0.77  -0.64   0.00
    12   8    -0.03  -0.04   0.03     0.00   0.00   0.00     0.00   0.00   0.00
    13   1     0.44   0.71  -0.54     0.00   0.00   0.00     0.00   0.00   0.00
    14   8     0.00   0.00   0.00     0.00   0.00   0.00     0.00   0.00   0.00
    15   1     0.02  -0.03   0.03     0.01   0.00   0.01     0.00   0.00   0.00
    16   8     0.00   0.00   0.00     0.01   0.02   0.06     0.00   0.00   0.00
    17   1     0.00   0.00   0.00    -0.20  -0.34  -0.92     0.00   0.01   0.02
    18   6     0.00   0.00   0.00     0.00   0.00   0.00     0.00   0.00   0.00
    19   1     0.02   0.02  -0.02     0.00   0.00   0.00     0.00   0.00   0.00
    20   1     0.01  -0.01  -0.01     0.00   0.00   0.00     0.00   0.00   0.00
    21   1     0.01   0.00   0.00     0.00   0.00   0.00     0.00   0.00   0.00

 -------------------
 - Thermochemistry -
 -------------------
 Temperature   298.150 Kelvin.  Pressure   1.00000 Atm.
 Atom     1 has atomic number  6 and mass  12.00000
 Atom     2 has atomic number  1 and mass   1.00783
 Atom     3 has atomic number  1 and mass   1.00783
 Atom     4 has atomic number  1 and mass   1.00783
 Atom     5 has atomic number  6 and mass  12.00000
 Atom     6 has atomic number  1 and mass   1.00783
 Atom     7 has atomic number  1 and mass   1.00783
 Atom     8 has atomic number  1 and mass   1.00783
 Atom     9 has atomic number  6 and mass  12.00000
 Atom    10 has atomic number  8 and mass  15.99491
 Atom    11 has atomic number  1 and mass   1.00783
 Atom    12 has atomic number  8 and mass  15.99491
 Atom    13 has atomic number  1 and mass   1.00783
 Atom    14 has atomic number  8 and mass  15.99491
 Atom    15 has atomic number  1 and mass   1.00783
 Atom    16 has atomic number  8 and mass  15.99491
 Atom    17 has atomic number  1 and mass   1.00783
 Atom    18 has atomic number  6 and mass  12.00000
 Atom    19 has atomic number  1 and mass   1.00783
 Atom    20 has atomic number  1 and mass   1.00783
 Atom    21 has atomic number  1 and mass   1.00783
 Molecular mass:   125.08138 amu.
 Principal axes and moments of inertia in atomic units:
                           1         2         3
     Eigenvalues --   678.887521539.112321800.07976
           X            0.99975  -0.01740  -0.01426
           Y            0.01790   0.99919   0.03593
           Z            0.01363  -0.03618   0.99925
 This molecule is an asymmetric top.
 Rotational symmetry number  1.
 Warning -- assumption of classical behavior for rotation
           may cause significant error
 Rotational temperatures (Kelvin)      0.12758     0.05628     0.04812
 Rotational constants (GHZ):           2.65838     1.17259     1.00259
    1 imaginary frequencies ignored.
 Zero-point vibrational energy     475749.6 (Joules/Mol)
                                  113.70689 (Kcal/Mol)
 Warning -- explicit consideration of  17 degrees of freedom as
           vibrations may cause significant error
 Vibrational temperatures:     63.17   115.36   130.65   205.70   228.07
          (Kelvin)            264.76   301.45   361.32   389.40   447.64
                              534.52   563.93   606.86   683.23   776.52
                              818.09   866.35  1071.88  1175.52  1355.29
                             1371.55  1478.96  1492.27  1553.22  1579.04
                             1611.15  1678.53  1693.75  1747.23  1767.97
                             1886.46  1952.09  1996.84  2089.92  2121.25
                             2140.11  2158.46  2161.34  2165.54  2168.59
                             2172.41  2184.52  2469.50  3231.46  4425.91
                             4434.25  4480.10  4543.59  4552.48  4554.15
                             4597.74  4630.72  4653.11  4988.73  5345.14
                             5401.18
 
 Zero-point correction=                           0.181203 (Hartree/Particle)
 Thermal correction to Energy=                    0.192439
 Thermal correction to Enthalpy=                  0.193383
 Thermal correction to Gibbs Free Energy=         0.144480
[...]
 063139,0.00059076,-0.00005183,-0.00000731,-0.00005895,-0.03051232,-0.0
 1441699,-0.01641913,0.00185251,-0.00573034,-0.00346987,0.00020197,0.00
 005519,0.00113498,-0.00083550,0.00173520,0.00228104,-0.04789085,-0.058
 37996,-0.13010966,0.12093817,0.08039354,0.15288312,-0.00012153,-0.0003
 2294,0.00024211,0.00022954,0.00002234,-0.00017307,-0.00012488,-0.00007
 869,0.00000834,0.00022671,0.00003286,0.00013244,0.00388440,0.00057383,
 0.00130952,0.00002199,0.00068087,0.00128326,-0.00015457,-0.00115030,-0
 .00072206,0.00000812,-0.00037162,-0.00012269,-0.02906450,0.02297806,-0
 .00039690,-0.29093639,0.21368408,-0.01720997,0.31682488,0.00025528,-0.
 00046532,0.00023928,0.00031420,0.00007790,-0.00012190,-0.00019285,-0.0
 0002758,0.00009401,0.00020022,0.00020328,0.00018234,-0.00228431,0.0010
 9079,-0.00148484,0.00034702,-0.00084607,-0.00011169,-0.00053454,-0.001
 85268,-0.00002477,0.00000739,0.00030848,0.00016326,-0.01809131,0.01007
 973,-0.00205372,0.25689585,-0.22819073,-0.01413045,-0.23143760,0.22314
 791,0.00009430,-0.00148125,-0.00054797,0.00010677,0.00006942,0.0000374
 3,-0.00010140,0.00018490,0.00017483,0.00001418,0.00009744,0.00015500,0
 .00084688,0.00070131,0.00067947,0.00047859,0.00037936,0.00030008,-0.00
 038539,-0.00064354,0.00011126,-0.00013773,-0.00003727,-0.00103646,-0.0
 2141068,0.01707705,-0.00244673,0.00955047,-0.03667647,-0.01178081,0.01
 650889,0.01811855,0.01997873,-0.00098345,0.00552953,0.00174788,-0.0002
 8567,-0.00128198,-0.00055270,0.00002685,-0.00034792,-0.00064089,0.0001
 8235,-0.00050007,0.00007209,-0.00094508,-0.00043324,0.00079410,0.00014
 382,-0.00014096,-0.00038078,-0.00017470,0.00004101,-0.00002678,-0.0003
 4660,0.00031164,0.00040951,0.01245234,0.00243197,-0.00817933,-0.007090
 34,-0.00194326,-0.00070130,0.00067457,-0.00025157,-0.00006854,0.520514
 09,0.00014570,0.00208585,0.00056833,-0.00009067,-0.00038042,-0.0001451
 1,0.00008818,-0.00021081,-0.00016333,0.00010419,-0.00005164,0.00003668
 ,0.00021813,0.00042070,-0.00053967,-0.00003768,-0.00009797,0.00014886,
 -0.00000562,0.00016782,0.00007949,0.00010151,-0.00011566,-0.00016666,-
 0.00193132,-0.00691766,0.00736442,0.00127526,0.00172835,-0.00103766,-0
 .00006969,0.00011334,-0.00034425,0.04312508,0.35417384,0.00084953,-0.0
 0091369,0.00003100,0.00008446,0.00045267,0.00010919,0.00004232,0.00027
 273,0.00003077,-0.00007736,-0.00010442,-0.00006183,-0.00054231,-0.0009
 8259,0.00076211,-0.00025456,0.00026611,0.00021683,0.00011374,-0.000201
 09,-0.00006375,-0.00006856,0.00027016,0.00044162,0.00506076,0.01041864
 ,-0.01326895,-0.00379959,-0.00278233,0.00120065,0.00035538,-0.00031255
 ,0.00030959,-0.05600111,-0.19460751,0.36701667,0.00091512,-0.00779059,
 -0.00158476,0.00062456,0.00179001,0.00071311,-0.00005052,0.00086501,0.
 00072038,-0.00020836,0.00038200,-0.00007619,-0.00006058,-0.00061029,0.
 00065360,0.00012603,0.00020153,0.00000262,0.00030936,-0.00039087,-0.00
 014390,0.00007513,-0.00001774,0.00010521,-0.00576460,0.01326512,-0.010
 09706,0.00309975,-0.00197245,0.00281336,-0.00014587,-0.00000714,0.0005
 6533,-0.14295523,-0.11121646,0.09035715,0.13308993,-0.00247532,-0.0029
 1266,-0.00107717,0.00025398,0.00003776,0.00006936,-0.00011489,0.000170
 77,0.00010328,-0.00017029,-0.00024494,0.00019989,0.00020596,-0.0001506
 9,0.00056188,0.00024796,-0.00036416,-0.00022655,-0.00014755,-0.0001960
 6,-0.00015156,-0.00016887,0.00002497,0.00001902,0.00250697,0.00674362,
 -0.00304231,0.00114986,-0.00135247,0.00086020,0.00002101,0.00003392,0.
 00038159,-0.12139088,-0.23594417,0.16516831,0.11262307,0.23714774,-0.0
 0138033,-0.00059567,0.00008425,0.00006935,-0.00013393,-0.00009784,-0.0
 0019930,-0.00018845,-0.00012573,0.00009339,0.00015528,0.00013045,0.000
 20843,0.00017828,-0.00002258,-0.00002456,-0.00014974,-0.00001972,-0.00
 006163,-0.00002511,-0.00004165,0.00003926,-0.00007283,-0.00005889,-0.0
 0433827,-0.00086421,0.00074152,0.00016648,0.00056800,-0.00003656,-0.00
 009791,0.00000868,-0.00009867,0.08185567,0.13390218,-0.12390649,-0.096
 07285,-0.15987485,0.14821371,-0.07256603,-0.00874524,-0.02536976,0.002
 90396,-0.03243218,-0.01367922,0.00454597,0.00815828,0.00046989,0.00452
 762,0.01752500,0.00787446,-0.00069366,0.01417932,-0.00358353,0.0002442
 8,0.00074631,0.00055565,0.00104490,0.00130147,0.00095646,0.00047814,-0
 .00049701,-0.00170282,-0.09075277,0.00923379,-0.02058909,-0.04329424,0
 .02732776,-0.03441759,0.00062585,-0.00043342,-0.00846653,-0.01847579,-
 0.00921154,0.00471466,0.00919188,0.00362648,0.00363150,0.18880243,-0.0
 2914795,-0.15608404,-0.04765949,-0.00731213,-0.02622193,-0.00875138,-0
 .00000398,-0.01859124,-0.01167614,-0.00613046,-0.03557993,-0.01269988,
 0.02256063,-0.04018384,0.01798296,-0.00046770,0.00183577,0.00186349,0.
 00270560,-0.00589174,-0.00547739,0.00025333,0.00113254,0.00075717,0.04
 048385,-0.14628579,0.01358709,0.01504019,0.00884996,0.00935937,-0.0028
 9350,-0.00003664,0.00095649,-0.00954838,0.00309111,-0.00243475,-0.0017
 6386,-0.00831296,0.00156050,-0.01959546,0.45639935,-0.02626429,-0.0283
 2711,-0.09246017,-0.00253302,-0.00481917,0.00050790,-0.00769265,-0.035
 90208,-0.00535097,0.00386554,0.01813750,0.00944855,0.00688284,-0.00943
 770,0.00985577,0.00009560,0.00033609,0.00052476,0.00071850,-0.00255560
 ,-0.00117607,-0.00033773,-0.00050891,0.00091206,-0.03646101,0.00241852
 ,-0.09707537,-0.03555466,0.02049745,-0.01379573,-0.00046366,-0.0013502
 2,-0.00519852,0.00111848,-0.00168157,0.00476231,0.00517576,0.00238155,
 -0.00435529,0.08867163,-0.00496413,0.22548644,-0.00048851,-0.00257832,
 -0.00134791,0.00011106,0.00030945,0.00017094,-0.00002795,-0.00023544,0
 .00042015,0.00002142,0.00061036,0.00004913,0.00136665,0.00178307,-0.00
 142357,-0.00008190,0.00006423,0.00032110,0.00000929,0.00019946,0.00003
 678,0.00055196,-0.00067336,-0.00094046,-0.02735434,-0.01757723,0.02552
 490,0.00999049,0.00506204,-0.00105630,-0.00094581,0.00051574,-0.000400
 70,-0.10054249,0.01781376,-0.04990099,0.02458750,-0.00170835,0.0082227
 8,-0.00369877,0.00856848,-0.00625415,0.08620895,-0.00051711,-0.0014506
 6,0.00011873,0.00011471,0.00027126,0.00005838,-0.00012055,-0.00000501,
 0.00000522,-0.00003211,0.00000382,-0.00001697,0.00010082,-0.00045270,0
 .00037468,0.00023086,-0.00001268,-0.00037107,0.00005500,-0.00008861,-0
 .00007854,-0.00019821,0.00007890,0.00009507,-0.00268034,0.00591246,-0.
 00800078,-0.00359840,-0.00162982,0.00102769,-0.00000816,-0.00035167,0.
 00030261,0.00400532,-0.04006847,0.02319710,0.01397395,-0.00899379,0.02
 493884,0.00340998,-0.00065002,0.00072888,-0.01683018,0.06687535,-0.000
 57362,0.00015228,-0.00039120,-0.00006614,-0.00027960,-0.00005152,0.000
 03621,-0.00029617,0.00009650,0.00003902,0.00024636,0.00004084,0.001214
 13,0.00153305,-0.00121563,0.00047797,-0.00060674,-0.00065909,-0.000235
 54,0.00026797,0.00006669,-0.00001676,-0.00046381,-0.00079876,-0.004123
 83,-0.01474400,0.02318798,0.00774782,0.00407191,-0.00133907,-0.0004558
 9,0.00057318,-0.00031222,-0.05139395,0.04541643,-0.13999750,-0.0080165
 7,0.00821903,-0.01756300,-0.00368367,0.00373293,-0.00371489,0.02367206
 ,-0.04370252,0.14764894,0.00063457,0.00169387,0.00084234,0.00024175,0.
 00015058,-0.00013990,-0.00016995,-0.00063289,-0.00040959,0.00024211,-0
 .00061719,-0.00021020,-0.00869100,-0.00567180,0.01765434,0.00048085,0.
 00065068,0.00099692,0.00017873,-0.00177714,-0.00087728,0.00092690,0.00
 201503,0.00227064,-0.06383123,0.00680936,-0.03039359,-0.06959250,-0.03
 107866,0.01031459,0.00009776,-0.00532921,0.00252663,-0.05014611,0.0162
 9532,-0.04058874,-0.00664597,-0.00225174,0.00218418,0.01441800,-0.0117
 5341,0.00901681,0.01876418,0.00144867,0.03171308,0.22168172,-0.0000265
 3,0.00679356,0.00319949,-0.00014397,-0.00088778,-0.00026004,0.00024474
 ,0.00041684,-0.00135447,0.00002924,-0.00062094,-0.00017106,0.01108803,
 0.00684950,-0.01062210,0.00003943,0.00039302,0.00031072,-0.00016407,0.
 00128986,-0.00044369,0.00077054,-0.00147684,-0.00264184,-0.00152702,-0
 .06212075,-0.02515676,-0.03212300,-0.00042183,0.00277130,-0.00184202,-
 0.00356814,0.00190119,0.00680471,0.00664204,0.00329950,-0.00202258,-0.
 00055609,-0.00123513,-0.01116010,-0.02768742,0.04376773,0.00404060,-0.
 01490689,0.00193422,0.08345102,0.15863609,0.00046599,-0.00620559,-0.00
 496048,0.00038715,0.00164464,0.00035900,-0.00003212,0.00113085,0.00083
 584,0.00009829,0.00131720,0.00042101,0.03011000,0.01115311,-0.02763360
 ,-0.00049747,0.00157513,0.00158857,0.00015233,0.00011990,0.00088814,0.
 00193915,-0.00547529,-0.00416742,0.01211219,-0.01292521,-0.09192049,-0
 .00335210,-0.00351597,0.01804919,-0.00039571,0.00060400,-0.00062406,-0
 .03317349,0.00659526,-0.00558753,0.00238200,0.00024748,0.00169197,0.00
 461644,0.04461937,-0.03044094,0.01378875,-0.00032157,-0.02212440,0.073
 10528,0.12205119,0.57082275,0.00025561,0.00019875,0.00000882,-0.000087
 07,-0.00011543,0.00009495,0.00007168,0.00024774,-0.00004795,-0.0000665
 1,-0.00009038,-0.00005039,-0.00474793,-0.00284760,0.00348049,0.0001553
 7,-0.00020900,-0.00034376,0.00007775,0.00008676,-0.00012187,-0.0004710
 7,0.00120295,0.00119937,0.00744821,0.01440946,0.02791256,0.00216590,0.
 00126430,-0.00393608,-0.00096476,-0.00000882,0.00027868,-0.00649758,0.
 00276491,-0.00256147,-0.00036747,-0.00037488,0.00023635,0.00052599,-0.
 00166676,0.00026583,0.01007262,-0.00621522,-0.00270412,-0.06297851,-0.
 05667504,-0.10150187,0.05551507,-0.00058537,0.00010602,0.00121758,-0.0
 0002920,-0.00021664,-0.00008674,0.00019015,-0.00143436,0.00033077,0.00
 003174,-0.00017811,-0.00028165,-0.00014736,0.00070548,-0.00073777,-0.0
 0004140,-0.00006345,0.00016458,-0.00016137,0.00011819,0.00018291,0.000
 13720,0.00009035,-0.00015487,0.00575662,0.00677419,0.01460972,0.001220
 99,-0.00124037,-0.00019871,0.00016782,0.00027843,-0.00094456,0.0026492
 7,-0.00046847,0.00089043,-0.00017942,0.00021830,-0.00010565,-0.0007142
 1,-0.00489678,0.00166441,-0.00301808,-0.00054813,0.00140322,-0.0533101
 0,-0.06935734,-0.16322581,0.04779957,0.07011686,0.00043722,0.00086999,
 -0.00010424,-0.00008597,0.00002089,-0.00000895,-0.00012267,0.00039758,
 -0.00015045,0.00002098,-0.00010340,0.00008140,0.00182920,0.00193333,-0
 .00067562,-0.00018101,0.00016872,0.00024917,0.00001906,-0.00016398,0.0
 0007044,0.00003555,-0.00040293,0.00000216,0.00018602,-0.00835682,-0.02
 493464,-0.00536523,-0.00109258,0.00227670,0.00013048,-0.00036535,0.000
 27853,0.00367186,-0.00119742,0.00256290,-0.00022143,0.00010259,-0.0004
 3357,-0.00000164,-0.00045950,0.00143255,-0.00633658,0.00136642,-0.0039
 2177,-0.07236991,-0.13771649,-0.40284581,0.07877993,0.14497541,0.42580
 343,-0.00046344,-0.00221281,-0.00040274,0.00015798,0.00033615,0.000145
 10,-0.00006519,0.00007522,0.00018870,-0.00007673,0.00011739,-0.0000067
 9,0.00016057,0.00004489,-0.00025867,-0.00028312,0.00032491,0.00027477,
 0.00014045,-0.00002943,0.00001515,0.00017482,-0.00008246,-0.00007760,-
 0.00484850,-0.00023531,0.00120532,0.00216367,0.00047610,0.00058579,-0.
 00021022,0.00006152,0.00000914,-0.13541800,0.01860869,0.02658759,-0.01
 476068,0.00248925,0.00742570,0.00393466,0.00153470,-0.00017599,-0.0234
 0870,0.00924898,-0.00247336,0.00802049,-0.00102789,0.00195127,0.000417
 68,0.00009615,-0.00074246,0.43011758,-0.00021700,0.00105553,0.00026382
 ,-0.00007081,-0.00026149,-0.00010377,0.00001423,-0.00008759,-0.0000985
 2,0.00004241,-0.00005103,0.00001204,-0.00002594,0.00001478,-0.00009174
 ,0.00002573,-0.00004863,0.00002381,-0.00003063,0.00004036,0.00001519,0
 .00000536,0.00001645,0.00002571,0.00125225,-0.00121209,0.00062107,-0.0
 0060881,0.00008817,-0.00035407,0.00004031,-0.00000433,-0.00005443,0.04
 577648,-0.09077811,0.00431322,-0.01835975,0.01528334,0.00212180,-0.003
 71858,-0.00120226,-0.00042910,0.00536992,-0.00476244,-0.00445453,-0.00
 139373,0.00085872,-0.00013866,0.00007050,0.00004473,0.00012543,0.06070
 909,0.62070074,0.00021789,0.00063726,0.00019492,-0.00002618,-0.0000730
 4,-0.00003474,0.00001467,-0.00000590,-0.00006837,0.00001906,-0.0000630
 9,-0.00000383,-0.00014184,-0.00016409,0.00010264,0.00007269,-0.0000364
 6,-0.00006955,-0.00000583,0.00000126,-0.00000348,-0.00007178,0.0000556
 1,0.00007751,0.00268774,0.00113706,-0.00180473,-0.00106673,-0.00044774
 ,0.00002558,0.00010463,-0.00004518,0.00002488,0.03124554,0.01226999,-0
 .09885584,0.01279490,-0.01128792,-0.00505729,-0.00067953,-0.00071257,0
 .00073491,-0.00279844,-0.00057803,0.02401796,-0.00791308,0.00059817,-0
 .00535367,-0.00124166,0.00034472,0.00047775,0.07302592,-0.03261820,0.6
 1362163,-0.00005599,0.00038672,0.00008077,-0.00002528,-0.00009622,-0.0
 0003620,0.00000551,-0.00002993,-0.00003393,0.00001766,-0.00001495,0.00
 000371,0.00000111,0.00001841,-0.00001573,0.00002427,-0.00003649,-0.000
 01440,-0.00002105,0.00001578,0.00000429,-0.00001012,0.00000478,0.00000
 188,0.00044581,-0.00047320,0.00030211,-0.00021654,0.00004750,-0.000131
 27,0.00001645,-0.00000188,-0.00001944,-0.02458221,-0.02398761,0.023673
 97,-0.00325005,0.00407498,-0.00003160,-0.00119508,-0.00032519,-0.00020
 462,0.00062999,-0.00146749,0.00055090,-0.00034944,0.00018132,-0.000264
 32,-0.00003301,0.00001019,0.00005535,-0.08347224,-0.07603536,0.0429823
 5,0.10059225,0.00002007,-0.00015637,-0.00003531,0.00000852,0.00003753,
 0.00001566,-0.00000274,0.00001325,0.00001893,-0.00000604,0.00000761,-0
 .00000535,0.00000150,-0.00001010,0.00001104,-0.00000757,0.00001279,0.0
 0000221,0.00000673,-0.00000694,-0.00000132,0.00000146,-0.00000090,-0.0
 0000003,-0.00011106,0.00020533,-0.00014949,0.00006044,-0.00003518,0.00
 004865,-0.00000201,-0.00000076,0.00001029,0.00987265,0.01283238,-0.010
 66880,0.00250657,-0.00080241,-0.00100864,0.00052909,0.00012747,0.00009
 047,-0.00040120,0.00053986,0.00023773,-0.00005836,-0.00006724,-0.00000
 476,-0.00002638,0.00000323,-0.00001048,-0.08941038,-0.24139477,0.11703
 941,0.08658604,0.24665525,0.00000950,-0.00016445,-0.00004233,0.0000092
 1,0.00003256,0.00001725,-0.00000297,0.00001378,0.00001657,-0.00000756,
 0.00000864,-0.00000204,0.00000882,-0.00000038,-0.00000340,-0.00001304,
 0.00001683,0.00000974,0.00000864,-0.00000490,-0.00000127,0.00000695,-0
 .00000540,-0.00000467,-0.00026790,0.00009997,-0.00000581,0.00014145,0.
 00001501,0.00004913,-0.00001205,0.00000328,0.00000519,0.00781641,0.007
 63815,-0.00657603,0.00055887,-0.00177044,0.00051605,0.00044073,0.00014
 268,0.00002997,-0.00106637,0.00015718,-0.00018090,0.00038380,-0.000038
 84,0.00011031,0.00003790,-0.00000013,-0.00003325,0.05017797,0.10886612
 ,-0.12059674,-0.06000472,-0.11977415,0.12352945,-0.00001370,0.00020169
 ,0.00006070,-0.00001427,-0.00004019,-0.00001986,0.00000192,-0.00001826
 ,-0.00002332,0.00000712,-0.00001660,-0.00000051,-0.00001619,0.00001429
 ,0.00005388,0.00005676,-0.00006870,-0.00006401,-0.00002480,0.00000125,
 -0.00000556,-0.00003351,0.00000677,-0.00000036,0.00050013,0.00009595,-
 0.00008314,-0.00021721,-0.00006110,-0.00005625,0.00002216,-0.00000648,
 0.00000248,-0.01374995,0.03207391,0.02535719,0.00193557,0.00147470,-0.
 00043265,-0.00021950,-0.00018221,-0.00004138,0.00270668,0.00001678,0.0
 0194095,-0.00070870,-0.00007517,-0.00034072,-0.00012840,0.00001392,0.0
 0006095,-0.05686801,-0.03908863,-0.03002295,0.00107451,-0.00774838,-0.
 00848012,0.06454419,-0.00002151,-0.00015003,-0.00003904,0.00000584,0.0
 0002471,0.00001180,-0.00000652,0.00000577,0.00001823,-0.00000731,0.000
 00672,-0.00000323,0.00000131,-0.00000350,-0.00001062,-0.00001892,0.000
 02015,0.00001718,0.00001077,-0.00000209,-0.00000013,0.00001091,-0.0000
 0307,-0.00000115,-0.00025313,0.00004670,-0.00001113,0.00011321,0.00001
 250,0.00003740,-0.00000987,0.00000394,0.00000194,0.00567078,-0.0028315
 6,-0.00383153,-0.00039970,0.00000189,0.00080120,0.00033072,0.00007810,
 -0.00000483,-0.00063440,-0.00016555,-0.00102103,0.00046643,-0.00009841
 ,0.00024761,0.00006799,-0.00000917,-0.00003312,-0.03008042,-0.23287857
 ,-0.13153961,-0.00319168,-0.01521822,-0.01516781,0.02802684,0.24239733
 ,-0.00000057,-0.00012016,-0.00003087,0.00000299,0.00002316,0.00001307,
 -0.00000520,0.00000345,0.00001969,-0.00000090,0.00001226,-0.00000591,0
 .00000678,0.00000673,-0.00002393,-0.00002008,0.00002229,0.00002027,0.0
 0001093,0.00000186,0.00000273,0.00001297,-0.00000613,-0.00000581,-0.00
 032000,-0.00012252,0.00015254,0.00013260,0.00004302,0.00001958,-0.0000
 1323,0.00000541,-0.00000283,0.00652177,-0.00718951,-0.00432159,-0.0001
 1173,-0.00115961,-0.00040090,0.00017052,0.00014321,-0.00004106,-0.0013
 1932,0.00092800,-0.00058762,0.00064554,-0.00010863,0.00017042,0.000033
 53,-0.00000182,-0.00006104,-0.02386705,-0.13022781,-0.15314983,0.00084
 871,0.01325517,0.01278888,0.02023553,0.14505674,0.15673274,0.00001796,
 0.00025495,0.00006559,-0.00001279,-0.00004718,-0.00001694,0.00000147,-
 0.00000452,-0.00002634,0.00000715,-0.00002660,-0.00000008,-0.00003758,
 -0.00005468,0.00004785,0.00003077,-0.00002276,-0.00002925,-0.00001085,
 0.00000050,-0.00000119,-0.00002986,0.00002154,0.00002672,0.00095171,0.
 00035730,-0.00062712,-0.00040835,-0.00015295,-0.00000970,0.00003611,-0
 .00001809,0.00000808,-0.03180081,0.01393597,-0.02340206,0.00025452,0.0
 0012854,-0.00149399,-0.00034783,-0.00035580,0.00017214,0.00152770,-0.0
 0093727,0.00635129,-0.00257363,0.00013777,-0.00155104,-0.00036355,0.00
 011289,0.00020032,-0.12541307,0.02624294,-0.11919736,0.01040345,-0.001
 81897,0.01025448,0.00114521,-0.00008132,-0.00296378,0.14662228,-0.0000
 0897,-0.00010587,-0.00003454,0.00000697,0.00001749,0.00000995,-0.00000
 261,0.00000561,0.00001195,-0.00000593,0.00000715,0.00000113,0.00001512
 ,0.00001460,-0.00001627,-0.00001415,0.00001253,0.00001231,0.00000503,-
 0.00000092,0.00000028,0.00001050,-0.00000710,-0.00000971,-0.00035497,-
 0.00009900,0.00019005,0.00015427,0.00004903,0.00001362,-0.00001478,0.0
 0000623,-0.00000036,0.00961981,-0.00339050,0.00829039,-0.00087641,0.00
 016810,0.00001944,0.00013954,0.00011028,-0.00004219,-0.00068054,0.0004
 0480,-0.00221991,0.00089329,-0.00010995,0.00050713,0.00011658,-0.00004
 296,-0.00005830,0.02895563,-0.06542151,0.04548835,0.01433427,-0.002741
 80,0.01993232,-0.01462038,0.00876236,-0.02056512,-0.03767225,0.0623614
 3,-0.00001408,-0.00007502,-0.00002915,0.00000323,0.00001301,0.00000590
 ,0.00000002,0.00000036,0.00001082,-0.00000437,0.00000931,0.00000027,0.
 00002283,0.00002414,-0.00001981,-0.00001086,0.00000462,0.00000924,0.00
 000128,0.00000057,0.00000063,0.00001106,-0.00000817,-0.00001210,-0.000
 35755,-0.00019852,0.00030172,0.00015808,0.00006974,-0.00001296,-0.0000
 1192,0.00000868,-0.00000674,0.01586558,-0.00694711,0.01519587,-0.00051
 779,0.00027621,0.00084023,0.00007143,0.00012997,-0.00008622,0.00063822
 ,-0.00022930,-0.00220134,0.00124812,-0.00008447,0.00072119,0.00018076,
 -0.00004604,-0.00006569,-0.13358777,0.05218263,-0.25427969,-0.00774782
 ,0.00092878,-0.00962610,-0.00814086,0.00547112,-0.01128851,0.13219239,
 -0.05153054,0.26054243||0.00116643,0.00161733,-0.00047517,-0.00049817,
 0.00025474,0.00039487,0.00051672,0.00032100,0.00092191,0.00057160,0.00
 058128,-0.00047110,0.00009391,0.00051403,0.00094351,0.00033601,-0.0006
 3517,-0.00047648,-0.00039119,-0.00070252,-0.00008910,-0.00037797,0.000
 18060,-0.00043305,0.00554649,0.00097390,-0.00471815,-0.00310624,-0.001
 36951,0.00012398,0.00063868,0.00087086,0.00003346,-0.00106870,0.001464
 60,-0.00032993,0.00305446,-0.00083243,-0.00089817,-0.00326850,-0.00179
 607,0.00131287,0.00389822,-0.00220429,-0.00008705,-0.00573572,0.001829
 14,0.00343456,0.00206591,-0.00113842,0.00037519,-0.00070138,-0.0002097
 9,-0.00008673,-0.00097375,-0.00032170,0.00002078,-0.00070151,0.0007546
 6,0.00062867,-0.00106530,-0.00015224,-0.00012486|||@


 ANYONE WHO IS NOT SHOCKED BY QUANTUM THEORY HAS
 NOT UNDERSTOOD IT. -- NIELS BOHR(1885-1962)
 Job cpu time:  0 days  0 hours 22 minutes 39.0 seconds.
 File lengths (MBytes):  RWF=    108 Int=      0 D2E=      0 Chk=      8 Scr=      1
 Normal termination of Gaussian 09 at Wed Sep 30 10:46:17 2015.
