 Entering Link 1 = C:\G09W\l1.exe PID=      3880.
  
 Copyright (c) 1988,1990,1992,1993,1995,1998,2003,2009, Gaussian, Inc.
                  All Rights Reserved.
  
 This is part of the Gaussian(R) 09 program.  It is based on
 the Gaussian(R) 03 system (copyright 2003, Gaussian, Inc.),
 the Gaussian(R) 98 system (copyright 1998, Gaussian, Inc.),
 the Gaussian(R) 94 system (copyright 1995, Gaussian, Inc.),
 the Gaussian 92(TM) system (copyright 1992, Gaussian, Inc.),
 the Gaussian 90(TM) system (copyright 1990, Gaussian, Inc.),
 the Gaussian 88(TM) system (copyright 1988, Gaussian, Inc.),
 the Gaussian 86(TM) system (copyright 1986, Carnegie Mellon
 University), and the Gaussian 82(TM) system (copyright 1983,
 Carnegie Mellon University). Gaussian is a federally registered
 trademark of Gaussian, Inc.
  
 This software contains proprietary and confidential information,
 including trade secrets, belonging to Gaussian, Inc.
  
 This software is provided under written license and may be
 used, copied, transmitted, or stored only in accord with that
 written license.
  
 The following legend is applicable only to US Government
 contracts under FAR:
  
                    RESTRICTED RIGHTS LEGEND
  
 Use, reproduction and disclosure by the US Government is
 subject to restrictions as set forth in subparagraphs (a)
 and (c) of the Commercial Computer Software - Restricted
 Rights clause in FAR 52.227-19.
  
 Gaussian, Inc.
 340 Quinnipiac St., Bldg. 40, Wallingford CT 06492
  
  
 ---------------------------------------------------------------
 Warning -- This program may not be used in any manner that
 competes with the business of Gaussian, Inc. or will provide
 assistance to any competitor of Gaussian, Inc.  The licensee
 of this program is prohibited from giving any competitor of
 Gaussian, Inc. access to this program.  By using this program,
 the user acknowledges that Gaussian, Inc. is engaged in the
 business of creating and licensing software in the field of
 computational chemistry and represents and warrants to the
 licensee that it is not a competitor of Gaussian, Inc. and that
 it will not use this program in any manner prohibited above.
 ---------------------------------------------------------------
  

 Cite this work as:
 Gaussian 09, Revision A.02,
 M. J. Frisch, G. W. Trucks, H. B. Schlegel, G. E. Scuseria, 
 M. A. Robb, J. R. Cheeseman, G. Scalmani, V. Barone, B. Mennucci, 
 G. A. Petersson, H. Nakatsuji, M. Caricato, X. Li, H. P. Hratchian, 
 A. F. Izmaylov, J. Bloino, G. Zheng, J. L. Sonnenberg, M. Hada, 
 M. Ehara, K. Toyota, R. Fukuda, J. Hasegawa, M. Ishida, T. Nakajima, 
 Y. Honda, O. Kitao, H. Nakai, T. Vreven, J. A. Montgomery, Jr., 
 J. E. Peralta, F. Ogliaro, M. Bearpark, J. J. Heyd, E. Brothers, 
 K. N. Kudin, V. N. Staroverov, R. Kobayashi, J. Normand, 
 K. Raghavachari, A. Rendell, J. C. Burant, S. S. Iyengar, J. Tomasi, 
 M. Cossi, N. Rega, J. M. Millam, M. Klene, J. E. Knox, J. B. Cross, 
 V. Bakken, C. Adamo, J. Jaramillo, R. Gomperts, R. E. Stratmann, 
 O. Yazyev, A. J. Austin, R. Cammi, C. Pomelli, J. W. Ochterski, 
 R. L. Martin, K. Morokuma, V. G. Zakrzewski, G. A. Voth, 
 P. Salvador, J. J. Dannenberg, S. Dapprich, A. D. Daniels, 
 O. Farkas, J. B. Foresman, J. V. Ortiz, J. Cioslowski, 
 and D. J. Fox, Gaussian, Inc., Wallingford CT, 2009.
 
 ******************************************
 Gaussian 09:  IA32W-G09RevA.02 11-Jun-2009
                23-Sep-2015 
 ******************************************
 ------------------------------------------------
 # freq=noraman x3lyp/6-31+g(d) geom=connectivity
 ------------------------------------------------
 1/10=4,30=1,38=1,57=2/1,3;
 2/12=2,17=6,18=5,40=1/2;
 3/5=1,6=6,7=11,11=2,16=1,25=1,30=1,71=2,74=-33/1,2,3;
 4//1;
 5/5=2,38=5,98=1/2;
 8/6=4,10=90,11=11/1;
 11/6=1,8=1,9=11,15=111,16=1/1,2,10;
 10/6=1/2;
 6/7=2,8=2,9=2,10=2,18=1,28=1/1;
 7/8=1,10=1,25=1/1,2,3,16;
 1/10=4,30=1/3;
 99//99;
 ---------
 tsb-3freq
 ---------
 Symbolic Z-matrix:
 Charge =  1 Multiplicity = 1
 C                    -2.56589   0.22364   0.09052 
 H                    -2.91133   0.63167  -0.87981 
 H                    -2.62415   1.00726   0.84503 
 H                    -3.23918  -0.58507   0.38423 
 C                    -1.18533  -0.34404  -0.02551 
 O                    -0.23214   0.70513  -0.582 
 O                    -0.25008  -0.73543   1.34861 
 H                    -0.69955  -1.46495   1.86936 
 O                    -1.14139  -1.37619  -0.91998 
 H                    -0.38841  -1.94985  -0.69797 
 C                    -0.14519   2.00638   0.08852 
 H                     0.71119   2.50826  -0.36031 
 H                    -1.05875   2.5552   -0.12642 
 H                    -0.0011    1.8491    1.1597 
 H                     0.73546   0.24486  -0.55834 
 C                     3.17035   0.01097  -0.02709 
 H                     3.40882   0.5865   -0.9225 
 H                     3.89546  -0.79813   0.09854 
 H                     3.17928   0.66246   0.8521 
 O                     1.85645  -0.55682  -0.22908 
 H                     1.4859   -0.92258   0.63732 
 

 GradGradGradGradGradGradGradGradGradGradGradGradGradGradGradGradGradGrad
 Berny optimization.
 Initialization pass.
 Trust Radius=3.00D-01 FncErr=1.00D-07 GrdErr=1.00D-07
 Number of steps in this run=   2 maximum allowed number of steps=   2.
 GradGradGradGradGradGradGradGradGradGradGradGradGradGradGradGradGradGrad

                          Input orientation:                          
 ---------------------------------------------------------------------
 Center     Atomic      Atomic             Coordinates (Angstroms)
 Number     Number       Type             X           Y           Z
 ---------------------------------------------------------------------
      1          6           0       -2.565893    0.223644    0.090521
      2          1           0       -2.911326    0.631674   -0.879806
      3          1           0       -2.624151    1.007262    0.845033
      4          1           0       -3.239176   -0.585071    0.384231
      5          6           0       -1.185327   -0.344043   -0.025507
      6          8           0       -0.232142    0.705130   -0.581997
      7          8           0       -0.250078   -0.735434    1.348609
      8          1           0       -0.699554   -1.464949    1.869363
      9          8           0       -1.141391   -1.376188   -0.919976
     10          1           0       -0.388411   -1.949849   -0.697966
     11          6           0       -0.145190    2.006385    0.088515
     12          1           0        0.711188    2.508260   -0.360314
     13          1           0       -1.058753    2.555200   -0.126421
     14          1           0       -0.001102    1.849104    1.159703
     15          1           0        0.735461    0.244862   -0.558337
     16          6           0        3.170347    0.010969   -0.027089
     17          1           0        3.408818    0.586497   -0.922502
     18          1           0        3.895462   -0.798127    0.098544
     19          1           0        3.179283    0.662461    0.852096
     20          8           0        1.856453   -0.556818   -0.229084
     21          1           0        1.485897   -0.922578    0.637320
 ---------------------------------------------------------------------
                    Distance matrix (angstroms):
                    1          2          3          4          5
     1  C    0.000000
     2  H    1.107857   0.000000
     3  H    1.089376   1.788465   0.000000
     4  H    1.092518   1.784865   1.768083   0.000000
     5  C    1.497229   2.158917   2.157332   2.108145   0.000000
     6  O    2.475985   2.696686   2.801679   3.411813   1.522829
     7  O    2.804570   3.730557   2.987775   3.144414   1.707651
     8  H    3.082020   4.104351   3.296233   3.070746   2.254537
     9  O    2.368496   2.676900   3.315821   2.593747   1.366502
    10  H    3.176037   3.614198   4.015456   3.340753   1.914651
    11  C    3.006322   3.237126   2.777735   4.046707   2.572819
    12  H    4.020197   4.112670   3.851018   5.072319   3.441584
    13  H    2.784724   2.774810   2.406305   3.856982   2.903759
    14  H    3.219227   3.756479   2.772743   4.124523   2.759892
    15  H    3.364581   3.681307   3.719905   4.168329   2.078495
    16  C    5.741386   6.172451   5.943854   6.450305   4.370118
    17  H    6.070836   6.320450   6.300630   6.875751   4.772491
    18  H    6.541650   7.023807   6.806029   7.143533   5.102548
    19  H    5.812022   6.332136   5.813672   6.555292   4.564324
    20  O    4.502045   4.956578   4.865787   5.132484   3.056001
    21  H    4.246153   4.904380   4.545319   4.743868   2.812380
                    6          7          8          9         10
     6  O    0.000000
     7  O    2.408897   0.000000
     8  H    3.307096   1.002699   0.000000
     9  O    2.296268   2.520215   2.825511   0.000000
    10  H    2.662101   2.383780   2.631182   0.972293   0.000000
    11  C    1.466428   3.019339   3.940672   3.667597   4.040977
    12  H    2.047020   3.790251   4.769491   4.339839   4.604114
    13  H    2.076919   3.695665   4.502641   4.011530   4.590369
    14  H    2.096563   2.603365   3.460405   4.003478   4.246526
    15  H    1.071756   2.359812   3.297946   2.506224   2.469684
    16  C    3.516634   3.761512   4.555326   4.616550   4.118209
    17  H    3.658771   4.504772   5.374166   4.955456   4.571916
    18  H    4.445226   4.330369   4.969369   5.171211   4.506935
    19  H    3.700846   3.736463   4.539392   5.095542   4.685648
    20  O    2.465622   2.637895   3.429483   3.183672   2.683244
    21  H    2.662297   1.885355   2.566767   3.087649   2.520180
                   11         12         13         14         15
    11  C    0.000000
    12  H    1.089362   0.000000
    13  H    1.087195   1.785945   0.000000
    14  H    1.092219   1.803412   1.808677   0.000000
    15  H    2.072903   2.272174   2.956927   2.463286   0.000000
    16  C    3.871413   3.520648   4.936422   3.852960   2.503118
    17  H    3.958435   3.359529   4.946587   4.190144   2.719590
    18  H    4.918562   4.613279   5.986623   4.828778   3.391891
    19  H    3.666239   3.311858   4.743512   3.408459   2.852363
    20  O    3.267637   3.274684   4.265398   3.341811   1.416941
    21  H    3.397125   3.655967   4.376469   3.188459   1.831848
                   16         17         18         19         20
    16  C    0.000000
    17  H    1.090809   0.000000
    18  H    1.093715   1.787887   0.000000
    19  H    1.094298   1.790993   1.792783   0.000000
    20  O    1.445511   2.048862   2.079213   2.098921   0.000000
    21  H    2.037234   2.899651   2.472200   2.329385   1.010816
                   21
    21  H    0.000000
 Stoichiometry    C4H13O4(1+)
 Framework group  C1[X(C4H13O4)]
 Deg. of freedom    57
 Full point group                 C1      NOp   1
 Largest Abelian subgroup         C1      NOp   1
 Largest concise Abelian subgroup C1      NOp   1
                         Standard orientation:                         
 ---------------------------------------------------------------------
 Center     Atomic      Atomic             Coordinates (Angstroms)
 Number     Number       Type             X           Y           Z
 ---------------------------------------------------------------------
      1          6           0       -2.565893    0.223644    0.090521
      2          1           0       -2.911326    0.631674   -0.879806
      3          1           0       -2.624151    1.007262    0.845033
      4          1           0       -3.239176   -0.585071    0.384231
      5          6           0       -1.185327   -0.344043   -0.025507
      6          8           0       -0.232142    0.705130   -0.581997
      7          8           0       -0.250078   -0.735434    1.348609
      8          1           0       -0.699554   -1.464949    1.869363
      9          8           0       -1.141391   -1.376188   -0.919976
     10          1           0       -0.388411   -1.949849   -0.697966
     11          6           0       -0.145190    2.006385    0.088515
     12          1           0        0.711188    2.508260   -0.360314
     13          1           0       -1.058753    2.555200   -0.126421
     14          1           0       -0.001102    1.849104    1.159703
     15          1           0        0.735461    0.244862   -0.558337
     16          6           0        3.170347    0.010969   -0.027089
     17          1           0        3.408818    0.586497   -0.922502
     18          1           0        3.895462   -0.798127    0.098544
     19          1           0        3.179283    0.662461    0.852096
     20          8           0        1.856453   -0.556818   -0.229084
     21          1           0        1.485897   -0.922578    0.637320
 ---------------------------------------------------------------------
 Rotational constants (GHZ):      2.7020470      1.1994342      1.0285454
 Standard basis: 6-31+G(d) (6D, 7F)
 There are   178 symmetry adapted basis functions of A   symmetry.
 Integral buffers will be    262144 words long.
 Raffenetti 2 integral format.
 Two-electron integral symmetry is turned on.
   178 basis functions,   308 primitive gaussians,   178 cartesian basis functions
    34 alpha electrons       34 beta electrons
       nuclear repulsion energy       453.9173775424 Hartrees.
 NAtoms=   21 NActive=   21 NUniq=   21 SFac= 7.50D-01 NAtFMM=   80 NAOKFM=F Big=F
 One-electron integrals computed using PRISM.
 NBasis=   178 RedAO= T  NBF=   178
 NBsUse=   178 1.00D-06 NBFU=   178
 Harris functional with IExCor= 3102 diagonalized for initial guess.
 ExpMin= 4.38D-02 ExpMax= 5.48D+03 ExpMxC= 8.25D+02 IAcc=2 IRadAn=         0 AccDes= 0.00D+00
 HarFok:  IExCor= 3102 AccDes= 0.00D+00 IRadAn=         0 IDoV= 1
 ScaDFX=  1.000000  1.000000  1.000000  1.000000
 FoFCou: FMM=F IPFlag=           0 FMFlag=      100000 FMFlg1=           0
         NFxFlg=           0 DoJE=T BraDBF=F KetDBF=T FulRan=T
         Omega=  0.000000  0.000000  1.000000  0.000000  0.000000 ICntrl=     500 IOpCl=  0
         NMat0=    1 NMatS0=    1 NMatT0=    0 NMatD0=    1 NMtDS0=    0 NMtDT0=    0
         I1Cent=           4 NGrid=           0.
 Petite list used in FoFCou.
 Initial guess orbital symmetries:
       Occupied  (A) (A) (A) (A) (A) (A) (A) (A) (A) (A) (A) (A)
                 (A) (A) (A) (A) (A) (A) (A) (A) (A) (A) (A) (A)
                 (A) (A) (A) (A) (A) (A) (A) (A) (A) (A)
       Virtual   (A) (A) (A) (A) (A) (A) (A) (A) (A) (A) (A) (A)
                 (A) (A) (A) (A) (A) (A) (A) (A) (A) (A) (A) (A)
                 (A) (A) (A) (A) (A) (A) (A) (A) (A) (A) (A) (A)
                 (A) (A) (A) (A) (A) (A) (A) (A) (A) (A) (A) (A)
                 (A) (A) (A) (A) (A) (A) (A) (A) (A) (A) (A) (A)
                 (A) (A) (A) (A) (A) (A) (A) (A) (A) (A) (A) (A)
                 (A) (A) (A) (A) (A) (A) (A) (A) (A) (A) (A) (A)
                 (A) (A) (A) (A) (A) (A) (A) (A) (A) (A) (A) (A)
                 (A) (A) (A) (A) (A) (A) (A) (A) (A) (A) (A) (A)
                 (A) (A) (A) (A) (A) (A) (A) (A) (A) (A) (A) (A)
                 (A) (A) (A) (A) (A) (A) (A) (A) (A) (A) (A) (A)
                 (A) (A) (A) (A) (A) (A) (A) (A) (A) (A) (A) (A)
 The electronic state of the initial guess is 1-A.
 Requested convergence on RMS density matrix=1.00D-08 within 128 cycles.
 Requested convergence on MAX density matrix=1.00D-06.
 Requested convergence on             energy=1.00D-06.
 No special actions if energy rises.
 SCF Done:  E(RX3LYP) =  -460.654717921     A.U. after   13 cycles
             Convg  =    0.3668D-08             -V/T =  2.0097
 Range of M.O.s used for correlation:     1   178
 NBasis=   178 NAE=    34 NBE=    34 NFC=     0 NFV=     0
 NROrb=    178 NOA=    34 NOB=    34 NVA=   144 NVB=   144

 **** Warning!!: The largest alpha MO coefficient is  0.39666712D+02

 Symmetrizing basis deriv contribution to polar:
 IMax=3 JMax=2 DiffMx= 0.00D+00
 G2DrvN: will do    22 centers at a time, making    1 passes doing MaxLOS=2.
 Calling FoFCou, ICntrl=  3107 FMM=F I1Cent=   0 AccDes= 0.00D+00.
 FoFDir/FoFCou used for L=0 through L=2.
 End of G2Drv Frequency-dependent properties file   721 does not exist.
 End of G2Drv Frequency-dependent properties file   722 does not exist.
          IDoAtm=111111111111111111111
          Differentiating once with respect to electric field.
                with respect to dipole field.
          Differentiating once with respect to nuclear coordinates.
          There are    66 degrees of freedom in the 1st order CPHF.  IDoFFX=5.
     63 vectors produced by pass  0 Test12= 7.42D-15 1.52D-09 XBig12= 4.08D+01 2.14D+00.
 AX will form    63 AO Fock derivatives at one time.
     63 vectors produced by pass  1 Test12= 7.42D-15 1.52D-09 XBig12= 4.48D+00 3.64D-01.
     63 vectors produced by pass  2 Test12= 7.42D-15 1.52D-09 XBig12= 2.50D-02 1.85D-02.
     63 vectors produced by pass  3 Test12= 7.42D-15 1.52D-09 XBig12= 5.68D-05 1.03D-03.
     63 vectors produced by pass  4 Test12= 7.42D-15 1.52D-09 XBig12= 6.44D-08 2.86D-05.
     36 vectors produced by pass  5 Test12= 7.42D-15 1.52D-09 XBig12= 4.33D-11 8.08D-07.
      3 vectors produced by pass  6 Test12= 7.42D-15 1.52D-09 XBig12= 3.85D-14 2.53D-08.
 Inverted reduced A of dimension   354 with in-core refinement.
 Isotropic polarizability for W=    0.000000       69.31 Bohr**3.
 End of Minotr Frequency-dependent properties file   721 does not exist.
 End of Minotr Frequency-dependent properties file   722 does not exist.

 **********************************************************************

            Population analysis using the SCF density.

 **********************************************************************

 Orbital symmetries:
       Occupied  (A) (A) (A) (A) (A) (A) (A) (A) (A) (A) (A) (A)
                 (A) (A) (A) (A) (A) (A) (A) (A) (A) (A) (A) (A)
                 (A) (A) (A) (A) (A) (A) (A) (A) (A) (A)
       Virtual   (A) (A) (A) (A) (A) (A) (A) (A) (A) (A) (A) (A)
                 (A) (A) (A) (A) (A) (A) (A) (A) (A) (A) (A) (A)
                 (A) (A) (A) (A) (A) (A) (A) (A) (A) (A) (A) (A)
                 (A) (A) (A) (A) (A) (A) (A) (A) (A) (A) (A) (A)
                 (A) (A) (A) (A) (A) (A) (A) (A) (A) (A) (A) (A)
                 (A) (A) (A) (A) (A) (A) (A) (A) (A) (A) (A) (A)
                 (A) (A) (A) (A) (A) (A) (A) (A) (A) (A) (A) (A)
                 (A) (A) (A) (A) (A) (A) (A) (A) (A) (A) (A) (A)
                 (A) (A) (A) (A) (A) (A) (A) (A) (A) (A) (A) (A)
                 (A) (A) (A) (A) (A) (A) (A) (A) (A) (A) (A) (A)
                 (A) (A) (A) (A) (A) (A) (A) (A) (A) (A) (A) (A)
                 (A) (A) (A) (A) (A) (A) (A) (A) (A) (A) (A) (A)
 The electronic state is 1-A.
 Alpha  occ. eigenvalues --  -19.46166 -19.40831 -19.39607 -19.38907 -10.59467
 Alpha  occ. eigenvalues --  -10.44872 -10.41072 -10.39236  -1.32167  -1.25482
 Alpha  occ. eigenvalues --   -1.21648  -1.16749  -0.96294  -0.91446  -0.86022
 Alpha  occ. eigenvalues --   -0.81219  -0.77108  -0.74878  -0.70105  -0.69419
 Alpha  occ. eigenvalues --   -0.65257  -0.63726  -0.62484  -0.61746  -0.60834
 Alpha  occ. eigenvalues --   -0.59715  -0.58360  -0.57484  -0.55222  -0.53338
 Alpha  occ. eigenvalues --   -0.53211  -0.51322  -0.49642  -0.47473
 Alpha virt. eigenvalues --   -0.18316  -0.15254  -0.12478  -0.12011  -0.11028
 Alpha virt. eigenvalues --   -0.10193  -0.08655  -0.08156  -0.07391  -0.06622
 Alpha virt. eigenvalues --   -0.06442  -0.06086  -0.04736  -0.03431  -0.03200
 Alpha virt. eigenvalues --   -0.01978  -0.00832  -0.00464   0.00645   0.01168
 Alpha virt. eigenvalues --    0.01926   0.02505   0.02880   0.03694   0.04600
 Alpha virt. eigenvalues --    0.05886   0.06313   0.07351   0.07912   0.08194
 Alpha virt. eigenvalues --    0.08924   0.10170   0.10649   0.10964   0.11702
 Alpha virt. eigenvalues --    0.12511   0.14252   0.14876   0.15145   0.15991
 Alpha virt. eigenvalues --    0.17334   0.18088   0.18772   0.19928   0.20895
 Alpha virt. eigenvalues --    0.21418   0.24366   0.25166   0.25926   0.28074
 Alpha virt. eigenvalues --    0.35073   0.46045   0.48830   0.49807   0.51583
 Alpha virt. eigenvalues --    0.52366   0.53554   0.56267   0.59146   0.59998
 Alpha virt. eigenvalues --    0.62065   0.66111   0.67783   0.75149   0.76840
 Alpha virt. eigenvalues --    0.80376   0.81715   0.83659   0.83775   0.84722
 Alpha virt. eigenvalues --    0.89931   0.90160   0.92539   0.92707   0.93685
 Alpha virt. eigenvalues --    0.97690   0.98282   1.00130   1.02378   1.04252
 Alpha virt. eigenvalues --    1.06035   1.07235   1.07624   1.12395   1.13821
 Alpha virt. eigenvalues --    1.14669   1.16312   1.20248   1.22783   1.24059
 Alpha virt. eigenvalues --    1.29747   1.31205   1.32083   1.37317   1.39576
 Alpha virt. eigenvalues --    1.41813   1.42677   1.45899   1.50892   1.53093
 Alpha virt. eigenvalues --    1.57023   1.59052   1.60377   1.62309   1.64194
 Alpha virt. eigenvalues --    1.66957   1.70599   1.74321   1.82019   1.82833
 Alpha virt. eigenvalues --    1.83978   1.87842   1.92689   1.95004   1.96425
 Alpha virt. eigenvalues --    1.99605   2.01761   2.02536   2.07415   2.11219
 Alpha virt. eigenvalues --    2.14198   2.16666   2.18368   2.20510   2.24913
 Alpha virt. eigenvalues --    2.29356   2.34468   2.35828   2.39982   2.45352
 Alpha virt. eigenvalues --    2.57185   2.62605   2.68340   2.70844   2.73068
 Alpha virt. eigenvalues --    2.82925   3.95177   4.00870   4.02805   4.06873
 Alpha virt. eigenvalues --    4.16255   4.19382   4.28056   4.41681
          Condensed to atoms (all electrons):
              1          2          3          4          5          6
     1  C    6.200676   0.399126   0.374997   0.355032  -0.466253  -0.103158
     2  H    0.399126   0.416466  -0.023382  -0.016706  -0.068743   0.002887
     3  H    0.374997  -0.023382   0.448710  -0.020202  -0.041417  -0.004084
     4  H    0.355032  -0.016706  -0.020202   0.414410  -0.009105   0.005678
     5  C   -0.466253  -0.068743  -0.041417  -0.009105   5.616885   0.074448
     6  O   -0.103158   0.002887  -0.004084   0.005678   0.074448   8.880843
     7  O   -0.094092   0.005191  -0.003586  -0.002920   0.262755  -0.148789
     8  H   -0.015812  -0.000039  -0.000032   0.000348   0.032213   0.007084
     9  O   -0.145195  -0.002426   0.007402  -0.005390   0.352409  -0.097489
    10  H    0.041012  -0.000008  -0.000224  -0.000084  -0.033810  -0.008223
    11  C    0.036839  -0.001288   0.002577  -0.000356  -0.122235   0.019261
    12  H   -0.001126  -0.000008   0.000110  -0.000002   0.006902  -0.031994
    13  H    0.008012   0.000013  -0.001578   0.000017  -0.010139  -0.030181
    14  H   -0.006424   0.000124  -0.000155   0.000006  -0.009162  -0.055318
    15  H    0.003061   0.000068  -0.000080  -0.000076   0.002627   0.023471
    16  C   -0.003525   0.000021  -0.000082   0.000010  -0.006307   0.006315
    17  H    0.000301   0.000000   0.000000   0.000000  -0.000210   0.001315
    18  H   -0.000238   0.000000   0.000000   0.000000  -0.000439  -0.000598
    19  H   -0.000176   0.000000   0.000000   0.000000  -0.002021  -0.000748
    20  O   -0.008007   0.000213  -0.000279   0.000054   0.023191  -0.081023
    21  H    0.004660  -0.000011   0.000012  -0.000003  -0.004090   0.009809
              7          8          9         10         11         12
     1  C   -0.094092  -0.015812  -0.145195   0.041012   0.036839  -0.001126
     2  H    0.005191  -0.000039  -0.002426  -0.000008  -0.001288  -0.000008
     3  H   -0.003586  -0.000032   0.007402  -0.000224   0.002577   0.000110
     4  H   -0.002920   0.000348  -0.005390  -0.000084  -0.000356  -0.000002
     5  C    0.262755   0.032213   0.352409  -0.033810  -0.122235   0.006902
     6  O   -0.148789   0.007084  -0.097489  -0.008223   0.019261  -0.031994
     7  O    8.567114   0.174000  -0.030470  -0.001168   0.014047  -0.000390
     8  H    0.174000   0.295351  -0.004882  -0.000437  -0.002129   0.000004
     9  O   -0.030470  -0.004882   8.252959   0.190564  -0.000369  -0.000006
    10  H   -0.001168  -0.000437   0.190564   0.278020   0.000241   0.000000
    11  C    0.014047  -0.002129  -0.000369   0.000241   5.289209   0.377846
    12  H   -0.000390   0.000004  -0.000006   0.000000   0.377846   0.435983
    13  H   -0.001596   0.000003  -0.000894  -0.000001   0.386846  -0.018305
    14  H    0.012757  -0.000241   0.001004  -0.000016   0.391373  -0.023379
    15  H    0.008975  -0.000093   0.004563   0.001062   0.002205  -0.001161
    16  C   -0.001680  -0.000408   0.002180  -0.000061  -0.003337   0.000411
    17  H   -0.000289   0.000000  -0.000097   0.000007  -0.001928   0.000009
    18  H    0.000149   0.000002   0.000026  -0.000005   0.000691   0.000002
    19  H    0.001091  -0.000014   0.000011   0.000011   0.002184  -0.000004
    20  O   -0.026957   0.001132   0.023198   0.003966  -0.006942  -0.001059
    21  H    0.034786  -0.001794  -0.005789   0.000929  -0.002531   0.000044
             13         14         15         16         17         18
     1  C    0.008012  -0.006424   0.003061  -0.003525   0.000301  -0.000238
     2  H    0.000013   0.000124   0.000068   0.000021   0.000000   0.000000
     3  H   -0.001578  -0.000155  -0.000080  -0.000082   0.000000   0.000000
     4  H    0.000017   0.000006  -0.000076   0.000010   0.000000   0.000000
     5  C   -0.010139  -0.009162   0.002627  -0.006307  -0.000210  -0.000439
     6  O   -0.030181  -0.055318   0.023471   0.006315   0.001315  -0.000598
     7  O   -0.001596   0.012757   0.008975  -0.001680  -0.000289   0.000149
     8  H    0.000003  -0.000241  -0.000093  -0.000408   0.000000   0.000002
     9  O   -0.000894   0.001004   0.004563   0.002180  -0.000097   0.000026
    10  H   -0.000001  -0.000016   0.001062  -0.000061   0.000007  -0.000005
    11  C    0.386846   0.391373   0.002205  -0.003337  -0.001928   0.000691
    12  H   -0.018305  -0.023379  -0.001161   0.000411   0.000009   0.000002
    13  H    0.431564  -0.025497   0.001247   0.000272   0.000002   0.000000
    14  H   -0.025497   0.438119  -0.000258  -0.000168   0.000011  -0.000001
    15  H    0.001247  -0.000258   0.230053  -0.012163  -0.001767   0.001157
    16  C    0.000272  -0.000168  -0.012163   5.139294   0.400305   0.390750
    17  H    0.000002   0.000011  -0.001767   0.400305   0.463946  -0.021396
    18  H    0.000000  -0.000001   0.001157   0.390750  -0.021396   0.459818
    19  H    0.000002   0.000016   0.000471   0.397779  -0.028939  -0.029742
    20  O   -0.000004   0.000787   0.133104   0.075703  -0.048719  -0.037957
    21  H    0.000007   0.000038  -0.013320  -0.017589   0.004060  -0.003094
             19         20         21
     1  C   -0.000176  -0.008007   0.004660
     2  H    0.000000   0.000213  -0.000011
     3  H    0.000000  -0.000279   0.000012
     4  H    0.000000   0.000054  -0.000003
     5  C   -0.002021   0.023191  -0.004090
     6  O   -0.000748  -0.081023   0.009809
     7  O    0.001091  -0.026957   0.034786
     8  H   -0.000014   0.001132  -0.001794
     9  O    0.000011   0.023198  -0.005789
    10  H    0.000011   0.003966   0.000929
    11  C    0.002184  -0.006942  -0.002531
    12  H   -0.000004  -0.001059   0.000044
    13  H    0.000002  -0.000004   0.000007
    14  H    0.000016   0.000787   0.000038
    15  H    0.000471   0.133104  -0.013320
    16  C    0.397779   0.075703  -0.017589
    17  H   -0.028939  -0.048719   0.004060
    18  H   -0.029742  -0.037957  -0.003094
    19  H    0.510252  -0.063605  -0.003786
    20  O   -0.063605   8.667258   0.173613
    21  H   -0.003786   0.173613   0.263611
 Mulliken atomic charges:
              1
     1  C   -0.579711
     2  H    0.288501
     3  H    0.261292
     4  H    0.279289
     5  C    0.402503
     6  O   -0.469509
     7  O   -0.768927
     8  H    0.515744
     9  O   -0.541307
    10  H    0.528227
    11  C   -0.382203
    12  H    0.256122
    13  H    0.260212
    14  H    0.276384
    15  H    0.616853
    16  C   -0.367721
    17  H    0.233387
    18  H    0.240876
    19  H    0.217219
    20  O   -0.827668
    21  H    0.560438
 Sum of Mulliken atomic charges =   1.00000
 Mulliken charges with hydrogens summed into heavy atoms:
              1
     1  C    0.249371
     5  C    0.402503
     6  O    0.147345
     7  O   -0.253183
     9  O   -0.013080
    11  C    0.410514
    16  C    0.323761
    20  O   -0.267230
 Sum of Mulliken charges with hydrogens summed into heavy atoms =   1.00000
 APT atomic charges:
              1
     1  C   -0.145558
     2  H    0.077691
     3  H    0.060215
     4  H    0.077432
     5  C    1.443843
     6  O   -0.984533
     7  O   -0.717425
     8  H    0.274061
     9  O   -0.699120
    10  H    0.333053
    11  C    0.373358
    12  H    0.053963
    13  H    0.054134
    14  H    0.045863
    15  H    0.701007
    16  C    0.483839
    17  H    0.025772
    18  H    0.011314
    19  H   -0.013906
    20  O   -0.843887
    21  H    0.388883
 Sum of APT charges=   1.00000
 APT Atomic charges with hydrogens summed into heavy atoms:
              1
     1  C    0.069781
     2  H    0.000000
     3  H    0.000000
     4  H    0.000000
     5  C    1.443843
     6  O   -0.283526
     7  O   -0.443364
     8  H    0.000000
     9  O   -0.366067
    10  H    0.000000
    11  C    0.527319
    12  H    0.000000
    13  H    0.000000
    14  H    0.000000
    15  H    0.000000
    16  C    0.507019
    17  H    0.000000
    18  H    0.000000
    19  H    0.000000
    20  O   -0.455005
    21  H    0.000000
 Sum of APT charges=   1.00000
 Electronic spatial extent (au):  <R**2>=           1246.5517
 Charge=              1.0000 electrons
 Dipole moment (field-independent basis, Debye):
    X=              0.1151    Y=              1.1652    Z=              1.9343  Tot=              2.2611
 Quadrupole moment (field-independent basis, Debye-Ang):
   XX=            -26.0475   YY=            -34.8775   ZZ=            -47.9341
   XY=             -0.4200   XZ=             -1.7721   YZ=             -4.1396
 Traceless Quadrupole moment (field-independent basis, Debye-Ang):
   XX=             10.2388   YY=              1.4089   ZZ=            -11.6477
   XY=             -0.4200   XZ=             -1.7721   YZ=             -4.1396
 Octapole moment (field-independent basis, Debye-Ang**2):
  XXX=             19.4956  YYY=             -1.4270  ZZZ=              6.6086  XYY=             -1.1881
  XXY=              3.1940  XXZ=              4.3761  XZZ=              0.2000  YZZ=             -6.5898
  YYZ=              6.0145  XYZ=              2.3921
 Hexadecapole moment (field-independent basis, Debye-Ang**3):
 XXXX=           -770.7588 YYYY=           -300.1772 ZZZZ=           -171.0070 XXXY=            -10.2998
 XXXZ=             -1.3747 YYYX=             -1.8735 YYYZ=             -8.3078 ZZZX=             -7.0442
 ZZZY=            -17.4481 XXYY=           -218.6932 XXZZ=           -188.6965 YYZZ=            -76.0819
 XXYZ=            -17.3187 YYXZ=             -7.3319 ZZXY=              5.0213
 N-N= 4.539173775424D+02 E-N=-1.973349436212D+03  KE= 4.562381718495D+02
  Exact polarizability:  78.911  -0.405  67.905   2.199  -1.657  61.103
 Approx polarizability:  92.404  -0.641  88.604   5.776  -2.631  89.428
 Calling FoFJK, ICntrl=    100127 FMM=F ISym2X=0 I1Cent= 0 IOpClX= 0 NMat=1 NMatS=1 NMatT=0.
 Full mass-weighted force constant matrix:
 Low frequencies --- -108.5426  -17.4571   -0.0009    0.0009    0.0009   10.1944
 Low frequencies ---   60.5435   79.2699  129.5725
 ******    1 imaginary frequencies (negative Signs) ****** 
 Diagonal vibrational polarizability:
      106.8153292      57.0770153     185.5533588
 Harmonic frequencies (cm**-1), IR intensities (KM/Mole), Raman scattering
 activities (A**4/AMU), depolarization ratios for plane and unpolarized
 incident light, reduced masses (AMU), force constants (mDyne/A),
 and normal coordinates:
                     1                      2                      3
                     A                      A                      A
 Frequencies --  -107.0177                47.9879               123.5008
 Red. masses --     5.7523                 2.7013                 2.6427
 Frc consts  --     0.0388                 0.0037                 0.0237
 IR Inten    --    47.7344                 5.6343                 3.1922
  Atom  AN      X      Y      Z        X      Y      Z        X      Y      Z
     1   6     0.00   0.06  -0.07     0.03   0.08   0.06     0.04  -0.02   0.17
     2   1    -0.05   0.14  -0.02     0.00   0.04   0.05    -0.07   0.01   0.23
     3   1     0.02   0.00  -0.01     0.12   0.13   0.01     0.12  -0.06   0.22
     4   1     0.04   0.02  -0.11    -0.01   0.14   0.14     0.08  -0.04   0.21
     5   6    -0.01   0.12  -0.22    -0.01  -0.01   0.01     0.03  -0.01   0.02
     6   8     0.04  -0.06  -0.01     0.02  -0.07  -0.03    -0.01   0.02  -0.03
     7   8     0.35  -0.07   0.25    -0.01  -0.05  -0.04     0.06  -0.04  -0.07
     8   1     0.37  -0.12   0.20    -0.03  -0.01  -0.01     0.07  -0.05  -0.07
     9   8    -0.02   0.02  -0.05    -0.10  -0.01   0.00    -0.04   0.03  -0.04
    10   1     0.12   0.16  -0.16    -0.28  -0.20   0.13    -0.01   0.03  -0.15
    11   6    -0.04  -0.05  -0.02     0.15  -0.08  -0.02    -0.11   0.09  -0.16
    12   1     0.03  -0.08   0.08     0.16  -0.14  -0.06    -0.16   0.11  -0.22
    13   1     0.00  -0.03  -0.15     0.18  -0.01   0.03    -0.16  -0.01  -0.20
    14   1    -0.18  -0.04   0.00     0.19  -0.10  -0.03    -0.08   0.21  -0.15
    15   1     0.20  -0.16   0.12     0.01  -0.13  -0.07     0.00   0.08  -0.03
    16   6    -0.17   0.00   0.04    -0.10   0.22   0.11     0.03  -0.09   0.19
    17   1    -0.15   0.03   0.06    -0.11   0.29   0.15     0.13   0.12   0.35
    18   1    -0.21  -0.03   0.03     0.05   0.37   0.19    -0.02  -0.14   0.06
    19   1    -0.19  -0.04   0.07    -0.35   0.21   0.13    -0.03  -0.30   0.35
    20   8    -0.19   0.01   0.00     0.04  -0.05  -0.07     0.02   0.01  -0.06
    21   1    -0.31   0.05   0.02     0.03  -0.11  -0.10    -0.07  -0.06  -0.12
                     4                      5                      6
                     A                      A                      A
 Frequencies --   134.9495               153.6289               170.2186
 Red. masses --     2.7872                 1.1057                 1.3544
 Frc consts  --     0.0299                 0.0154                 0.0231
 IR Inten    --     4.4030                 0.5762                 3.6343
  Atom  AN      X      Y      Z        X      Y      Z        X      Y      Z
     1   6     0.00  -0.10  -0.02     0.01   0.00   0.04     0.03   0.01  -0.01
     2   1     0.03  -0.09  -0.03    -0.03   0.02   0.06     0.02  -0.08  -0.04
     3   1    -0.10  -0.12   0.00     0.04  -0.01   0.06     0.05   0.09  -0.09
     4   1     0.05  -0.16  -0.08     0.01   0.01   0.06     0.03   0.05   0.08
     5   6     0.05   0.00   0.04     0.00   0.00  -0.01     0.03   0.00   0.03
     6   8    -0.02   0.08   0.00     0.00   0.00   0.00     0.03   0.01   0.04
     7   8     0.00   0.11   0.00     0.01  -0.03  -0.02    -0.02   0.01  -0.01
     8   1     0.02   0.10   0.01     0.02  -0.04  -0.03    -0.02   0.03   0.00
     9   8     0.14   0.01   0.04    -0.03   0.01  -0.03     0.04   0.00   0.02
    10   1     0.21   0.09   0.01    -0.01   0.02  -0.08     0.00  -0.03   0.06
    11   6     0.05   0.05   0.06    -0.02   0.00  -0.01    -0.08   0.03   0.01
    12   1    -0.13   0.15  -0.16     0.00  -0.01   0.02     0.23  -0.13   0.42
    13   1    -0.06  -0.03   0.35    -0.01   0.01  -0.05     0.12   0.17  -0.47
    14   1     0.35  -0.01   0.01    -0.06   0.01   0.00    -0.61   0.06   0.09
    15   1    -0.06   0.06  -0.12     0.01   0.01   0.00     0.01   0.01   0.03
    16   6    -0.14  -0.04   0.07     0.02   0.00   0.01    -0.03   0.01  -0.01
    17   1     0.06  -0.16   0.04     0.25  -0.48  -0.24    -0.03   0.02  -0.01
    18   1    -0.13   0.01   0.37    -0.08   0.00   0.56     0.01   0.06   0.03
    19   1    -0.38   0.09  -0.02    -0.10   0.44  -0.32    -0.12   0.02  -0.02
    20   8    -0.07  -0.12  -0.16     0.01   0.02   0.02     0.01  -0.08  -0.06
    21   1    -0.13  -0.10  -0.18     0.00   0.05   0.03     0.02  -0.10  -0.07
                     7                      8                      9
                     A                      A                      A
 Frequencies --   188.7568               221.8341               251.3076
 Red. masses --     2.8062                 2.2491                 1.5194
 Frc consts  --     0.0589                 0.0652                 0.0565
 IR Inten    --    10.3004                 5.6538                36.4635
  Atom  AN      X      Y      Z        X      Y      Z        X      Y      Z
     1   6    -0.05   0.01  -0.05     0.02  -0.09   0.11     0.03   0.03  -0.02
     2   1    -0.08  -0.14  -0.10    -0.20  -0.37   0.07    -0.01  -0.19  -0.10
     3   1    -0.03   0.13  -0.17     0.14   0.11  -0.09     0.06   0.21  -0.20
     4   1    -0.04   0.05   0.10     0.13  -0.05   0.48     0.03   0.10   0.19
     5   6    -0.05   0.00  -0.03     0.03  -0.02  -0.01     0.02   0.02   0.01
     6   8    -0.09   0.01  -0.09    -0.03   0.03  -0.07     0.00  -0.01   0.06
     7   8     0.06   0.07   0.01    -0.03   0.02  -0.05    -0.02  -0.10   0.02
     8   1     0.09   0.09   0.06    -0.02   0.01  -0.07    -0.09  -0.01   0.07
     9   8    -0.05  -0.07   0.06     0.06   0.01  -0.05     0.09   0.01  -0.02
    10   1    -0.13  -0.13   0.19     0.12   0.06  -0.11    -0.42  -0.43   0.56
    11   6     0.02  -0.09   0.11     0.14  -0.01  -0.01    -0.02   0.03  -0.03
    12   1     0.17  -0.16   0.31     0.32  -0.18   0.14    -0.10   0.06  -0.16
    13   1     0.14   0.08   0.07     0.29   0.19  -0.12    -0.07  -0.03   0.04
    14   1    -0.14  -0.28   0.11    -0.03  -0.08   0.00     0.11   0.11  -0.03
    15   1    -0.08   0.07  -0.20    -0.03   0.00  -0.06     0.05  -0.02   0.01
    16   6     0.11  -0.08   0.10    -0.07  -0.02  -0.01    -0.02  -0.03  -0.01
    17   1     0.36  -0.07   0.18    -0.12  -0.01  -0.02     0.05  -0.07  -0.02
    18   1    -0.05  -0.21   0.18    -0.11  -0.07  -0.10    -0.09  -0.08   0.02
    19   1     0.08  -0.13   0.14     0.05  -0.04   0.01     0.02  -0.01  -0.03
    20   8     0.04   0.15  -0.13    -0.12   0.07   0.10    -0.05   0.07  -0.03
    21   1    -0.05   0.10  -0.19    -0.14   0.14   0.13    -0.05   0.01  -0.05
                    10                     11                     12
                     A                      A                      A
 Frequencies --   273.8942               288.8194               316.2093
 Red. masses --     1.6714                 1.9503                 2.4386
 Frc consts  --     0.0739                 0.0959                 0.1437
 IR Inten    --    30.8199                 2.4802                41.3219
  Atom  AN      X      Y      Z        X      Y      Z        X      Y      Z
     1   6     0.09   0.05   0.05     0.07   0.06   0.02     0.10   0.10  -0.08
     2   1     0.23   0.49   0.19    -0.10  -0.26  -0.05     0.23   0.00  -0.16
     3   1     0.06  -0.28   0.39     0.21   0.30  -0.22     0.19   0.23  -0.21
     4   1     0.00  -0.04  -0.40     0.12   0.17   0.42    -0.05   0.27   0.02
     5   6     0.07   0.00   0.00     0.04   0.01  -0.05     0.04  -0.07   0.07
     6   8     0.02  -0.02  -0.06     0.04   0.00  -0.06     0.03   0.02   0.02
     7   8    -0.03   0.04  -0.06     0.03   0.09  -0.06    -0.02  -0.11  -0.06
     8   1    -0.05   0.08  -0.03     0.04   0.11  -0.03     0.02  -0.22  -0.18
     9   8     0.04  -0.04   0.01    -0.02  -0.01  -0.02    -0.03  -0.10   0.14
    10   1    -0.15  -0.21   0.23    -0.05  -0.04  -0.02     0.45   0.33  -0.39
    11   6    -0.04  -0.07   0.03    -0.14  -0.07   0.09    -0.01   0.03   0.00
    12   1    -0.01  -0.02   0.14    -0.32   0.19   0.04    -0.05   0.07  -0.05
    13   1    -0.03  -0.06   0.00    -0.29  -0.24   0.29    -0.03   0.00   0.04
    14   1    -0.12  -0.14   0.03     0.02  -0.19   0.05     0.05   0.07   0.00
    15   1     0.06  -0.02  -0.05     0.05  -0.01   0.03     0.05   0.09   0.01
    16   6    -0.05  -0.01   0.00    -0.01   0.00  -0.01    -0.05   0.00   0.00
    17   1    -0.03  -0.03  -0.01    -0.09   0.00  -0.02     0.02  -0.01   0.02
    18   1    -0.09  -0.06  -0.02     0.04   0.04  -0.03    -0.11  -0.05   0.02
    19   1     0.00  -0.02   0.00    -0.01   0.01  -0.01    -0.03  -0.01   0.01
    20   8    -0.08   0.06   0.02     0.01  -0.08   0.06    -0.08   0.09  -0.03
    21   1    -0.09   0.07   0.02     0.02  -0.04   0.08    -0.11   0.09  -0.04
                    13                     14                     15
                     A                      A                      A
 Frequencies --   374.0766               406.6036               487.5680
 Red. masses --     4.5260                 3.6014                 4.8839
 Frc consts  --     0.3732                 0.3508                 0.6840
 IR Inten    --   118.8009                61.8995                12.7363
  Atom  AN      X      Y      Z        X      Y      Z        X      Y      Z
     1   6     0.07  -0.01   0.05     0.03   0.15   0.08     0.11  -0.13   0.00
     2   1    -0.06  -0.08   0.07    -0.04   0.31   0.16    -0.03  -0.12   0.05
     3   1     0.14   0.03   0.01     0.37   0.11   0.15     0.07  -0.20   0.07
     4   1     0.12   0.00   0.20    -0.13   0.32   0.18     0.24  -0.25  -0.01
     5   6     0.06   0.01  -0.01    -0.09  -0.06  -0.07     0.06  -0.05  -0.09
     6   8     0.11  -0.18   0.11    -0.14   0.05  -0.15     0.18   0.18  -0.16
     7   8    -0.21   0.13   0.18    -0.09  -0.10   0.18    -0.11  -0.05   0.21
     8   1    -0.18   0.01   0.04    -0.15  -0.15   0.06    -0.22  -0.11   0.04
     9   8     0.00   0.06  -0.11     0.18  -0.03  -0.04    -0.19  -0.12   0.00
    10   1     0.24   0.23  -0.48     0.34   0.19   0.02    -0.35  -0.34  -0.04
    11   6    -0.02  -0.15  -0.03    -0.04  -0.01  -0.01     0.02   0.17   0.06
    12   1    -0.09  -0.09  -0.10    -0.02  -0.02   0.01    -0.01   0.35   0.20
    13   1    -0.08  -0.26  -0.05    -0.01   0.06   0.08    -0.04   0.08   0.08
    14   1     0.02  -0.02  -0.02     0.00  -0.16  -0.04    -0.04   0.01   0.04
    15   1     0.24  -0.14   0.10    -0.24   0.09  -0.21     0.15   0.17  -0.05
    16   6     0.04   0.01  -0.01     0.04   0.02  -0.01     0.00   0.01  -0.02
    17   1     0.18   0.01   0.03     0.00   0.04   0.00    -0.01   0.01  -0.02
    18   1    -0.10  -0.11   0.03     0.11   0.08  -0.01     0.01   0.02  -0.02
    19   1    -0.01  -0.05   0.02     0.00   0.01  -0.01    -0.01   0.01  -0.02
    20   8    -0.03   0.13  -0.16     0.07  -0.06  -0.01     0.00   0.00  -0.03
    21   1    -0.05   0.04  -0.18     0.08   0.00   0.01    -0.03   0.02  -0.03
                    16                     17                     18
                     A                      A                      A
 Frequencies --   503.4302               532.9159               675.3586
 Red. masses --     3.3699                 3.7303                 1.7864
 Frc consts  --     0.5032                 0.6242                 0.4801
 IR Inten    --    16.2126                18.6967                99.7911
  Atom  AN      X      Y      Z        X      Y      Z        X      Y      Z
     1   6    -0.14  -0.01   0.04     0.09  -0.04  -0.06    -0.09   0.02   0.02
     2   1    -0.36  -0.11   0.07     0.45  -0.24  -0.26     0.02   0.05   0.00
     3   1    -0.32  -0.04   0.06    -0.28   0.08  -0.22     0.00   0.06  -0.01
     4   1     0.15  -0.23   0.10     0.03  -0.06  -0.24    -0.25   0.14   0.01
     5   6    -0.01   0.20  -0.04     0.12  -0.02   0.27    -0.08  -0.13   0.07
     6   8     0.14  -0.01  -0.12    -0.08   0.00  -0.15     0.12   0.04  -0.03
     7   8    -0.06  -0.13  -0.05     0.03  -0.06   0.09     0.04  -0.02  -0.02
     8   1    -0.21  -0.13  -0.17    -0.03  -0.07   0.04    -0.25   0.60   0.59
     9   8     0.07   0.09   0.18    -0.04   0.23  -0.01     0.03   0.01  -0.04
    10   1     0.22   0.32   0.25    -0.18  -0.04  -0.25     0.07   0.05  -0.09
    11   6    -0.03  -0.09  -0.03    -0.04  -0.11  -0.05     0.01  -0.02  -0.01
    12   1    -0.07   0.10   0.12    -0.02  -0.04   0.08    -0.03   0.13   0.08
    13   1    -0.09  -0.19  -0.02    -0.03  -0.07   0.01    -0.03  -0.09  -0.01
    14   1    -0.10  -0.19  -0.03    -0.08  -0.24  -0.06    -0.03  -0.03   0.00
    15   1     0.21  -0.10   0.05    -0.13   0.05  -0.24     0.08   0.03   0.09
    16   6     0.02   0.01   0.00    -0.01   0.00   0.00    -0.02  -0.01   0.00
    17   1     0.03   0.01   0.00    -0.03   0.00   0.00     0.00  -0.01   0.00
    18   1    -0.01  -0.01   0.01     0.01   0.02  -0.01    -0.05  -0.03   0.00
    19   1    -0.01   0.00   0.00     0.01   0.01  -0.01    -0.01  -0.01   0.00
    20   8     0.00   0.01  -0.02     0.00  -0.01   0.03    -0.02   0.04  -0.01
    21   1     0.00  -0.03  -0.03     0.01   0.02   0.03     0.06  -0.11  -0.04
                    19                     20                     21
                     A                      A                      A
 Frequencies --   697.3568               879.9553               917.0392
 Red. masses --     1.6502                 1.0966                 3.3808
 Frc consts  --     0.4728                 0.5003                 1.6751
 IR Inten    --   137.6685               207.0561               161.3509
  Atom  AN      X      Y      Z        X      Y      Z        X      Y      Z
     1   6     0.11  -0.03  -0.02    -0.01   0.00   0.00     0.15  -0.14  -0.08
     2   1     0.01  -0.04   0.01     0.02   0.00  -0.01     0.06   0.11   0.06
     3   1     0.05  -0.06   0.00    -0.02   0.02  -0.01     0.70  -0.21   0.02
     4   1     0.23  -0.12  -0.02    -0.03   0.02   0.00    -0.02   0.06   0.09
     5   6     0.06   0.10  -0.08     0.01   0.01   0.02    -0.19  -0.10  -0.11
     6   8    -0.10  -0.02   0.03    -0.01   0.00  -0.03     0.02   0.11   0.06
     7   8     0.00  -0.06  -0.02     0.01   0.02   0.01    -0.01   0.02  -0.02
     8   1    -0.51   0.58   0.42     0.00  -0.11  -0.17     0.23  -0.09   0.05
     9   8    -0.04   0.00   0.04     0.01  -0.02  -0.01    -0.02   0.17   0.12
    10   1     0.10   0.14  -0.06     0.00  -0.03  -0.02    -0.11   0.12   0.27
    11   6    -0.01   0.02   0.01     0.00   0.01  -0.01    -0.01  -0.14  -0.07
    12   1     0.03  -0.12  -0.07     0.02  -0.03   0.00    -0.02  -0.08  -0.04
    13   1     0.03   0.09   0.03     0.03   0.07   0.04     0.04  -0.05  -0.03
    14   1     0.04   0.00   0.00     0.02  -0.05  -0.02     0.02  -0.04  -0.05
    15   1    -0.07  -0.01   0.02    -0.01  -0.02   0.40    -0.06   0.08   0.20
    16   6     0.02   0.01   0.00    -0.02  -0.01   0.01    -0.02  -0.01   0.00
    17   1     0.01   0.00  -0.01    -0.04  -0.07  -0.04    -0.01  -0.01   0.00
    18   1     0.02   0.01   0.00    -0.05  -0.04  -0.01    -0.01   0.00   0.00
    19   1     0.01   0.01   0.00     0.04   0.02  -0.01    -0.01   0.00   0.00
    20   8     0.01   0.00   0.00    -0.01   0.05   0.02     0.00   0.01   0.00
    21   1     0.09  -0.17  -0.03     0.36  -0.77  -0.20     0.08  -0.12  -0.03
                    22                     23                     24
                     A                      A                      A
 Frequencies --   996.3101              1006.0735              1037.7221
 Red. masses --     4.7523                 3.9048                 1.6226
 Frc consts  --     2.7793                 2.3287                 1.0295
 IR Inten    --    38.9554               238.2948                67.2044
  Atom  AN      X      Y      Z        X      Y      Z        X      Y      Z
     1   6    -0.03   0.11   0.00     0.01  -0.05   0.07     0.09   0.00   0.12
     2   1    -0.26  -0.07   0.01     0.44  -0.08  -0.09     0.54  -0.29  -0.16
     3   1    -0.38   0.02   0.07    -0.03   0.14  -0.13    -0.36   0.19  -0.13
     4   1     0.30  -0.19  -0.02    -0.27   0.12  -0.12     0.01  -0.08  -0.26
     5   6     0.08   0.04   0.03    -0.03   0.03  -0.01    -0.12   0.04  -0.03
     6   8     0.00   0.31   0.15     0.00   0.05  -0.01     0.02   0.01   0.00
     7   8     0.02  -0.01   0.03     0.00   0.00  -0.01    -0.01   0.00   0.00
     8   1    -0.17   0.02  -0.10    -0.01   0.00  -0.03     0.07  -0.02   0.03
     9   8    -0.01  -0.13  -0.06     0.00  -0.02  -0.02    -0.01  -0.04  -0.05
    10   1     0.01  -0.14  -0.14     0.02   0.05   0.11     0.16   0.32   0.36
    11   6    -0.03  -0.32  -0.15    -0.02  -0.02  -0.02     0.01  -0.01   0.00
    12   1    -0.01  -0.32  -0.12     0.02  -0.05   0.00    -0.01   0.04   0.01
    13   1     0.10  -0.06  -0.08     0.05   0.14   0.09    -0.01  -0.05  -0.02
    14   1     0.05  -0.08  -0.12     0.04  -0.05  -0.03    -0.02  -0.01   0.00
    15   1    -0.07   0.31  -0.09     0.17  -0.14   0.36    -0.02  -0.01   0.04
    16   6     0.00  -0.01   0.00     0.33   0.16   0.04    -0.06  -0.03  -0.01
    17   1    -0.05   0.00  -0.01     0.24   0.09  -0.02     0.00   0.00   0.02
    18   1     0.07   0.05   0.00     0.10  -0.02   0.04    -0.04  -0.01   0.01
    19   1    -0.01   0.02  -0.02     0.21   0.09   0.07    -0.07  -0.04   0.00
    20   8     0.00  -0.01   0.01    -0.26  -0.13  -0.04     0.06   0.02   0.00
    21   1     0.02  -0.03  -0.01    -0.22  -0.05   0.04     0.07   0.07   0.02
                    25                     26                     27
                     A                      A                      A
 Frequencies --  1089.5032              1139.6643              1161.6817
 Red. masses --     1.5552                 1.1313                 1.2159
 Frc consts  --     1.0876                 0.8657                 0.9668
 IR Inten    --    52.6735                62.8899                 5.1028
  Atom  AN      X      Y      Z        X      Y      Z        X      Y      Z
     1   6     0.08   0.11  -0.06     0.00  -0.01   0.01    -0.01   0.01   0.02
     2   1    -0.36  -0.12   0.01     0.06  -0.01  -0.01     0.04  -0.04  -0.02
     3   1    -0.24  -0.14   0.17     0.01   0.02  -0.02    -0.09   0.04  -0.01
     4   1     0.60  -0.31   0.01    -0.03   0.01  -0.01     0.00  -0.02  -0.04
     5   6    -0.09  -0.07   0.06    -0.01   0.01  -0.01     0.01  -0.02  -0.03
     6   8     0.00  -0.03  -0.02    -0.01   0.00   0.01     0.03  -0.02   0.00
     7   8    -0.01   0.00  -0.01     0.00   0.00   0.00    -0.02   0.00  -0.01
     8   1     0.35  -0.04   0.26    -0.01   0.00  -0.01     0.17   0.00   0.16
     9   8     0.01   0.00  -0.02     0.00   0.00   0.00     0.01   0.02   0.02
    10   1     0.05   0.11   0.11     0.02   0.03   0.02    -0.03  -0.07  -0.08
    11   6     0.01   0.03   0.01     0.04  -0.01   0.02    -0.08   0.03  -0.03
    12   1     0.01   0.08   0.05    -0.06   0.13  -0.01     0.12  -0.28   0.01
    13   1    -0.01  -0.02   0.01    -0.06  -0.26  -0.18     0.11   0.50   0.31
    14   1    -0.02   0.01   0.01    -0.08   0.16   0.06     0.17  -0.28  -0.11
    15   1    -0.05   0.00   0.04    -0.05   0.00  -0.33     0.17   0.12   0.19
    16   6     0.05   0.02   0.01     0.02  -0.01   0.08    -0.01  -0.03   0.04
    17   1     0.02   0.00  -0.01    -0.46  -0.20  -0.16    -0.31  -0.11  -0.09
    18   1     0.02   0.00   0.00     0.21   0.11  -0.19     0.14   0.09  -0.10
    19   1     0.05   0.03   0.01     0.31   0.24  -0.10     0.10   0.12  -0.07
    20   8    -0.06  -0.01  -0.01    -0.01   0.02  -0.01     0.03   0.01  -0.02
    21   1     0.01  -0.09  -0.02    -0.28  -0.23  -0.23    -0.24   0.08  -0.08
                    28                     29                     30
                     A                      A                      A
 Frequencies --  1190.3973              1193.8291              1231.4829
 Red. masses --     1.2944                 1.4053                 1.7702
 Frc consts  --     1.0807                 1.1801                 1.5817
 IR Inten    --     6.8104                35.6529               229.2929
  Atom  AN      X      Y      Z        X      Y      Z        X      Y      Z
     1   6     0.00  -0.01  -0.01     0.00   0.03   0.03     0.00  -0.06  -0.07
     2   1    -0.01   0.03   0.01     0.02  -0.09  -0.03    -0.08   0.18   0.06
     3   1     0.06  -0.02   0.01    -0.18   0.06  -0.01     0.32  -0.13   0.04
     4   1     0.00   0.01   0.03     0.03  -0.04  -0.09    -0.02   0.06   0.18
     5   6     0.00   0.02   0.02     0.01  -0.06  -0.06    -0.01   0.09   0.15
     6   8    -0.01   0.01   0.02     0.01   0.01  -0.06     0.04   0.00  -0.05
     7   8     0.00   0.00   0.00    -0.01   0.00   0.00     0.01  -0.01   0.01
     8   1     0.02   0.00   0.02     0.02   0.00   0.02    -0.02  -0.01  -0.02
     9   8     0.00  -0.01  -0.01     0.02   0.04   0.04    -0.04  -0.05  -0.09
    10   1     0.02   0.03   0.03    -0.06  -0.12  -0.15     0.16   0.40   0.48
    11   6     0.00   0.01  -0.04    -0.04  -0.04   0.11    -0.06  -0.02   0.05
    12   1     0.03   0.11   0.12    -0.08  -0.41  -0.38    -0.02  -0.32  -0.20
    13   1    -0.02   0.01   0.10     0.10   0.06  -0.26     0.10   0.20  -0.06
    14   1    -0.03  -0.18  -0.06     0.14   0.55   0.17     0.15   0.25   0.07
    15   1    -0.01  -0.06  -0.03     0.03   0.02   0.07     0.10   0.01   0.01
    16   6    -0.07   0.10   0.04    -0.02   0.04   0.01     0.00  -0.01   0.02
    17   1     0.15  -0.21  -0.10     0.10  -0.06  -0.02    -0.11  -0.03  -0.02
    18   1    -0.54  -0.35  -0.20    -0.20  -0.13  -0.05     0.04   0.02  -0.03
    19   1     0.59   0.03   0.09     0.18  -0.01   0.04     0.01   0.04  -0.02
    20   8     0.04  -0.05  -0.02     0.01  -0.02  -0.01     0.01   0.00  -0.01
    21   1     0.00   0.05   0.01     0.01   0.01   0.01    -0.02   0.08   0.01
                    31                     32                     33
                     A                      A                      A
 Frequencies --  1255.0534              1322.1418              1378.0298
 Red. masses --     1.3119                 1.2649                 1.6508
 Frc consts  --     1.2175                 1.3027                 1.8469
 IR Inten    --   145.1608                58.5653                58.4255
  Atom  AN      X      Y      Z        X      Y      Z        X      Y      Z
     1   6    -0.03  -0.03   0.01     0.02   0.00  -0.01     0.00   0.01   0.00
     2   1     0.09   0.10   0.02     0.02   0.01  -0.01    -0.26   0.03   0.09
     3   1     0.07   0.05  -0.06     0.07  -0.03   0.02    -0.26   0.03  -0.04
     4   1    -0.12   0.06   0.04     0.07  -0.03   0.02    -0.21   0.16  -0.04
     5   6     0.07   0.09  -0.01    -0.05   0.06   0.04     0.16  -0.12  -0.07
     6   8    -0.02   0.03  -0.01    -0.05   0.01  -0.03    -0.04   0.00   0.00
     7   8    -0.07  -0.03  -0.02     0.01  -0.01   0.00    -0.01   0.01   0.01
     8   1     0.70  -0.07   0.60    -0.08   0.03  -0.03     0.05  -0.02   0.03
     9   8     0.00  -0.02   0.00     0.02  -0.02   0.00    -0.05   0.04  -0.01
    10   1     0.00  -0.05  -0.10    -0.06  -0.20  -0.21     0.09   0.37   0.48
    11   6     0.02  -0.02   0.01     0.05  -0.02   0.01     0.04   0.00  -0.01
    12   1    -0.03   0.03  -0.03    -0.06   0.16   0.00     0.01   0.03  -0.03
    13   1    -0.02  -0.13  -0.09    -0.02  -0.18  -0.06    -0.06  -0.17  -0.02
    14   1    -0.04   0.04   0.02    -0.13   0.10   0.05    -0.12  -0.06   0.00
    15   1     0.02  -0.04   0.02     0.04   0.00   0.74    -0.01   0.23   0.30
    16   6     0.00   0.00  -0.02    -0.01  -0.03   0.04     0.00  -0.01   0.04
    17   1     0.05   0.03   0.02    -0.21  -0.06  -0.04    -0.11  -0.06  -0.02
    18   1    -0.02  -0.01   0.03     0.06   0.02  -0.06     0.03   0.01  -0.06
    19   1    -0.06  -0.04   0.01     0.02   0.08  -0.04     0.06   0.07  -0.02
    20   8     0.01   0.00   0.01     0.03   0.00  -0.05    -0.02  -0.01  -0.03
    21   1     0.01  -0.10  -0.02    -0.03   0.38   0.11     0.25   0.17   0.14
                    34                     35                     36
                     A                      A                      A
 Frequencies --  1452.3383              1469.0449              1479.1753
 Red. masses --     1.3356                 1.2278                 1.1220
 Frc consts  --     1.6598                 1.5612                 1.4464
 IR Inten    --    43.9892                17.2021                84.7412
  Atom  AN      X      Y      Z        X      Y      Z        X      Y      Z
     1   6    -0.14   0.05   0.01     0.03  -0.01   0.00     0.01  -0.02   0.01
     2   1     0.53  -0.09  -0.27    -0.06  -0.02   0.03    -0.05   0.13   0.09
     3   1     0.44  -0.06   0.16    -0.05  -0.02   0.00    -0.03   0.14  -0.15
     4   1     0.39  -0.34   0.12    -0.08   0.08  -0.01     0.02  -0.05  -0.06
     5   6     0.05  -0.04  -0.03    -0.04   0.04   0.01    -0.01   0.01  -0.01
     6   8     0.00   0.00   0.01     0.04   0.01   0.01     0.01  -0.01   0.00
     7   8     0.00   0.00   0.00     0.00   0.00   0.00     0.00   0.00   0.00
     8   1     0.01   0.00   0.01     0.03  -0.01   0.01     0.05  -0.01   0.03
     9   8    -0.01   0.01   0.00     0.01  -0.01   0.00     0.00   0.00   0.01
    10   1     0.01   0.07   0.10    -0.03  -0.11  -0.13    -0.01  -0.05  -0.08
    11   6     0.00   0.01   0.00    -0.02   0.07   0.03    -0.02  -0.05  -0.02
    12   1     0.00  -0.02  -0.03     0.08  -0.37  -0.25    -0.06   0.25   0.22
    13   1    -0.01  -0.03  -0.04    -0.13  -0.24  -0.24     0.14   0.30   0.13
    14   1    -0.01  -0.06  -0.01     0.06  -0.46  -0.06     0.09   0.31   0.02
    15   1    -0.04   0.07   0.00    -0.17  -0.08  -0.11    -0.07  -0.18  -0.21
    16   6     0.00  -0.01   0.02    -0.02  -0.03   0.04     0.01  -0.02   0.06
    17   1    -0.01  -0.02   0.01     0.08   0.01   0.09    -0.15   0.01   0.03
    18   1     0.04   0.02  -0.05     0.15   0.10  -0.11    -0.03  -0.09  -0.18
    19   1     0.05   0.06  -0.03     0.16   0.17  -0.10    -0.08   0.21  -0.12
    20   8    -0.02   0.00  -0.02    -0.04   0.00  -0.03    -0.03   0.01  -0.03
    21   1     0.23   0.06   0.10     0.41   0.11   0.18     0.53   0.11   0.22
                    37                     38                     39
                     A                      A                      A
 Frequencies --  1494.1944              1497.3405              1502.9340
 Red. masses --     1.0692                 1.1003                 1.0481
 Frc consts  --     1.4065                 1.4535                 1.3948
 IR Inten    --    25.7176                 1.5278                22.1371
  Atom  AN      X      Y      Z        X      Y      Z        X      Y      Z
     1   6    -0.01  -0.04  -0.01     0.00   0.02   0.02     0.01   0.00  -0.04
     2   1     0.17   0.52   0.16    -0.18  -0.32  -0.06     0.25   0.01  -0.10
     3   1    -0.22   0.22  -0.28     0.23  -0.05   0.09    -0.32  -0.28   0.24
     4   1     0.23  -0.12   0.26    -0.15   0.02  -0.30    -0.05   0.23   0.46
     5   6    -0.01  -0.02   0.00     0.01   0.02   0.01    -0.01   0.01  -0.02
     6   8     0.00  -0.01   0.00    -0.01  -0.01  -0.01     0.00   0.00  -0.01
     7   8     0.00   0.00   0.00     0.00   0.00   0.00     0.00   0.00   0.00
     8   1    -0.03   0.00  -0.02     0.02   0.00   0.02     0.00   0.00   0.01
     9   8     0.00   0.00   0.00     0.00   0.00   0.00     0.00   0.00   0.00
    10   1     0.00   0.00   0.01     0.01   0.01   0.01    -0.01  -0.02  -0.03
    11   6     0.01  -0.01   0.00    -0.01  -0.02  -0.02    -0.01   0.00  -0.04
    12   1    -0.09   0.09  -0.08     0.06   0.09   0.23     0.25  -0.20   0.25
    13   1     0.06   0.08   0.00     0.01   0.03   0.05    -0.18  -0.17   0.29
    14   1    -0.09  -0.02   0.01     0.15   0.22   0.00     0.03   0.31   0.02
    15   1     0.00   0.09   0.05     0.01   0.06   0.06    -0.02  -0.05  -0.02
    16   6    -0.05  -0.01  -0.01    -0.07  -0.02   0.00    -0.01  -0.01   0.01
    17   1     0.32   0.03   0.11     0.41   0.04   0.15     0.05  -0.02   0.01
    18   1     0.23   0.23   0.01     0.31   0.30  -0.03     0.05   0.04  -0.05
    19   1     0.29   0.02  -0.03     0.37   0.07  -0.06     0.03   0.02  -0.01
    20   8    -0.01  -0.01   0.00    -0.02  -0.01   0.00     0.00   0.00   0.00
    21   1    -0.09  -0.03  -0.03    -0.03  -0.01   0.00     0.06   0.01   0.03
                    40                     41                     42
                     A                      A                      A
 Frequencies --  1514.7980              1519.0469              1527.8734
 Red. masses --     1.0475                 1.0487                 1.0449
 Frc consts  --     1.4162                 1.4258                 1.4372
 IR Inten    --    12.4521                10.8516                 7.1164
  Atom  AN      X      Y      Z        X      Y      Z        X      Y      Z
     1   6     0.01   0.01  -0.02    -0.01  -0.01   0.01     0.01   0.00  -0.02
     2   1     0.05  -0.17  -0.10    -0.01   0.10   0.05     0.11  -0.04  -0.06
     3   1    -0.09  -0.22   0.22     0.03   0.11  -0.11    -0.18  -0.18   0.16
     4   1    -0.11   0.16   0.14     0.07  -0.08  -0.04    -0.06   0.15   0.23
     5   6     0.00   0.01   0.00     0.01  -0.01   0.00     0.01   0.00  -0.01
     6   8     0.00   0.00   0.00    -0.01   0.00   0.00    -0.01  -0.01   0.01
     7   8     0.00   0.00   0.00     0.00   0.00   0.00     0.00   0.00   0.00
     8   1     0.00   0.00   0.01    -0.01   0.00  -0.01     0.00   0.00   0.00
     9   8     0.00   0.00   0.00     0.00   0.00   0.00     0.00   0.00   0.00
    10   1     0.00   0.00   0.00     0.01   0.02   0.03     0.00   0.00   0.00
    11   6     0.03  -0.02   0.01    -0.02   0.01  -0.01    -0.03  -0.02   0.03
    12   1    -0.25   0.17  -0.32     0.17  -0.09   0.23    -0.15   0.32   0.15
    13   1     0.17   0.26   0.07    -0.11  -0.18  -0.10     0.21   0.16  -0.51
    14   1    -0.36  -0.09   0.05     0.28   0.04  -0.04     0.47  -0.17  -0.07
    15   1     0.03  -0.02  -0.04    -0.01   0.03   0.07    -0.01   0.01   0.04
    16   6     0.00  -0.04   0.00     0.02  -0.04  -0.03     0.00   0.01  -0.01
    17   1     0.05   0.33   0.24    -0.21   0.50   0.26    -0.08  -0.04  -0.05
    18   1    -0.08  -0.10  -0.02    -0.23  -0.18   0.29     0.03   0.06   0.14
    19   1     0.09   0.31  -0.25     0.19   0.27  -0.23     0.09  -0.12   0.09
    20   8     0.00  -0.01   0.01     0.01  -0.01   0.00     0.00   0.00  -0.01
    21   1    -0.05  -0.05  -0.03    -0.11  -0.03  -0.05     0.04   0.03   0.02
                    43                     44                     45
                     A                      A                      A
 Frequencies --  1536.0000              1727.4402              2046.9981
 Red. masses --     1.0410                 1.1165                 1.1147
 Frc consts  --     1.4471                 1.9630                 2.7520
 IR Inten    --     7.0908               148.5669              2459.5976
  Atom  AN      X      Y      Z        X      Y      Z        X      Y      Z
     1   6     0.00   0.00   0.00     0.01  -0.01   0.00     0.00   0.01   0.00
     2   1    -0.01  -0.04  -0.01     0.02  -0.01   0.00    -0.01   0.00   0.00
     3   1     0.02  -0.01   0.01     0.01  -0.01   0.00    -0.01   0.00   0.00
     4   1    -0.03   0.01  -0.02    -0.04   0.03   0.01     0.03  -0.01   0.00
     5   6    -0.01   0.01   0.00    -0.04   0.05   0.01    -0.02  -0.03   0.01
     6   8     0.01   0.00   0.00     0.00  -0.05   0.00    -0.07   0.03   0.00
     7   8     0.00   0.00   0.00     0.00   0.00   0.00     0.00   0.00   0.00
     8   1     0.02   0.00   0.01     0.02  -0.01   0.01    -0.01   0.00  -0.02
     9   8     0.00   0.00   0.00     0.01  -0.01   0.00     0.00   0.00   0.00
    10   1     0.00  -0.02  -0.03    -0.03  -0.08  -0.07     0.00   0.01  -0.01
    11   6     0.01  -0.01  -0.01     0.02  -0.01   0.00     0.01   0.01   0.00
    12   1    -0.04  -0.03  -0.11     0.01   0.02   0.02     0.02  -0.01  -0.01
    13   1     0.01   0.08   0.19     0.00  -0.05   0.00    -0.04  -0.07  -0.06
    14   1    -0.22   0.06   0.04    -0.01   0.04   0.01     0.01  -0.05   0.00
    15   1    -0.05  -0.04  -0.09     0.25   0.92  -0.13     0.93  -0.25  -0.15
    16   6    -0.01   0.00  -0.03     0.01   0.01   0.00    -0.01  -0.01   0.00
    17   1    -0.35   0.05  -0.07    -0.03   0.01  -0.01     0.00  -0.01   0.02
    18   1     0.04   0.13   0.60    -0.07  -0.06  -0.01     0.04   0.05   0.01
    19   1     0.41  -0.29   0.20    -0.03   0.01   0.01     0.04   0.00  -0.01
    20   8    -0.02   0.00  -0.02    -0.02  -0.02   0.00     0.01   0.00   0.00
    21   1     0.23   0.05   0.09     0.18  -0.04   0.05     0.13  -0.04   0.09
                    46                     47                     48
                     A                      A                      A
 Frequencies --  3002.6771              3071.9444              3105.9107
 Red. masses --     1.0618                 1.0310                 1.0303
 Frc consts  --     5.6403                 5.7325                 5.8558
 IR Inten    --     5.8281                25.6707                 3.3266
  Atom  AN      X      Y      Z        X      Y      Z        X      Y      Z
     1   6    -0.04   0.03  -0.05     0.00   0.00   0.00     0.00   0.00   0.00
     2   1     0.29  -0.35   0.85     0.00   0.00   0.00     0.00   0.00   0.01
     3   1     0.01  -0.12  -0.14     0.00   0.00   0.00     0.00   0.02   0.02
     4   1     0.12   0.15  -0.07     0.00   0.00   0.00    -0.01  -0.01   0.00
     5   6     0.00   0.00   0.00     0.00   0.00   0.00     0.00   0.00   0.00
     6   8     0.00   0.00   0.00     0.00   0.00   0.00     0.00   0.00   0.00
     7   8     0.00   0.00   0.00     0.00   0.00   0.00     0.00   0.00   0.00
     8   1     0.00   0.00   0.00     0.00   0.00   0.00     0.00   0.00   0.00
     9   8     0.00   0.00   0.00     0.00   0.00   0.00     0.00   0.00   0.00
    10   1     0.00   0.00   0.00     0.00   0.00   0.00     0.00   0.00   0.00
    11   6     0.00   0.00   0.00     0.00   0.00   0.00     0.01   0.03   0.03
    12   1     0.00   0.00   0.00     0.01   0.00   0.00    -0.41  -0.24   0.22
    13   1     0.00   0.00   0.00     0.00   0.00   0.00     0.37  -0.22   0.09
    14   1     0.00   0.00   0.00     0.00   0.00   0.01    -0.10   0.11  -0.71
    15   1     0.00   0.00   0.00    -0.01   0.01   0.00     0.01   0.00   0.00
    16   6     0.00   0.00   0.00     0.04   0.02   0.02     0.00   0.00   0.00
    17   1     0.00   0.00   0.00    -0.09  -0.22   0.36     0.00   0.00   0.00
    18   1     0.00   0.00   0.00    -0.36   0.42  -0.06    -0.01   0.01   0.00
    19   1     0.00   0.00   0.00     0.01  -0.42  -0.56     0.00   0.00   0.00
    20   8     0.00   0.00   0.00     0.00   0.00   0.00     0.00   0.00   0.00
    21   1     0.00   0.00   0.00     0.02   0.02  -0.05     0.00   0.00   0.01
                    49                     50                     51
                     A                      A                      A
 Frequencies --  3144.8583              3151.6442              3183.7208
 Red. masses --     1.0784                 1.1084                 1.1062
 Frc consts  --     6.2838                 6.4867                 6.6059
 IR Inten    --     1.1345                13.7504                31.8270
  Atom  AN      X      Y      Z        X      Y      Z        X      Y      Z
     1   6    -0.04  -0.03   0.06     0.00   0.00   0.00     0.00   0.00   0.00
     2   1    -0.08   0.08  -0.21     0.00   0.00   0.00     0.00   0.00   0.00
     3   1     0.02  -0.34  -0.31     0.00   0.00   0.00     0.00   0.00   0.00
     4   1     0.53   0.63  -0.22     0.00   0.00   0.00     0.00   0.00   0.00
     5   6     0.00   0.00   0.00     0.00   0.00   0.00     0.00   0.00   0.00
     6   8     0.00   0.00   0.00     0.00   0.00   0.00     0.00   0.00   0.00
     7   8     0.00   0.00   0.00     0.00   0.00   0.00     0.00   0.00   0.00
     8   1     0.00   0.00   0.00     0.00   0.00   0.00     0.00   0.00   0.00
     9   8     0.00   0.00   0.00     0.00   0.00   0.00     0.00   0.00   0.00
    10   1     0.00   0.00   0.00     0.00   0.00   0.00     0.00   0.00   0.00
    11   6     0.00   0.00   0.00     0.00   0.00   0.00     0.00   0.00   0.00
    12   1    -0.01  -0.01   0.01     0.00   0.00   0.00     0.01   0.00   0.00
    13   1     0.00   0.00   0.00     0.01   0.00   0.00     0.00   0.00   0.00
    14   1     0.00   0.00  -0.02     0.00   0.00  -0.01     0.00   0.00  -0.01
    15   1     0.00   0.00   0.00     0.00   0.00   0.00     0.01   0.00   0.00
    16   6     0.00   0.00   0.00    -0.04   0.07   0.05    -0.01   0.05  -0.08
    17   1     0.00   0.00   0.00     0.02   0.09  -0.12    -0.18  -0.44   0.71
    18   1     0.00   0.00   0.00     0.47  -0.54   0.09     0.26  -0.29   0.03
    19   1     0.00   0.00   0.00     0.01  -0.39  -0.54    -0.01   0.14   0.17
    20   8     0.00   0.00   0.00     0.00   0.00   0.00    -0.01  -0.01   0.01
    21   1     0.00   0.00   0.00    -0.01  -0.02   0.04     0.07   0.10  -0.22
                    52                     53                     54
                     A                      A                      A
 Frequencies --  3193.7370              3206.6621              3213.9449
 Red. masses --     1.1010                 1.1091                 1.0678
 Frc consts  --     6.6167                 6.7194                 6.4987
 IR Inten    --     0.1984                 0.1418               299.0039
  Atom  AN      X      Y      Z        X      Y      Z        X      Y      Z
     1   6    -0.02  -0.08  -0.04     0.00   0.00   0.00     0.00   0.00   0.00
     2   1     0.01  -0.03   0.04     0.00   0.00   0.00     0.00   0.00   0.00
     3   1    -0.04   0.63   0.60     0.00   0.01   0.01     0.00   0.00   0.00
     4   1     0.29   0.35  -0.14     0.00   0.00   0.00     0.00   0.00   0.00
     5   6     0.00   0.00   0.00     0.00   0.00   0.00     0.00   0.00   0.00
     6   8     0.00   0.00   0.00     0.00   0.00   0.00     0.00   0.00   0.00
     7   8     0.00   0.00   0.00     0.00   0.00   0.00     0.00   0.00   0.00
     8   1     0.00   0.00   0.00     0.00   0.00   0.00    -0.01  -0.01   0.01
     9   8     0.00   0.00   0.00     0.00   0.00   0.00     0.00   0.00   0.00
    10   1     0.00   0.00   0.00     0.00   0.00   0.00     0.00   0.00   0.01
    11   6    -0.01   0.00   0.00    -0.03  -0.04   0.08     0.00   0.00   0.00
    12   1     0.02   0.01  -0.01     0.59   0.33  -0.30     0.01   0.01  -0.01
    13   1     0.05  -0.03   0.01    -0.19   0.10  -0.03    -0.02   0.01   0.00
    14   1     0.00  -0.01   0.03    -0.09   0.10  -0.62     0.00   0.00  -0.01
    15   1     0.00   0.00   0.00     0.00   0.00   0.00    -0.05   0.03  -0.01
    16   6     0.00   0.00   0.00     0.00   0.00   0.00     0.00   0.01  -0.02
    17   1     0.00   0.00  -0.01     0.00   0.01  -0.01    -0.06  -0.13   0.20
    18   1     0.00   0.00   0.00     0.00   0.00   0.00     0.02  -0.03   0.00
    19   1     0.00   0.00   0.00     0.00   0.00   0.00    -0.01   0.02   0.03
    20   8     0.00   0.00   0.00     0.00   0.00   0.00     0.02   0.02  -0.05
    21   1     0.00   0.00   0.00     0.01   0.01  -0.02    -0.31  -0.37   0.83
                    55                     56                     57
                     A                      A                      A
 Frequencies --  3235.5625              3384.2367              3742.8619
 Red. masses --     1.1097                 1.0678                 1.0657
 Frc consts  --     6.8448                 7.2056                 8.7963
 IR Inten    --     0.3047                91.4973               106.1011
  Atom  AN      X      Y      Z        X      Y      Z        X      Y      Z
     1   6     0.00   0.00   0.00     0.00   0.00   0.00     0.00   0.00   0.00
     2   1     0.00   0.00   0.00     0.00   0.00   0.00     0.00   0.00   0.00
     3   1     0.00  -0.05  -0.05     0.00   0.00   0.00     0.00   0.00   0.00
     4   1    -0.01  -0.01   0.01     0.00   0.00   0.00     0.00   0.00   0.00
     5   6     0.00   0.00   0.00     0.00   0.00   0.00     0.00   0.00   0.00
     6   8     0.00   0.00   0.00     0.00   0.00   0.00     0.00   0.00   0.00
     7   8     0.00   0.00   0.00    -0.03  -0.05   0.03     0.00   0.00   0.00
     8   1     0.00   0.00   0.00     0.45   0.72  -0.52     0.00   0.00   0.00
     9   8     0.00   0.00   0.00     0.00   0.00   0.00    -0.05   0.04  -0.01
    10   1     0.00   0.00   0.00     0.00   0.00   0.00     0.77  -0.60   0.21
    11   6    -0.09   0.02  -0.02     0.00   0.00   0.00     0.00   0.00   0.00
    12   1     0.33   0.20  -0.19     0.00   0.00   0.00     0.00   0.00   0.00
    13   1     0.74  -0.43   0.18     0.00   0.00   0.00     0.00   0.00   0.00
    14   1     0.01  -0.03   0.20     0.00   0.00   0.00     0.00   0.00   0.00
    15   1     0.00  -0.01   0.00     0.00   0.00   0.00     0.01   0.00   0.00
    16   6     0.00   0.00   0.00     0.00   0.00   0.00     0.00   0.00   0.00
    17   1     0.00   0.00   0.00     0.00   0.00   0.00     0.00   0.00   0.00
    18   1     0.00   0.00   0.00     0.00   0.00   0.00     0.00   0.00   0.00
    19   1     0.00   0.00   0.00     0.00   0.00   0.00     0.00   0.00   0.00
    20   8     0.00   0.00   0.00     0.00   0.00   0.00     0.00   0.00   0.00
    21   1     0.00  -0.01   0.01    -0.01  -0.01   0.02     0.00   0.00  -0.01

 -------------------
 - Thermochemistry -
 -------------------
 Temperature   298.150 Kelvin.  Pressure   1.00000 Atm.
 Atom     1 has atomic number  6 and mass  12.00000
 Atom     2 has atomic number  1 and mass   1.00783
 Atom     3 has atomic number  1 and mass   1.00783
 Atom     4 has atomic number  1 and mass   1.00783
 Atom     5 has atomic number  6 and mass  12.00000
 Atom     6 has atomic number  8 and mass  15.99491
 Atom     7 has atomic number  8 and mass  15.99491
 Atom     8 has atomic number  1 and mass   1.00783
 Atom     9 has atomic number  8 and mass  15.99491
 Atom    10 has atomic number  1 and mass   1.00783
 Atom    11 has atomic number  6 and mass  12.00000
 Atom    12 has atomic number  1 and mass   1.00783
 Atom    13 has atomic number  1 and mass   1.00783
 Atom    14 has atomic number  1 and mass   1.00783
 Atom    15 has atomic number  1 and mass   1.00783
 Atom    16 has atomic number  6 and mass  12.00000
 Atom    17 has atomic number  1 and mass   1.00783
 Atom    18 has atomic number  1 and mass   1.00783
 Atom    19 has atomic number  1 and mass   1.00783
 Atom    20 has atomic number  8 and mass  15.99491
 Atom    21 has atomic number  1 and mass   1.00783
 Molecular mass:   125.08138 amu.
 Principal axes and moments of inertia in atomic units:
                           1         2         3
     Eigenvalues --   667.916281504.660501754.65383
           X            0.99996  -0.00787  -0.00489
           Y            0.00779   0.99985  -0.01533
           Z            0.00501   0.01529   0.99987
 This molecule is an asymmetric top.
 Rotational symmetry number  1.
 Warning -- assumption of classical behavior for rotation
           may cause significant error
 Rotational temperatures (Kelvin)      0.12968     0.05756     0.04936
 Rotational constants (GHZ):           2.70205     1.19943     1.02855
    1 imaginary frequencies ignored.
 Zero-point vibrational energy     472837.4 (Joules/Mol)
                                  113.01086 (Kcal/Mol)
 Warning -- explicit consideration of  16 degrees of freedom as
           vibrations may cause significant error
 Vibrational temperatures:     69.04   177.69   194.16   221.04   244.91
          (Kelvin)            271.58   319.17   361.58   394.07   415.55
                              454.95   538.21   585.01   701.50   724.32
                              766.75   971.69  1003.34  1266.06  1319.41
                             1433.47  1447.51  1493.05  1567.55  1639.72
                             1671.40  1712.71  1717.65  1771.83  1805.74
                             1902.26  1982.68  2089.59  2113.63  2128.20
                             2149.81  2154.34  2162.38  2179.45  2185.57
                             2198.27  2209.96  2485.40  2945.17  4320.18
                             4419.84  4468.71  4524.74  4534.51  4580.66
                             4595.07  4613.67  4624.14  4655.25  4869.16
                             5385.14
 
 Zero-point correction=                           0.180094 (Hartree/Particle)
 Thermal correction to Energy=                    0.191196
 Thermal correction to Enthalpy=                  0.192140
 Thermal correction to Gibbs Free Energy=         0.144098
 Sum of electronic and zero-point Energies=           -460.474624
 Sum of electronic and thermal Energies=              -460.463522
 Sum of electronic and thermal Enthalpies=            -460.462577
 Sum of electronic and thermal Free Energies=         -460.510620
 
                     E (Thermal)             CV                S
                      KCal/Mol        Cal/Mol-Kelvin    Cal/Mol-Kelvin
 Total                  119.977             39.127            101.114
 Electronic               0.000              0.000              0.000
 Translational            0.889              2.981             40.385
 Rotational               0.889              2.981             28.957
 Vibrational            118.200             33.166             31.771
 Vibration     1          0.595              1.978              4.899
 Vibration     2          0.610              1.929              3.045
 Vibration     3          0.613              1.918              2.874
 Vibration     4          0.619              1.899              2.627
 Vibration     5          0.625              1.879              2.433
 Vibration     6          0.633              1.855              2.240
 Vibration     7          0.648              1.808              1.944
 Vibration     8          0.663              1.761              1.721
 Vibration     9          0.676              1.722              1.572
 Vibration    10          0.685              1.695              1.481
 Vibration    11          0.703              1.643              1.330
 Vibration    12          0.745              1.525              1.063
 Vibration    13          0.771              1.456              0.939
 Vibration    14          0.844              1.278              0.690
 Vibration    15          0.859              1.242              0.650
 Vibration    16          0.888              1.177              0.581
[...]
 00043838,0.00161397,-0.00095533,0.00035336,-0.00017225,0.00003976,0.00
 017216,0.02908533,-0.02923960,0.00022636,-0.00022519,0.00067611,-0.000
 97436,0.00135387,0.00503127,0.00385344,0.00084884,-0.00101294,-0.00280
 296,-0.11736357,0.07162915,-0.05102580,0.08830051,-0.04080516,0.053623
 97,-0.00126155,-0.00064439,0.00041341,-0.00033866,-0.00031346,-0.00015
 024,-0.00089325,-0.00085793,0.00032845,0.00018959,0.00013079,-0.000027
 08,0.00455693,-0.00940162,-0.01310343,-0.09631971,-0.00516392,0.010961
 02,0.00065841,0.00016073,-0.00019575,0.00006407,0.00010000,-0.00016898
 ,-0.00163497,-0.00743163,-0.00089297,-0.00095905,-0.00028397,0.0000413
 6,0.64734518,0.00045708,0.00261926,0.00093943,-0.00013274,0.00067337,-
 0.00006343,-0.00038535,-0.00042447,-0.00120257,0.00155235,-0.00116705,
 -0.00033890,-0.02001816,-0.03330309,0.00311708,0.00508660,-0.13541591,
 -0.03868751,0.00177299,0.00145223,-0.00387231,-0.00124678,0.00032804,-
 0.00090803,0.00114714,0.00442973,0.00059504,-0.00009641,-0.00088400,0.
 00011138,-0.02537976,0.45079213,0.00121964,0.00145908,-0.00109944,-0.0
 0045609,-0.00012684,-0.00015986,0.00098309,0.00047963,0.00045056,0.000
 35296,-0.00010411,-0.00000489,-0.01322134,-0.00180570,0.01348136,0.013
 02389,-0.05503095,-0.10053817,0.00108608,0.00152234,-0.00397808,-0.000
 95986,0.00007579,-0.00044093,0.00315601,0.00650700,0.00203403,0.000239
 68,-0.00075482,0.00038154,-0.01735450,-0.09258083,0.58036980,-0.000083
 49,0.00006067,0.00038044,0.00004603,0.00009359,0.00008415,-0.00001010,
 -0.00014869,-0.00035590,0.00012991,-0.00017285,-0.00010510,0.00017024,
 0.00116610,-0.00024891,0.00218516,0.00065840,-0.00123451,-0.00000964,0
 .00019393,-0.00004772,-0.00003721,-0.00000608,-0.00001605,0.00023735,0
 .00019967,0.00010721,0.00002378,-0.00001627,-0.00001675,-0.23280103,-0
 .10297055,0.09542076,0.24082207,0.00020365,-0.00000165,-0.00014500,-0.
 00002889,-0.00011497,-0.00006671,-0.00024735,0.00006645,0.00036439,-0.
 00017773,0.00024694,0.00014677,0.00453402,0.00144796,-0.00488831,-0.02
 904183,-0.02925744,0.00982401,0.00010437,-0.00024428,0.00061180,0.0001
 6399,0.00007402,0.00005483,-0.00102201,-0.00278518,-0.00053515,-0.0003
 1700,0.00012444,-0.00003505,-0.09161828,-0.10113807,0.05164544,0.10932
 500,0.12053294,0.00010988,-0.00030507,0.00010155,0.00004753,0.00007333
 ,0.00006484,-0.00025655,0.00011272,0.00005598,-0.00005589,0.00008861,0
 .00008510,0.00150873,0.00015982,-0.00318881,-0.01811536,-0.01605161,0.
 00695077,-0.00014267,0.00035920,0.00061657,0.00011471,0.00002442,0.000
 11383,-0.00055320,-0.00183386,-0.00030638,-0.00012634,0.00007420,-0.00
 005728,0.10226186,0.06025607,-0.10606353,-0.10352328,-0.05291328,0.104
 88530,-0.00072974,-0.00051592,0.00071988,-0.00015055,-0.00009942,-0.00
 014308,-0.00081073,-0.00140047,0.00005032,0.00010067,-0.00018838,-0.00
 022103,0.00069747,-0.00000164,0.00018442,0.00776081,-0.00494527,0.0014
 2667,-0.00006861,-0.00005532,0.00010554,0.00002804,0.00000228,0.000035
 28,-0.00017775,0.00016964,0.00001871,0.00001337,0.00003377,0.00000331,
 -0.26518174,0.12504255,-0.05129703,-0.01765148,0.01234516,-0.00661514,
 0.27596893,-0.00008632,-0.00014745,-0.00015794,-0.00029408,-0.00018089
 ,-0.00023195,-0.00082545,-0.00038659,0.00066597,-0.00018620,0.00030455
 ,0.00001668,0.00393042,0.00062856,-0.00051284,0.02754939,-0.02793123,-
 0.00157727,-0.00052457,-0.00020370,0.00046217,0.00011974,-0.00003068,0
 .00011745,-0.00092055,0.00005336,0.00004736,0.00010578,0.00022605,0.00
 000147,0.11225617,-0.11387267,0.03089656,-0.01255615,0.01100365,-0.003
 71046,-0.12849872,0.13267466,-0.00011675,-0.00005626,0.00082014,-0.000
 14127,-0.00010348,-0.00001426,0.00054552,0.00043392,-0.00037369,-0.000
 00127,-0.00015107,-0.00026972,-0.00007418,0.00133881,-0.00035511,0.018
 86320,-0.01597334,0.00108906,0.00020984,0.00016421,0.00017067,0.000077
 18,0.00012839,0.00015731,0.00006367,-0.00017570,0.00001445,0.00003145,
 0.00010220,-0.00009226,-0.05837692,0.03531629,-0.06696985,0.01210281,-
 0.00749865,0.00394666,0.05552609,-0.02654839,0.06449562,0.00002878,-0.
 00014782,-0.00034483,0.00010655,0.00014162,0.00010338,-0.00043180,0.00
 005625,-0.00008743,0.00000403,0.00005454,0.00017340,0.00074635,-0.0002
 4422,-0.00209775,0.00084195,-0.00253108,-0.00201477,-0.00037191,0.0006
 8582,0.00029669,-0.00008029,-0.00017437,0.00003649,-0.00030592,-0.0000
 2669,0.00022898,0.00005989,0.00000506,-0.00000089,-0.06275376,0.007704
 69,-0.03468963,0.00647671,-0.00272839,0.02558090,-0.00021224,0.0033823
 0,-0.02690428,0.05589956,-0.00017280,-0.00039087,0.00043285,0.00010246
 ,-0.00006218,-0.00003767,-0.00006806,0.00005227,-0.00001072,-0.0001280
 7,0.00007046,-0.00001955,0.00108645,0.00377547,-0.00430138,-0.00495864
 ,-0.01250864,-0.04075818,0.00049535,-0.00058672,0.00081185,0.00016956,
 0.00035756,0.00022239,-0.00005946,-0.00062276,0.00097202,0.00002835,0.
 00003117,-0.00017608,0.00782824,-0.05929904,0.05843241,0.00405030,0.00
 017547,0.01320490,-0.00047947,0.00046057,0.01502593,-0.00623419,0.0677
 1440,-0.00008212,-0.00019539,0.00003356,0.00004928,0.00003306,0.000025
 33,-0.00023986,0.00001996,0.00016069,-0.00006115,0.00009379,0.00007980
 ,0.00169282,0.00159731,-0.00137138,-0.00163319,-0.00854991,-0.01229520
 ,-0.00004502,0.00104546,0.00012751,0.00020775,0.00005747,0.00037293,-0
 .00023012,-0.00040789,0.00016229,-0.00006939,0.00008344,-0.00005957,-0
 .03548280,0.04508339,-0.31687580,-0.00245715,0.00248912,-0.00823355,0.
 00061407,0.00172525,-0.00161191,0.03874423,-0.04320419,0.33988488,0.00
 240296,0.00301291,-0.00241135,-0.00095958,0.00007119,-0.00036182,-0.00
 038952,-0.00011741,0.00035846,0.00110942,-0.00028989,-0.00015082,-0.03
 201402,-0.03176652,0.01633881,-0.14180872,0.04787965,-0.00481663,-0.00
 572220,0.00815371,-0.00556394,-0.00197499,-0.00045750,-0.00099698,0.00
 066541,0.00806512,0.00114632,0.00302349,-0.00201270,0.00016159,0.01460
 989,0.01417805,0.00637068,0.00037018,-0.00199494,-0.00017219,-0.000067
 97,-0.00567596,-0.00316629,0.00004030,-0.00269480,-0.00171157,0.137285
 17,-0.00388713,-0.00719412,0.00365326,0.00103388,-0.00008580,0.0001324
 2,0.00044411,0.00004812,-0.00020439,-0.00195562,0.00098298,0.00029608,
 -0.01423713,0.03636676,-0.00568739,0.02941598,-0.08593580,0.00238841,0
 .00308019,-0.00448598,0.00225922,0.00122044,0.00002588,0.00038084,0.00
 418083,-0.00514600,-0.00308427,-0.00328850,-0.00243703,0.00029115,0.01
 945440,-0.02015757,-0.00318745,0.00024065,-0.00020539,0.00048697,-0.00
 124965,-0.00183290,-0.00151820,-0.00003774,0.00141825,0.00048616,-0.00
 831001,0.10521639,0.00081978,0.00277653,-0.00122977,-0.00018542,-0.000
 01016,0.00019579,-0.00017834,-0.00017094,0.00008536,0.00079049,-0.0004
 0780,0.00025311,0.01641765,-0.00544344,0.00422357,-0.01788920,0.006069
 13,-0.03157690,-0.00130475,-0.00043505,-0.00112755,-0.00091278,-0.0000
 5847,0.00015531,-0.00013553,-0.00019650,-0.00299668,-0.00031579,-0.000
 55475,0.00194808,0.01370919,-0.00654238,0.00004253,-0.00017678,0.00084
 873,0.00126685,-0.00059683,-0.00187774,-0.00135596,0.00112912,-0.00085
 170,-0.00078012,-0.01609028,0.00087379,0.05732185,0.00043144,0.0001681
 1,0.00025161,0.00003094,-0.00000860,-0.00012396,-0.00002037,0.00000137
 ,0.00001366,0.00003646,-0.00009624,-0.00002641,-0.00290782,-0.00046713
 ,-0.00038881,0.00755298,-0.00308421,-0.00038101,0.00338231,-0.00045520
 ,-0.00142926,0.00041620,-0.00005700,0.00053180,0.00148509,0.00016697,0
 .00003105,-0.00168930,-0.00125124,-0.00018500,0.00016417,0.00346653,0.
 00102116,0.00006829,0.00002305,0.00004278,-0.00005765,-0.00022852,-0.0
 0005088,-0.00003191,0.00001366,-0.00004588,-0.01662824,0.00359393,-0.0
 0337892,0.47130102,0.00027392,0.00034702,-0.00011485,-0.00005617,0.000
 01148,-0.00006582,-0.00001464,-0.00000922,0.00001532,0.00010070,-0.000
 04643,-0.00002887,-0.00241927,-0.00211978,0.00089936,0.01233643,-0.007
 99684,0.00025734,0.00074721,0.00081819,-0.00110492,0.00016145,-0.00008
 151,0.00008911,0.00038469,0.00048675,0.00006045,-0.00018237,-0.0004263
 5,0.00003626,0.00121688,0.00221066,0.00112531,0.00011399,-0.00018191,0
 .00009722,-0.00010974,-0.00053924,-0.00034842,0.00014153,-0.00013669,-
 0.00018480,-0.01196831,0.01565597,-0.00424662,-0.05822427,0.58061278,0
 .00000251,-0.00003230,0.00028786,0.00006337,-0.00001711,0.00001029,-0.
 00001083,0.00003050,-0.00001017,-0.00002042,-0.00000740,-0.00001179,-0
 .00000882,0.00029127,-0.00145932,-0.00052208,0.00068276,0.00059199,0.0
 0335508,-0.00042202,-0.00172044,0.00046920,-0.00018906,-0.00002330,-0.
 00048301,-0.00001712,0.00038286,0.00033521,0.00026176,-0.00030414,-0.0
 0041803,0.00036154,0.00037699,-0.00000467,0.00001610,0.00033845,-0.000
 02117,0.00002099,-0.00007538,0.00034187,0.00009838,-0.00015475,-0.0007
 3005,-0.00398205,-0.00112384,-0.02193430,-0.02313159,0.62237478,0.0000
 1556,0.00009525,-0.00015673,-0.00004667,0.00000473,0.00000411,-0.00000
 568,-0.00001073,0.00001519,0.00002218,0.00000064,0.00000609,0.00002419
 ,-0.00063395,0.00070567,-0.00006299,0.00038922,-0.00029510,-0.00120221
 ,0.00033505,0.00038990,-0.00017093,0.00006487,-0.00003558,-0.00002286,
 0.00009725,-0.00016000,0.00010253,0.00005455,0.00015753,-0.00008032,-0
 .00027393,0.00004618,-0.00006376,0.00016656,0.00001833,0.00004495,0.00
 004745,-0.00002012,0.00000531,-0.00000616,0.00000112,0.00032338,-0.000
 53386,0.00107529,-0.05782810,-0.02097699,0.03666569,0.07304414,-0.0000
 3147,-0.00002198,-0.00003057,-0.00000608,0.00000739,0.00001139,0.00000
 779,-0.00000189,-0.00000635,-0.00000351,0.00000533,0.00000320,0.000241
 50,0.00018654,0.00019504,-0.00070233,0.00011263,0.00005307,-0.00050069
 ,0.00003281,0.00023011,-0.00004135,0.00003505,-0.00002687,-0.00002047,
 -0.00012065,-0.00013681,0.00003917,0.00006828,0.00011003,0.00004727,-0
 .00003002,-0.00011684,0.00009037,-0.00002236,0.00000801,-0.00001417,-0
 .00000710,0.00001556,-0.00002728,-0.00000013,-0.00000693,0.00092536,-0
 .00016727,0.00030704,-0.02720812,-0.12780190,0.11800270,0.03661389,0.1
 3294942,-0.00000120,-0.00000705,0.00000077,0.00000062,0.00000626,-0.00
 000010,0.00000855,-0.00000085,-0.00001085,0.00000037,-0.00000303,-0.00
 000267,0.00000474,0.00013547,0.00000424,0.00044958,-0.00036391,-0.0000
 4886,-0.00021685,0.00000957,0.00016998,-0.00004671,0.00001807,-0.00000
 107,0.00002989,-0.00006931,-0.00003923,-0.00001921,-0.00000210,0.00003
 834,0.00014431,0.00033591,-0.00006043,0.00008424,-0.00012959,0.0000686
 4,-0.00006438,-0.00006810,0.00003105,-0.00003524,-0.00000867,-0.000021
 73,-0.00017189,0.00053929,0.00017129,0.04844426,0.12404775,-0.24984217
 ,-0.04903604,-0.13128516,0.25808998,-0.00010089,-0.00013493,0.00005488
 ,0.00002230,-0.00000053,0.00002056,0.00000973,0.00000359,-0.00000797,-
 0.00003993,0.00001995,0.00001135,0.00085227,0.00086945,-0.00030977,-0.
 00378064,0.00211102,-0.00007521,-0.00028340,-0.00031436,0.00049067,-0.
 00011299,0.00008708,-0.00001105,-0.00013623,-0.00026298,-0.00006968,0.
 00005253,0.00025873,0.00000786,-0.00036730,-0.00070796,-0.00027913,-0.
 00003560,0.00005921,-0.00002454,0.00004725,0.00016615,0.00009555,-0.00
 000390,0.00004975,0.00004391,0.00456953,-0.00440278,0.00151403,-0.1558
 1866,0.12942248,-0.01665881,0.00742726,-0.00512499,0.00015952,0.182690
 08,-0.00002129,-0.00005832,0.00001482,0.00000272,-0.00000345,0.0000036
 7,-0.00000405,-0.00000011,0.00000555,-0.00002109,0.00000797,0.00000845
 ,0.00020763,0.00027891,-0.00008796,-0.00210380,0.00137262,-0.00007826,
 -0.00009315,-0.00012744,0.00015021,-0.00003665,0.00002673,0.00002974,-
 0.00002369,-0.00006917,-0.00003426,-0.00003013,0.00008647,-0.00000184,
 -0.00021574,-0.00049802,-0.00014647,-0.00005068,0.00011458,-0.00008159
 ,0.00006011,0.00013059,0.00005771,-0.00004671,0.00003194,0.00006603,0.
 00172696,-0.00226713,0.00048477,0.13922845,-0.21528303,0.02495981,0.00
 992466,-0.01050883,-0.00001159,-0.13967737,0.22153274,-0.00001636,-0.0
 0001443,-0.00002593,-0.00000410,0.00000131,0.00000543,-0.00000017,-0.0
 0000349,0.00000107,-0.00000457,0.00000485,0.00000567,0.00017664,0.0001
 2092,0.00010021,-0.00063658,0.00047041,-0.00008382,-0.00009044,0.00004
 779,-0.00003093,0.00003530,-0.00000934,0.00000577,-0.00002377,-0.00006
 348,-0.00007776,0.00000120,0.00006665,0.00006480,0.00000716,-0.0002278
 7,-0.00013689,0.00000418,0.00000809,-0.00009121,0.00001125,0.00003047,
 0.00005473,-0.00008520,0.00000263,0.00006343,0.00090847,-0.00084232,0.
 00020014,-0.01807993,0.02209779,-0.05882363,-0.01801048,0.02074792,-0.
 00074153,0.02305507,-0.02402827,0.05323952,-0.00001636,0.00002435,0.00
 002912,0.00000124,-0.00000995,0.00000459,-0.00002477,0.00000767,0.0000
 1093,-0.00000168,0.00001214,0.00000075,0.00017337,-0.00034120,-0.00040
 585,-0.00083941,0.00081383,0.00018143,-0.00003386,0.00024150,0.0002291
 4,0.00005992,0.00001438,-0.00003222,-0.00034633,0.00016228,0.00026482,
 0.00044291,0.00025305,-0.00007448,-0.00008554,-0.00057070,-0.00029119,
 -0.00000053,0.00012591,-0.00010282,0.00005486,0.00010472,0.00009637,-0
 .00016475,0.00006843,0.00012326,0.00189651,-0.00191767,-0.00040759,-0.
 05188909,0.01001885,0.01335527,0.00136480,0.00516330,0.00414451,0.0027
 1610,0.01103802,0.01784620,0.06118853,-0.00003670,-0.00003344,0.000074
 45,0.00002068,-0.00000259,0.00000483,-0.00000122,0.00000851,-0.0000094
 7,-0.00001035,0.00000497,-0.00000309,0.00026323,0.00016576,-0.00047418
 ,-0.00081466,0.00029689,0.00004267,-0.00007003,-0.00007282,0.00045259,
 -0.00004524,0.00002035,-0.00006701,-0.00017390,0.00001408,0.00019131,0
 .00023393,0.00012002,-0.00006748,-0.00000129,-0.00017430,-0.00015662,0
 .00005008,-0.00001969,0.00005276,-0.00001193,0.00001415,0.00003499,-0.
 00000181,0.00003327,0.00000567,0.00139527,-0.00076082,0.00040768,0.007
 05259,-0.14618237,-0.12401874,0.00069985,0.01322232,0.01414035,0.00117
 660,-0.01198512,-0.02088107,0.00096785,0.15266969,-0.00000421,0.000034
 73,-0.00006769,-0.00001899,-0.00000483,0.00000008,-0.00001402,-0.00000
 492,0.00001638,0.00000453,0.00000710,0.00000540,0.00000254,-0.00037588
 ,0.00018730,-0.00055246,0.00066994,-0.00006430,-0.00046725,0.00007217,
 0.00008098,-0.00006229,0.00000723,-0.00002081,-0.00007878,0.00015358,0
 .00004340,0.00012008,0.00004362,-0.00000187,-0.00011259,-0.00059309,-0
 .00010312,-0.00008764,0.00016613,-0.00022709,0.00008823,0.00011991,0.0
 0003455,-0.00008619,-0.00002515,0.00013401,0.00081680,-0.00091078,-0.0
 0012470,0.00610564,-0.12647992,-0.23018995,0.00125503,-0.01663664,-0.0
 1833408,0.00054204,0.00317151,0.00486507,-0.00340257,0.14010439,0.2399
 8953,-0.00145712,-0.00150996,0.00030079,0.00026620,0.00001374,0.000292
 09,0.00017137,0.00001004,-0.00009897,-0.00037015,0.00026813,0.00017516
 ,0.00920039,0.01079303,-0.00159944,-0.05925632,0.03648822,-0.00482072,
 -0.01394731,-0.00447940,0.01302186,-0.00230124,0.00205273,-0.00032440,
 -0.00233353,-0.00387156,-0.00187129,0.00056925,0.00257009,0.00035850,-
 0.00450486,-0.00932778,-0.00439559,0.00002404,0.00055820,-0.00007321,0
 .00042356,0.00206552,0.00122824,-0.00014342,0.00061136,0.00054796,0.01
 619523,-0.02265395,0.01581858,-0.18353512,-0.04709837,-0.04134876,-0.0
 1857459,-0.00841838,-0.00198155,-0.03745475,-0.02015511,-0.00593069,-0
 .01652997,-0.01053261,-0.00410555,0.40478656,0.00109585,0.00241791,-0.
 00157032,-0.00052188,-0.00000374,-0.00003618,-0.00020707,-0.00005690,0
 .00013891,0.00060426,-0.00025258,-0.00009970,-0.00210131,-0.01463824,0
 .00503589,0.03954188,-0.00323289,0.00134802,-0.00515893,0.00557295,0.0
 0002295,-0.00010003,0.00020218,-0.00038325,-0.00180291,0.00337535,0.00
 120735,0.00263557,0.00024703,0.00011319,0.00013209,0.00450051,0.001475
 57,-0.00031717,0.00032220,-0.00024584,-0.00003466,-0.00039935,-0.00007
 130,-0.00035667,-0.00035381,0.00001513,-0.02171053,-0.02360924,-0.0032
 1511,-0.05552383,-0.09210336,-0.00576995,-0.02314447,-0.00723085,-0.00
 582730,0.01505894,0.01638065,0.00322977,-0.02662906,-0.00722217,-0.000
 27592,0.11385912,0.18463612,-0.00046898,-0.00129024,0.00192804,0.00051
 217,-0.00008825,-0.00009255,-0.00002664,0.00013784,-0.00007693,-0.0003
 8360,0.00014060,-0.00004426,0.00060117,0.00608737,-0.00831738,-0.01790
 444,0.00518872,0.00951528,0.01047738,0.00158677,0.00029663,0.00216815,
 -0.00122985,0.00066787,-0.00023651,-0.00062408,0.00242319,0.00027443,0
 .00004117,-0.00146059,-0.00174515,-0.00157531,-0.00130498,0.00018402,-
 0.00012730,-0.00022640,0.00016615,0.00071110,0.00043620,-0.00020696,0.
 00043972,0.00036222,0.01734927,0.00122601,-0.01965330,-0.00820705,0.01
 251098,-0.09212467,0.03057265,0.01045772,0.00966989,-0.00779410,-0.004
 43327,0.00158759,-0.02975998,-0.00851832,0.00300175,-0.05896657,-0.107
 06712,0.38708967,-0.00002447,-0.00107933,0.00263965,0.00067996,-0.0001
 4183,-0.00016333,-0.00007777,0.00018551,-0.00008136,-0.00033335,0.0000
 2475,-0.00008016,-0.00306559,0.00670760,-0.01250089,-0.00958155,-0.000
 23256,0.00280439,0.00254386,-0.00179088,0.00290148,0.00271832,-0.00185
 171,0.00109825,0.00010990,0.00012201,0.00370152,0.00010437,-0.00125292
 ,-0.00271191,-0.00040649,0.00070215,0.00002422,0.00013907,-0.00043268,
 0.00007648,-0.00003144,0.00006888,0.00001204,0.00029048,0.00029775,0.0
 0003387,0.01707376,-0.00019036,-0.00970193,-0.01446265,-0.01386800,0.0
 2757275,-0.00431618,-0.00102982,-0.00189752,-0.00025276,0.00029090,0.0
 0083683,0.00203405,-0.00016033,0.00005764,-0.09122820,-0.03531921,0.06
 339460,0.09808667,-0.00019668,-0.00037562,0.00029637,0.00013461,0.0000
 3764,0.00001151,0.00006013,0.00001354,-0.00005161,-0.00006720,0.000023
 67,0.00001738,0.00279210,0.00340864,-0.00076106,-0.00219607,-0.0000373
 0,-0.00095686,0.00260290,-0.00695012,0.00138968,-0.00296803,0.00075005
 ,0.00065007,0.00009859,-0.00152805,-0.00064962,-0.00164631,0.00053508,
 -0.00117887,-0.00001456,-0.00064172,0.00039150,-0.00000432,-0.00013771
 ,0.00014349,-0.00004876,0.00003565,-0.00017319,0.00038516,-0.00015998,
 -0.00025212,0.00159036,-0.00542931,0.01224301,-0.00711030,-0.00723422,
 0.01286154,-0.00291387,-0.00070679,-0.00145601,0.00134295,0.00083741,-
 0.00075833,0.00045233,-0.00011667,0.00075682,-0.04124306,-0.06855178,0
 .08642572,0.04895005,0.08622758,0.00014423,0.00048305,-0.00230480,-0.0
 0055926,0.00011809,0.00012809,0.00015709,-0.00015394,0.00005833,0.0001
 6004,-0.00004332,0.00005857,-0.00341980,-0.00165583,0.01000674,0.00497
 425,-0.00061909,-0.00059177,-0.00040220,0.00197734,-0.00995793,-0.0002
 4052,0.00042092,-0.00085264,0.00086313,-0.00070879,-0.00312197,-0.0023
 3831,-0.00071555,0.00042512,0.00016167,0.00047609,0.00059917,-0.000093
 33,0.00016362,-0.00010026,0.00000874,-0.00013067,-0.00013232,-0.000081
 90,-0.00024979,-0.00000266,-0.00710660,0.00640325,-0.00589506,-0.00221
 056,-0.00553108,0.01150033,-0.00319874,-0.00189560,0.00085853,-0.00076
 518,-0.00004878,-0.00018172,-0.00180970,-0.00131570,0.00077515,0.09377
 356,0.11197521,-0.29367726,-0.07801661,-0.10894942,0.29240835||0.00243
 440,-0.00102210,-0.01210077,-0.00729992,0.00587653,-0.00512093,-0.0001
 0659,-0.00112184,-0.00153750,0.00104478,0.00010857,0.00049629,-0.04192
 868,0.01833620,-0.00566638,0.01027424,0.00715100,-0.00698755,0.0534871
 0,0.00088669,0.03993915,-0.00433167,-0.01858218,0.01363044,0.00095342,
 -0.01220307,-0.02727269,-0.00379472,0.00307232,0.00606613,0.00038394,-
 0.00385448,-0.00494587,0.00023921,-0.00013435,0.00061624,0.00027054,-0
 .00020388,0.00061713,0.00030900,-0.00088403,0.00094562,-0.00882967,0.0
 0443191,0.00011868,-0.00585937,-0.00065956,0.00008270,-0.00032387,0.00
 105776,0.00013524,0.00074905,-0.00095117,0.00072320,0.00009352,-0.0001
 5699,0.00032988,0.01321392,0.00719547,-0.01997156,-0.01097862,-0.00834
 280,0.01990255|||@


 STEINBACH'S GUIDELINES FOR SYSTEMS PROGRAMMING:
 NEVER TEST FOR AN ERROR CONDITION YOU DON'T KNOW HOW
 TO HANDLE.
 Job cpu time:  0 days  0 hours 20 minutes 45.0 seconds.
 File lengths (MBytes):  RWF=     81 Int=      0 D2E=      0 Chk=      3 Scr=      1
 Normal termination of Gaussian 09 at Wed Sep 23 11:24:14 2015.
