 Entering Link 1 = C:\G09W\l1.exe PID=      4128.
  
 Copyright (c) 1988,1990,1992,1993,1995,1998,2003,2009, Gaussian, Inc.
                  All Rights Reserved.
  
 This is part of the Gaussian(R) 09 program.  It is based on
 the Gaussian(R) 03 system (copyright 2003, Gaussian, Inc.),
 the Gaussian(R) 98 system (copyright 1998, Gaussian, Inc.),
 the Gaussian(R) 94 system (copyright 1995, Gaussian, Inc.),
 the Gaussian 92(TM) system (copyright 1992, Gaussian, Inc.),
 the Gaussian 90(TM) system (copyright 1990, Gaussian, Inc.),
 the Gaussian 88(TM) system (copyright 1988, Gaussian, Inc.),
 the Gaussian 86(TM) system (copyright 1986, Carnegie Mellon
 University), and the Gaussian 82(TM) system (copyright 1983,
 Carnegie Mellon University). Gaussian is a federally registered
 trademark of Gaussian, Inc.
  
 This software contains proprietary and confidential information,
 including trade secrets, belonging to Gaussian, Inc.
  
 This software is provided under written license and may be
 used, copied, transmitted, or stored only in accord with that
 written license.
  
 The following legend is applicable only to US Government
 contracts under FAR:
  
                    RESTRICTED RIGHTS LEGEND
  
 Use, reproduction and disclosure by the US Government is
 subject to restrictions as set forth in subparagraphs (a)
 and (c) of the Commercial Computer Software - Restricted
 Rights clause in FAR 52.227-19.
  
 Gaussian, Inc.
 340 Quinnipiac St., Bldg. 40, Wallingford CT 06492
  
  
 ---------------------------------------------------------------
 Warning -- This program may not be used in any manner that
 competes with the business of Gaussian, Inc. or will provide
 assistance to any competitor of Gaussian, Inc.  The licensee
 of this program is prohibited from giving any competitor of
 Gaussian, Inc. access to this program.  By using this program,
 the user acknowledges that Gaussian, Inc. is engaged in the
 business of creating and licensing software in the field of
 computational chemistry and represents and warrants to the
 licensee that it is not a competitor of Gaussian, Inc. and that
 it will not use this program in any manner prohibited above.
 ---------------------------------------------------------------
  

 Cite this work as:
 Gaussian 09, Revision A.02,
 M. J. Frisch, G. W. Trucks, H. B. Schlegel, G. E. Scuseria, 
 M. A. Robb, J. R. Cheeseman, G. Scalmani, V. Barone, B. Mennucci, 
 G. A. Petersson, H. Nakatsuji, M. Caricato, X. Li, H. P. Hratchian, 
 A. F. Izmaylov, J. Bloino, G. Zheng, J. L. Sonnenberg, M. Hada, 
 M. Ehara, K. Toyota, R. Fukuda, J. Hasegawa, M. Ishida, T. Nakajima, 
 Y. Honda, O. Kitao, H. Nakai, T. Vreven, J. A. Montgomery, Jr., 
 J. E. Peralta, F. Ogliaro, M. Bearpark, J. J. Heyd, E. Brothers, 
 K. N. Kudin, V. N. Staroverov, R. Kobayashi, J. Normand, 
 K. Raghavachari, A. Rendell, J. C. Burant, S. S. Iyengar, J. Tomasi, 
 M. Cossi, N. Rega, J. M. Millam, M. Klene, J. E. Knox, J. B. Cross, 
 V. Bakken, C. Adamo, J. Jaramillo, R. Gomperts, R. E. Stratmann, 
 O. Yazyev, A. J. Austin, R. Cammi, C. Pomelli, J. W. Ochterski, 
 R. L. Martin, K. Morokuma, V. G. Zakrzewski, G. A. Voth, 
 P. Salvador, J. J. Dannenberg, S. Dapprich, A. D. Daniels, 
 O. Farkas, J. B. Foresman, J. V. Ortiz, J. Cioslowski, 
 and D. J. Fox, Gaussian, Inc., Wallingford CT, 2009.
 
 ******************************************
 Gaussian 09:  IA32W-G09RevA.02 11-Jun-2009
                13-Nov-2015 
 ******************************************
 ----------------------------------------
 # freq x3lyp/6-31+g(d) geom=connectivity
 ----------------------------------------
 1/10=4,30=1,38=1,57=2/1,3;
 2/12=2,17=6,18=5,40=1/2;
 3/5=1,6=6,7=11,11=2,16=1,25=1,30=1,71=2,74=-33/1,2,3;
 4//1;
 5/5=2,38=5,98=1/2;
 8/6=4,10=90,11=11/1;
 11/6=1,8=1,9=11,15=111,16=1/1,2,10;
 10/6=1/2;
 6/7=2,8=2,9=2,10=2,18=1,28=1/1;
 7/8=1,10=1,25=1/1,2,3,16;
 1/10=4,30=1/3;
 99//99;
 -------------------
 Title Card Required
 -------------------
 Symbolic Z-matrix:
 Charge =  1 Multiplicity = 1
 C                    -2.1287   -0.63315  -1.02986 
 H                    -1.62293  -0.86903  -1.9678 
 H                    -2.71343   0.28209  -1.15692 
 H                    -2.79948  -1.45996  -0.77728 
 C                    -1.11211  -0.49509   0.07389 
 O                    -0.15015   0.71532  -0.40082 
 O                    -1.55435  -0.14801   1.31303 
 H                    -2.50188   0.06885   1.32078 
 O                    -0.25238  -1.53821   0.12477 
 H                     0.05789  -1.6703    1.0398 
 C                    -0.56209   2.09087  -0.14813 
 H                     0.20442   2.72833  -0.59003 
 H                    -1.50815   2.25375  -0.66352 
 H                    -0.65767   2.26641   0.92461 
 H                     0.82386   0.54703  -0.06758 
 C                     3.12969  -0.51448  -0.38935 
 H                     2.51661  -1.2305   -0.93598 
 H                     3.83043  -1.04527   0.25861 
 H                     3.66293   0.1361   -1.0867 
 O                     2.21256   0.26586   0.43029 
 H                     2.70127   0.94379   0.92448 
 

 GradGradGradGradGradGradGradGradGradGradGradGradGradGradGradGradGradGrad
 Berny optimization.
 Initialization pass.
 Trust Radius=3.00D-01 FncErr=1.00D-07 GrdErr=1.00D-07
 Number of steps in this run=   2 maximum allowed number of steps=   2.
 GradGradGradGradGradGradGradGradGradGradGradGradGradGradGradGradGradGrad

                          Input orientation:                          
 ---------------------------------------------------------------------
 Center     Atomic      Atomic             Coordinates (Angstroms)
 Number     Number       Type             X           Y           Z
 ---------------------------------------------------------------------
      1          6           0       -2.128701   -0.633148   -1.029857
      2          1           0       -1.622931   -0.869034   -1.967795
      3          1           0       -2.713434    0.282088   -1.156921
      4          1           0       -2.799477   -1.459957   -0.777280
      5          6           0       -1.112113   -0.495085    0.073888
      6          8           0       -0.150153    0.715323   -0.400815
      7          8           0       -1.554352   -0.148006    1.313034
      8          1           0       -2.501879    0.068853    1.320781
      9          8           0       -0.252380   -1.538207    0.124766
     10          1           0        0.057885   -1.670295    1.039802
     11          6           0       -0.562086    2.090867   -0.148125
     12          1           0        0.204423    2.728329   -0.590031
     13          1           0       -1.508152    2.253749   -0.663516
     14          1           0       -0.657668    2.266407    0.924614
     15          1           0        0.823862    0.547030   -0.067582
     16          6           0        3.129692   -0.514479   -0.389352
     17          1           0        2.516609   -1.230504   -0.935976
     18          1           0        3.830428   -1.045270    0.258606
     19          1           0        3.662932    0.136099   -1.086697
     20          8           0        2.212557    0.265863    0.430289
     21          1           0        2.701271    0.943793    0.924478
 ---------------------------------------------------------------------
                    Distance matrix (angstroms):
                    1          2          3          4          5
     1  C    0.000000
     2  H    1.091409   0.000000
     3  H    1.093487   1.780953   0.000000
     4  H    1.094234   1.775043   1.785007   0.000000
     5  C    1.506906   2.137579   2.164051   2.121948   0.000000
     6  O    2.475625   2.671084   2.707360   3.448548   1.617343
     7  O    2.460565   3.359825   2.762088   2.764229   1.360706
     8  H    2.481444   3.530852   2.495843   2.612984   1.950440
     9  O    2.381778   2.589404   3.318581   2.703241   1.352713
    10  H    3.184387   3.537344   4.039505   3.392720   1.919115
    11  C    3.263739   3.632851   2.986243   4.243831   2.653105
    12  H    4.115391   4.263623   3.849591   5.157540   3.544637
    13  H    2.975477   3.386162   2.362964   3.933456   2.873447
    14  H    3.793589   4.373643   3.535037   4.622724   2.925080
    15  H    3.322111   3.406295   3.710703   4.202410   2.203183
    16  C    5.298587   5.020420   5.946915   6.016599   4.267069
    17  H    4.684501   4.281484   5.448862   5.323401   3.837745
    18  H    6.110745   5.892966   6.825520   6.723144   4.976498
    19  H    5.842772   5.452245   6.378424   6.663772   4.954433
    20  O    4.667630   4.663664   5.175412   5.436650   3.429212
    21  H    5.443785   5.509111   5.838588   6.239569   4.163625
                    6          7          8          9         10
     6  O    0.000000
     7  O    2.377896   0.000000
     8  H    2.985370   0.972057   0.000000
     9  O    2.316265   2.244943   3.012198   0.000000
    10  H    2.794607   2.234128   3.107407   0.975194   0.000000
    11  C    1.457965   2.851689   3.163704   3.652474   3.992728
    12  H    2.052735   3.871466   4.248304   4.350050   4.693157
    13  H    2.068799   3.110838   3.114273   4.071521   4.555424
    14  H    2.102426   2.604669   2.896085   3.908849   4.002862
    15  H    1.043107   2.836385   3.635486   2.354466   2.594138
    16  C    3.502846   4.997268   5.914340   3.570819   3.579719
    17  H    3.344288   4.775204   5.653893   2.981133   3.184720
    18  H    4.402221   5.559924   6.516717   4.114635   3.902948
    19  H    3.917340   5.749737   6.618562   4.427258   4.558664
    20  O    2.544631   3.891032   4.801843   3.069842   2.960207
    21  H    3.152653   4.410593   5.291063   3.940040   3.719442
                   11         12         13         14         15
    11  C    0.000000
    12  H    1.090493   0.000000
    13  H    1.089587   1.778634   0.000000
    14  H    1.091201   1.802976   1.801566   0.000000
    15  H    2.076240   2.326956   2.950647   2.477023   0.000000
    16  C    4.524958   4.371873   5.408128   4.878927   2.558748
    17  H    4.596801   4.597634   5.330380   5.076043   2.603676
    18  H    5.412482   5.301712   6.343049   5.617275   3.417785
    19  H    4.748980   4.350588   5.603894   5.220265   3.044303
    20  O    3.371030   3.337273   4.357955   3.533373   1.501800
    21  H    3.621568   3.422361   4.685825   3.609956   2.160155
                   16         17         18         19         20
    16  C    0.000000
    17  H    1.089661   0.000000
    18  H    1.092071   1.785345   0.000000
    19  H    1.092651   1.790077   1.798201   0.000000
    20  O    1.456668   2.048961   2.089510   2.102777   0.000000
    21  H    2.009042   2.867570   2.382174   2.371073   0.970903
                   21
    21  H    0.000000
 Stoichiometry    C4H13O4(1+)
 Framework group  C1[X(C4H13O4)]
 Deg. of freedom    57
 Full point group                 C1      NOp   1
 Largest Abelian subgroup         C1      NOp   1
 Largest concise Abelian subgroup C1      NOp   1
                         Standard orientation:                         
 ---------------------------------------------------------------------
 Center     Atomic      Atomic             Coordinates (Angstroms)
 Number     Number       Type             X           Y           Z
 ---------------------------------------------------------------------
      1          6           0       -2.128701   -0.633148   -1.029857
      2          1           0       -1.622931   -0.869034   -1.967795
      3          1           0       -2.713434    0.282088   -1.156921
      4          1           0       -2.799477   -1.459957   -0.777280
      5          6           0       -1.112113   -0.495085    0.073888
      6          8           0       -0.150153    0.715323   -0.400815
      7          8           0       -1.554352   -0.148006    1.313034
      8          1           0       -2.501879    0.068853    1.320781
      9          8           0       -0.252380   -1.538207    0.124766
     10          1           0        0.057885   -1.670295    1.039802
     11          6           0       -0.562086    2.090867   -0.148125
     12          1           0        0.204423    2.728329   -0.590031
     13          1           0       -1.508152    2.253749   -0.663516
     14          1           0       -0.657668    2.266407    0.924614
     15          1           0        0.823862    0.547030   -0.067582
     16          6           0        3.129692   -0.514479   -0.389352
     17          1           0        2.516609   -1.230504   -0.935976
     18          1           0        3.830428   -1.045270    0.258606
     19          1           0        3.662932    0.136099   -1.086697
     20          8           0        2.212557    0.265863    0.430289
     21          1           0        2.701271    0.943793    0.924478
 ---------------------------------------------------------------------
 Rotational constants (GHZ):      2.5300212      1.1480804      0.9776140
 Standard basis: 6-31+G(d) (6D, 7F)
 There are   178 symmetry adapted basis functions of A   symmetry.
 Integral buffers will be    262144 words long.
 Raffenetti 2 integral format.
 Two-electron integral symmetry is turned on.
   178 basis functions,   308 primitive gaussians,   178 cartesian basis functions
    34 alpha electrons       34 beta electrons
       nuclear repulsion energy       450.9934108469 Hartrees.
 NAtoms=   21 NActive=   21 NUniq=   21 SFac= 7.50D-01 NAtFMM=   80 NAOKFM=F Big=F
 One-electron integrals computed using PRISM.
 NBasis=   178 RedAO= T  NBF=   178
 NBsUse=   178 1.00D-06 NBFU=   178
 Harris functional with IExCor= 3102 diagonalized for initial guess.
 ExpMin= 4.38D-02 ExpMax= 5.48D+03 ExpMxC= 8.25D+02 IAcc=2 IRadAn=         0 AccDes= 0.00D+00
 HarFok:  IExCor= 3102 AccDes= 0.00D+00 IRadAn=         0 IDoV= 1
 ScaDFX=  1.000000  1.000000  1.000000  1.000000
 FoFCou: FMM=F IPFlag=           0 FMFlag=      100000 FMFlg1=           0
         NFxFlg=           0 DoJE=T BraDBF=F KetDBF=T FulRan=T
         Omega=  0.000000  0.000000  1.000000  0.000000  0.000000 ICntrl=     500 IOpCl=  0
         NMat0=    1 NMatS0=    1 NMatT0=    0 NMatD0=    1 NMtDS0=    0 NMtDT0=    0
         I1Cent=           4 NGrid=           0.
 Petite list used in FoFCou.
 Initial guess orbital symmetries:
       Occupied  (A) (A) (A) (A) (A) (A) (A) (A) (A) (A) (A) (A)
                 (A) (A) (A) (A) (A) (A) (A) (A) (A) (A) (A) (A)
                 (A) (A) (A) (A) (A) (A) (A) (A) (A) (A)
       Virtual   (A) (A) (A) (A) (A) (A) (A) (A) (A) (A) (A) (A)
                 (A) (A) (A) (A) (A) (A) (A) (A) (A) (A) (A) (A)
                 (A) (A) (A) (A) (A) (A) (A) (A) (A) (A) (A) (A)
                 (A) (A) (A) (A) (A) (A) (A) (A) (A) (A) (A) (A)
                 (A) (A) (A) (A) (A) (A) (A) (A) (A) (A) (A) (A)
                 (A) (A) (A) (A) (A) (A) (A) (A) (A) (A) (A) (A)
                 (A) (A) (A) (A) (A) (A) (A) (A) (A) (A) (A) (A)
                 (A) (A) (A) (A) (A) (A) (A) (A) (A) (A) (A) (A)
                 (A) (A) (A) (A) (A) (A) (A) (A) (A) (A) (A) (A)
                 (A) (A) (A) (A) (A) (A) (A) (A) (A) (A) (A) (A)
                 (A) (A) (A) (A) (A) (A) (A) (A) (A) (A) (A) (A)
                 (A) (A) (A) (A) (A) (A) (A) (A) (A) (A) (A) (A)
 The electronic state of the initial guess is 1-A.
 Requested convergence on RMS density matrix=1.00D-08 within 128 cycles.
 Requested convergence on MAX density matrix=1.00D-06.
 Requested convergence on             energy=1.00D-06.
 No special actions if energy rises.
 SCF Done:  E(RX3LYP) =  -460.698603761     A.U. after   12 cycles
             Convg  =    0.6016D-08             -V/T =  2.0089
 Range of M.O.s used for correlation:     1   178
 NBasis=   178 NAE=    34 NBE=    34 NFC=     0 NFV=     0
 NROrb=    178 NOA=    34 NOB=    34 NVA=   144 NVB=   144

 **** Warning!!: The largest alpha MO coefficient is  0.44001557D+02

 Symmetrizing basis deriv contribution to polar:
 IMax=3 JMax=2 DiffMx= 0.00D+00
 G2DrvN: will do    22 centers at a time, making    1 passes doing MaxLOS=2.
 Calling FoFCou, ICntrl=  3107 FMM=F I1Cent=   0 AccDes= 0.00D+00.
 FoFDir/FoFCou used for L=0 through L=2.
 End of G2Drv Frequency-dependent properties file   721 does not exist.
 End of G2Drv Frequency-dependent properties file   722 does not exist.
          IDoAtm=111111111111111111111
          Differentiating once with respect to electric field.
                with respect to dipole field.
          Differentiating once with respect to nuclear coordinates.
          There are    66 degrees of freedom in the 1st order CPHF.  IDoFFX=5.
     63 vectors produced by pass  0 Test12= 7.42D-15 1.52D-09 XBig12= 3.64D+01 2.08D+00.
 AX will form    63 AO Fock derivatives at one time.
     63 vectors produced by pass  1 Test12= 7.42D-15 1.52D-09 XBig12= 2.53D+00 2.06D-01.
     63 vectors produced by pass  2 Test12= 7.42D-15 1.52D-09 XBig12= 1.99D-02 2.39D-02.
     63 vectors produced by pass  3 Test12= 7.42D-15 1.52D-09 XBig12= 4.05D-05 1.11D-03.
     63 vectors produced by pass  4 Test12= 7.42D-15 1.52D-09 XBig12= 3.84D-08 1.89D-05.
     36 vectors produced by pass  5 Test12= 7.42D-15 1.52D-09 XBig12= 2.65D-11 6.09D-07.
      3 vectors produced by pass  6 Test12= 7.42D-15 1.52D-09 XBig12= 2.50D-14 2.42D-08.
 Inverted reduced A of dimension   354 with in-core refinement.
 Isotropic polarizability for W=    0.000000       66.28 Bohr**3.
 End of Minotr Frequency-dependent properties file   721 does not exist.
 End of Minotr Frequency-dependent properties file   722 does not exist.

 **********************************************************************

            Population analysis using the SCF density.

 **********************************************************************

 Orbital symmetries:
       Occupied  (A) (A) (A) (A) (A) (A) (A) (A) (A) (A) (A) (A)
                 (A) (A) (A) (A) (A) (A) (A) (A) (A) (A) (A) (A)
                 (A) (A) (A) (A) (A) (A) (A) (A) (A) (A)
       Virtual   (A) (A) (A) (A) (A) (A) (A) (A) (A) (A) (A) (A)
                 (A) (A) (A) (A) (A) (A) (A) (A) (A) (A) (A) (A)
                 (A) (A) (A) (A) (A) (A) (A) (A) (A) (A) (A) (A)
                 (A) (A) (A) (A) (A) (A) (A) (A) (A) (A) (A) (A)
                 (A) (A) (A) (A) (A) (A) (A) (A) (A) (A) (A) (A)
                 (A) (A) (A) (A) (A) (A) (A) (A) (A) (A) (A) (A)
                 (A) (A) (A) (A) (A) (A) (A) (A) (A) (A) (A) (A)
                 (A) (A) (A) (A) (A) (A) (A) (A) (A) (A) (A) (A)
                 (A) (A) (A) (A) (A) (A) (A) (A) (A) (A) (A) (A)
                 (A) (A) (A) (A) (A) (A) (A) (A) (A) (A) (A) (A)
                 (A) (A) (A) (A) (A) (A) (A) (A) (A) (A) (A) (A)
                 (A) (A) (A) (A) (A) (A) (A) (A) (A) (A) (A) (A)
 The electronic state is 1-A.
 Alpha  occ. eigenvalues --  -19.43002 -19.40026 -19.38879 -19.38296 -10.56985
 Alpha  occ. eigenvalues --  -10.43571 -10.40519 -10.37626  -1.31608  -1.24724
 Alpha  occ. eigenvalues --   -1.22031  -1.21071  -0.94256  -0.89195  -0.85379
 Alpha  occ. eigenvalues --   -0.82557  -0.76422  -0.75601  -0.70712  -0.68181
 Alpha  occ. eigenvalues --   -0.66037  -0.64241  -0.60849  -0.60317  -0.59695
 Alpha  occ. eigenvalues --   -0.58359  -0.57789  -0.56400  -0.54812  -0.53758
 Alpha  occ. eigenvalues --   -0.51373  -0.50282  -0.49985  -0.46923
 Alpha virt. eigenvalues --   -0.15367  -0.13383  -0.12098  -0.10864  -0.10126
 Alpha virt. eigenvalues --   -0.09173  -0.08321  -0.07942  -0.06692  -0.06040
 Alpha virt. eigenvalues --   -0.05082  -0.04549  -0.03980  -0.03746  -0.01660
 Alpha virt. eigenvalues --   -0.01280  -0.01024   0.01078   0.01433   0.01685
 Alpha virt. eigenvalues --    0.02642   0.03862   0.04132   0.04287   0.05167
 Alpha virt. eigenvalues --    0.06071   0.07035   0.08103   0.08561   0.09041
 Alpha virt. eigenvalues --    0.10388   0.11162   0.12539   0.12817   0.13269
 Alpha virt. eigenvalues --    0.13750   0.14142   0.15125   0.16088   0.17413
 Alpha virt. eigenvalues --    0.17857   0.18563   0.19249   0.20797   0.21884
 Alpha virt. eigenvalues --    0.22298   0.24434   0.25068   0.26710   0.29389
 Alpha virt. eigenvalues --    0.32208   0.47931   0.48874   0.50836   0.52162
 Alpha virt. eigenvalues --    0.53887   0.55545   0.58495   0.60337   0.60504
 Alpha virt. eigenvalues --    0.62451   0.66495   0.69204   0.77394   0.78703
 Alpha virt. eigenvalues --    0.80119   0.82012   0.83042   0.83839   0.88803
 Alpha virt. eigenvalues --    0.90214   0.91554   0.92486   0.93218   0.94484
 Alpha virt. eigenvalues --    0.96213   0.99071   1.00722   1.02987   1.03820
 Alpha virt. eigenvalues --    1.06068   1.07545   1.08750   1.13531   1.13914
 Alpha virt. eigenvalues --    1.14441   1.16294   1.17858   1.22018   1.24333
 Alpha virt. eigenvalues --    1.26243   1.32803   1.34595   1.36802   1.40969
 Alpha virt. eigenvalues --    1.41218   1.46617   1.49480   1.51516   1.55731
 Alpha virt. eigenvalues --    1.56392   1.57555   1.63066   1.64705   1.65736
 Alpha virt. eigenvalues --    1.70109   1.73392   1.79824   1.84515   1.86767
 Alpha virt. eigenvalues --    1.87976   1.91776   1.95546   1.98233   2.00379
 Alpha virt. eigenvalues --    2.03981   2.05101   2.06455   2.10006   2.12494
 Alpha virt. eigenvalues --    2.17214   2.18526   2.20113   2.22233   2.31791
 Alpha virt. eigenvalues --    2.32385   2.34709   2.43465   2.53782   2.54984
 Alpha virt. eigenvalues --    2.60836   2.66865   2.67095   2.71288   2.81031
 Alpha virt. eigenvalues --    2.82886   3.98121   4.00727   4.06004   4.12444
 Alpha virt. eigenvalues --    4.16511   4.17216   4.31319   4.47010
          Condensed to atoms (all electrons):
              1          2          3          4          5          6
     1  C    5.944913   0.397871   0.322580   0.426639  -0.232148  -0.017398
     2  H    0.397871   0.418842  -0.022126  -0.017095  -0.054607   0.000046
     3  H    0.322580  -0.022126   0.482198  -0.024621   0.017391  -0.000367
     4  H    0.426639  -0.017095  -0.024621   0.431230  -0.090404   0.005925
     5  C   -0.232148  -0.054607   0.017391  -0.090404   5.398418  -0.098174
     6  O   -0.017398   0.000046  -0.000367   0.005925  -0.098174   8.968518
     7  O   -0.096896   0.005872  -0.007746   0.001127   0.357636  -0.118809
     8  H    0.001755   0.000089   0.000688  -0.000316   0.004965  -0.002283
     9  O   -0.139414  -0.004257   0.007943  -0.003268   0.376561  -0.103450
    10  H    0.011255  -0.000013  -0.000219  -0.000093   0.012489  -0.009089
    11  C   -0.022300   0.001085  -0.004768   0.001353  -0.073080   0.050620
    12  H    0.004335  -0.000019   0.000030   0.000002  -0.004326  -0.029848
    13  H   -0.024265   0.000007   0.002145  -0.000087   0.037108  -0.035251
    14  H    0.001071   0.000001  -0.000069   0.000011  -0.018205  -0.054924
    15  H   -0.015122  -0.000146   0.000142  -0.000071   0.036453   0.059741
    16  C    0.002555  -0.000116   0.000076  -0.000011  -0.012689   0.003216
    17  H    0.000858   0.000002   0.000000   0.000000  -0.005351   0.003314
    18  H   -0.000576   0.000000   0.000000   0.000000   0.000871  -0.001218
    19  H    0.000290   0.000000   0.000000   0.000000  -0.000607  -0.000033
    20  O   -0.005352  -0.000073  -0.000033   0.000047   0.006627  -0.076381
    21  H    0.000603   0.000000   0.000000   0.000000  -0.002652   0.004718
              7          8          9         10         11         12
     1  C   -0.096896   0.001755  -0.139414   0.011255  -0.022300   0.004335
     2  H    0.005872   0.000089  -0.004257  -0.000013   0.001085  -0.000019
     3  H   -0.007746   0.000688   0.007943  -0.000219  -0.004768   0.000030
     4  H    0.001127  -0.000316  -0.003268  -0.000093   0.001353   0.000002
     5  C    0.357636   0.004965   0.376561   0.012489  -0.073080  -0.004326
     6  O   -0.118809  -0.002283  -0.103450  -0.009089   0.050620  -0.029848
     7  O    8.335693   0.192043  -0.097692  -0.001991   0.003594   0.000169
     8  H    0.192043   0.279258   0.007567  -0.000174  -0.007724   0.000006
     9  O   -0.097692   0.007567   8.410044   0.174683  -0.009456  -0.000274
    10  H   -0.001991  -0.000174   0.174683   0.272877  -0.001500  -0.000001
    11  C    0.003594  -0.007724  -0.009456  -0.001500   5.248130   0.382291
    12  H    0.000169   0.000006  -0.000274  -0.000001   0.382291   0.442858
    13  H   -0.007558   0.000316  -0.000275   0.000000   0.382443  -0.018848
    14  H    0.009905  -0.000566  -0.000106   0.000007   0.400939  -0.025979
    15  H    0.003314  -0.000019  -0.001902   0.001183  -0.011990  -0.002512
    16  C   -0.000911   0.000070  -0.004014   0.000312  -0.003173  -0.000661
    17  H    0.000015   0.000000   0.003171  -0.000205   0.000414  -0.000001
    18  H    0.000025   0.000000  -0.000487   0.000026   0.000030   0.000000
    19  H   -0.000006   0.000000   0.000003  -0.000001  -0.000162  -0.000001
    20  O    0.004045  -0.000047  -0.005577   0.000273   0.010675   0.000743
    21  H   -0.000111  -0.000001   0.001556  -0.000054   0.000048  -0.000136
             13         14         15         16         17         18
     1  C   -0.024265   0.001071  -0.015122   0.002555   0.000858  -0.000576
     2  H    0.000007   0.000001  -0.000146  -0.000116   0.000002   0.000000
     3  H    0.002145  -0.000069   0.000142   0.000076   0.000000   0.000000
     4  H   -0.000087   0.000011  -0.000071  -0.000011   0.000000   0.000000
     5  C    0.037108  -0.018205   0.036453  -0.012689  -0.005351   0.000871
     6  O   -0.035251  -0.054924   0.059741   0.003216   0.003314  -0.001218
     7  O   -0.007558   0.009905   0.003314  -0.000911   0.000015   0.000025
     8  H    0.000316  -0.000566  -0.000019   0.000070   0.000000   0.000000
     9  O   -0.000275  -0.000106  -0.001902  -0.004014   0.003171  -0.000487
    10  H    0.000000   0.000007   0.001183   0.000312  -0.000205   0.000026
    11  C    0.382443   0.400939  -0.011990  -0.003173   0.000414   0.000030
    12  H   -0.018848  -0.025979  -0.002512  -0.000661  -0.000001   0.000000
    13  H    0.451821  -0.028714   0.002491   0.000141   0.000001   0.000000
    14  H   -0.028714   0.457105  -0.000863  -0.000245   0.000000   0.000000
    15  H    0.002491  -0.000863   0.203848  -0.007398  -0.002302   0.000931
    16  C    0.000141  -0.000245  -0.007398   5.128404   0.398800   0.390263
    17  H    0.000001   0.000000  -0.002302   0.398800   0.459856  -0.023356
    18  H    0.000000   0.000000   0.000931   0.390263  -0.023356   0.473203
    19  H   -0.000001   0.000000   0.000114   0.393950  -0.025947  -0.030790
    20  O   -0.000326   0.000326   0.103315   0.084171  -0.048469  -0.037551
    21  H    0.000009   0.000055  -0.005335  -0.016458   0.004504  -0.003440
             19         20         21
     1  C    0.000290  -0.005352   0.000603
     2  H    0.000000  -0.000073   0.000000
     3  H    0.000000  -0.000033   0.000000
     4  H    0.000000   0.000047   0.000000
     5  C   -0.000607   0.006627  -0.002652
     6  O   -0.000033  -0.076381   0.004718
     7  O   -0.000006   0.004045  -0.000111
     8  H    0.000000  -0.000047  -0.000001
     9  O    0.000003  -0.005577   0.001556
    10  H   -0.000001   0.000273  -0.000054
    11  C   -0.000162   0.010675   0.000048
    12  H   -0.000001   0.000743  -0.000136
    13  H   -0.000001  -0.000326   0.000009
    14  H    0.000000   0.000326   0.000055
    15  H    0.000114   0.103315  -0.005335
    16  C    0.393950   0.084171  -0.016458
    17  H   -0.025947  -0.048469   0.004504
    18  H   -0.030790  -0.037551  -0.003440
    19  H    0.489394  -0.051122  -0.003255
    20  O   -0.051122   8.606082   0.202846
    21  H   -0.003255   0.202846   0.277614
 Mulliken atomic charges:
              1
     1  C   -0.561254
     2  H    0.274637
     3  H    0.226756
     4  H    0.269631
     5  C    0.343725
     6  O   -0.548873
     7  O   -0.581720
     8  H    0.524373
     9  O   -0.611357
    10  H    0.540236
    11  C   -0.347470
    12  H    0.252170
    13  H    0.238843
    14  H    0.260250
    15  H    0.636126
    16  C   -0.356283
    17  H    0.234698
    18  H    0.232069
    19  H    0.228174
    20  O   -0.794218
    21  H    0.539488
 Sum of Mulliken atomic charges =   1.00000
 Mulliken charges with hydrogens summed into heavy atoms:
              1
     1  C    0.209770
     5  C    0.343725
     6  O    0.087254
     7  O   -0.057347
     9  O   -0.071121
    11  C    0.403793
    16  C    0.338658
    20  O   -0.254730
 Sum of Mulliken charges with hydrogens summed into heavy atoms =   1.00000
 APT atomic charges:
              1
     1  C   -0.096814
     2  H    0.067653
     3  H    0.035790
     4  H    0.057672
     5  C    1.522608
     6  O   -1.004328
     7  O   -0.689841
     8  H    0.327903
     9  O   -0.704271
    10  H    0.333421
    11  C    0.381589
    12  H    0.043365
    13  H    0.038708
    14  H    0.027902
    15  H    0.662061
    16  C    0.449812
    17  H    0.036257
    18  H    0.006270
    19  H   -0.000908
    20  O   -0.777713
    21  H    0.282866
 Sum of APT charges=   1.00000
 APT Atomic charges with hydrogens summed into heavy atoms:
              1
     1  C    0.064300
     2  H    0.000000
     3  H    0.000000
     4  H    0.000000
     5  C    1.522608
     6  O   -0.342267
     7  O   -0.361939
     8  H    0.000000
     9  O   -0.370850
    10  H    0.000000
    11  C    0.491564
    12  H    0.000000
    13  H    0.000000
    14  H    0.000000
    15  H    0.000000
    16  C    0.491430
    17  H    0.000000
    18  H    0.000000
    19  H    0.000000
    20  O   -0.494847
    21  H    0.000000
 Sum of APT charges=   1.00000
 Electronic spatial extent (au):  <R**2>=           1302.5849
 Charge=              1.0000 electrons
 Dipole moment (field-independent basis, Debye):
    X=              0.0824    Y=              2.5034    Z=              0.5472  Tot=              2.5638
 Quadrupole moment (field-independent basis, Debye-Ang):
   XX=            -16.7346   YY=            -38.5485   ZZ=            -45.4914
   XY=              0.2203   XZ=              1.1044   YZ=             -0.1704
 Traceless Quadrupole moment (field-independent basis, Debye-Ang):
   XX=             16.8569   YY=             -4.9570   ZZ=            -11.8999
   XY=              0.2203   XZ=              1.1044   YZ=             -0.1704
 Octapole moment (field-independent basis, Debye-Ang**2):
  XXX=             24.9210  YYY=             17.3430  ZZZ=              4.4646  XYY=              2.9266
  XXY=              1.5288  XXZ=              7.9580  XZZ=             -0.0798  YZZ=             -2.1201
  YYZ=              5.5900  XYZ=              1.4587
 Hexadecapole moment (field-independent basis, Debye-Ang**3):
 XXXX=           -717.4192 YYYY=           -359.7925 ZZZZ=           -196.2998 XXXY=             10.4461
 XXXZ=            -14.4061 YYYX=             -0.9310 YYYZ=            -14.7923 ZZZX=              0.2437
 ZZZY=              2.4756 XXYY=           -205.0853 XXZZ=           -170.9187 YYZZ=            -88.0581
 XXYZ=             14.4349 YYXZ=              7.3563 ZZXY=              3.7290
 N-N= 4.509934108469D+02 E-N=-1.968339867031D+03  KE= 4.566334446077D+02
  Exact polarizability:  72.730  -0.672  66.963   0.418  -0.064  59.140
 Approx polarizability:  86.299  -1.716  85.536  -0.767  -0.035  80.192
 Calling FoFJK, ICntrl=    100127 FMM=F ISym2X=0 I1Cent= 0 IOpClX= 0 NMat=1 NMatS=1 NMatT=0.
 Full mass-weighted force constant matrix:
 Low frequencies ---  -12.4719   -9.7791    0.0008    0.0010    0.0012   13.5795
 Low frequencies ---   33.2688   58.7555   78.5488
 Diagonal vibrational polarizability:
       85.7106571      71.0578867     134.7715532
 Harmonic frequencies (cm**-1), IR intensities (KM/Mole), Raman scattering
 activities (A**4/AMU), depolarization ratios for plane and unpolarized
 incident light, reduced masses (AMU), force constants (mDyne/A),
 and normal coordinates:
                     1                      2                      3
                     A                      A                      A
 Frequencies --    30.5207                58.7117                78.3114
 Red. masses --     2.6104                 3.1783                 1.3505
 Frc consts  --     0.0014                 0.0065                 0.0049
 IR Inten    --     3.3605                 1.0041                 4.6093
  Atom  AN      X      Y      Z        X      Y      Z        X      Y      Z
     1   6    -0.13   0.05   0.10    -0.02   0.00   0.05    -0.02   0.05   0.02
     2   1    -0.23   0.08   0.04    -0.08   0.06   0.00    -0.05   0.06  -0.01
     3   1    -0.13   0.07   0.20    -0.08  -0.03   0.12    -0.02   0.05   0.06
     4   1    -0.12   0.06   0.14     0.04  -0.04   0.07    -0.01   0.04   0.02
     5   6    -0.01  -0.01   0.00     0.05   0.01  -0.03     0.02   0.01  -0.01
     6   8     0.00  -0.02  -0.08    -0.04   0.06  -0.05     0.03  -0.03   0.01
     7   8     0.13  -0.02   0.05     0.12  -0.06   0.02     0.05  -0.01   0.01
     8   1     0.15   0.05   0.15     0.11  -0.11   0.10     0.04  -0.07   0.05
     9   8    -0.04  -0.04  -0.12     0.11   0.05  -0.12    -0.01  -0.02  -0.05
    10   1     0.08  -0.05  -0.16     0.13   0.01  -0.13    -0.04  -0.08  -0.04
    11   6     0.01  -0.01  -0.13    -0.10   0.04   0.02     0.02  -0.02  -0.05
    12   1     0.04  -0.03  -0.12    -0.16   0.09  -0.02     0.05  -0.04  -0.02
    13   1     0.03  -0.01  -0.17    -0.14   0.00   0.09     0.05  -0.02  -0.11
    14   1    -0.02   0.02  -0.14    -0.03   0.00   0.03    -0.04   0.00  -0.06
    15   1    -0.03  -0.02  -0.03    -0.02   0.09  -0.08     0.03  -0.03   0.05
    16   6     0.08   0.10   0.07    -0.09  -0.22   0.18    -0.06   0.03   0.00
    17   1     0.16   0.27  -0.24    -0.17  -0.22   0.27    -0.04  -0.30   0.41
    18   1    -0.08  -0.10   0.09    -0.23  -0.20   0.34     0.30   0.42  -0.08
    19   1     0.26   0.25   0.35     0.07  -0.44   0.09    -0.48  -0.01  -0.36
    20   8    -0.05  -0.06   0.08    -0.03   0.10  -0.06    -0.02   0.00   0.08
    21   1    -0.13  -0.16   0.29     0.03   0.16  -0.20    -0.02   0.11  -0.08
                     4                      5                      6
                     A                      A                      A
 Frequencies --    83.0334               114.1300               149.9265
 Red. masses --     3.2877                 1.7575                 1.7502
 Frc consts  --     0.0134                 0.0135                 0.0232
 IR Inten    --     0.2266                 1.8442                 7.5227
  Atom  AN      X      Y      Z        X      Y      Z        X      Y      Z
     1   6     0.10  -0.06   0.00    -0.02  -0.08   0.01     0.02   0.02  -0.01
     2   1     0.13  -0.03   0.00    -0.03  -0.14   0.02     0.01  -0.06   0.00
     3   1     0.03  -0.10  -0.02     0.00  -0.07  -0.05     0.07   0.04  -0.07
     4   1     0.16  -0.11   0.00    -0.03  -0.05   0.06    -0.02   0.07   0.03
     5   6     0.07   0.02   0.01    -0.02  -0.02  -0.01     0.04   0.03  -0.03
     6   8     0.02   0.08   0.00    -0.04   0.05  -0.12     0.03  -0.09   0.02
     7   8     0.05   0.02   0.00     0.01   0.03  -0.02     0.04   0.07  -0.02
     8   1     0.04  -0.03  -0.01     0.04   0.17  -0.03    -0.03  -0.23   0.02
     9   8     0.13   0.07   0.03     0.02   0.03   0.01    -0.01  -0.04  -0.01
    10   1     0.21   0.16   0.01     0.15   0.15  -0.02    -0.12  -0.11   0.02
    11   6    -0.08   0.06  -0.07     0.02   0.03   0.10     0.06  -0.07   0.03
    12   1    -0.08   0.09  -0.01    -0.18   0.08  -0.20    -0.15  -0.10  -0.37
    13   1    -0.04   0.00  -0.15    -0.19   0.01   0.49    -0.16  -0.18   0.41
    14   1    -0.18   0.08  -0.08     0.44   0.00   0.14     0.48   0.04   0.05
    15   1    -0.01   0.10   0.07    -0.05   0.01  -0.16     0.05  -0.07   0.06
    16   6    -0.20  -0.02  -0.12     0.06   0.02   0.03    -0.12   0.04  -0.01
    17   1    -0.28   0.18  -0.27     0.18  -0.17   0.14    -0.20   0.20  -0.13
    18   1    -0.20  -0.25  -0.30     0.22   0.23   0.03    -0.24  -0.14  -0.03
    19   1    -0.18   0.13   0.03    -0.12   0.06  -0.07     0.02   0.04   0.10
    20   8    -0.09  -0.16   0.14    -0.05  -0.10   0.01    -0.05   0.08   0.03
    21   1    -0.02  -0.30   0.26    -0.12  -0.07   0.04    -0.03   0.11  -0.03
                     7                      8                      9
                     A                      A                      A
 Frequencies --   167.9738               178.6993               232.8977
 Red. masses --     2.1509                 2.0733                 1.5676
 Frc consts  --     0.0358                 0.0390                 0.0501
 IR Inten    --    14.1724                 2.0150                 5.5286
  Atom  AN      X      Y      Z        X      Y      Z        X      Y      Z
     1   6     0.00  -0.03   0.01     0.03   0.07  -0.01     0.00  -0.02   0.01
     2   1    -0.04  -0.14   0.02     0.05   0.18  -0.03     0.03   0.45  -0.09
     3   1     0.01  -0.04  -0.06    -0.05   0.02   0.06    -0.34  -0.19   0.33
     4   1     0.01  -0.01   0.11     0.10  -0.01  -0.08     0.32  -0.35  -0.20
     5   6     0.06   0.07  -0.05     0.03   0.06   0.00     0.00   0.01   0.01
     6   8    -0.03  -0.06   0.01    -0.02  -0.01   0.13    -0.02  -0.02   0.03
     7   8     0.05   0.17  -0.04    -0.02   0.03   0.01    -0.05  -0.04   0.01
     8   1    -0.10  -0.52   0.06    -0.13  -0.42   0.06    -0.07  -0.14   0.00
     9   8     0.03   0.01  -0.01     0.01   0.03  -0.02     0.04   0.04   0.01
    10   1     0.00   0.04   0.00    -0.04  -0.03  -0.02    -0.01   0.01   0.02
    11   6    -0.02  -0.07   0.11    -0.15  -0.01  -0.08     0.14   0.04  -0.03
    12   1     0.18  -0.07   0.45    -0.35  -0.01  -0.43     0.21  -0.09  -0.09
    13   1     0.15   0.08  -0.17    -0.30  -0.27   0.12     0.14   0.12  -0.01
    14   1    -0.35  -0.26   0.10     0.07   0.22  -0.10     0.20   0.11  -0.04
    15   1     0.02  -0.10  -0.04     0.02   0.00   0.09     0.00  -0.08  -0.02
    16   6     0.04   0.01   0.02     0.12  -0.03   0.00    -0.01   0.02   0.01
    17   1     0.14  -0.04  -0.02     0.20  -0.12   0.03     0.05  -0.01  -0.01
    18   1     0.02   0.08   0.10     0.16   0.07   0.03    -0.03   0.06   0.07
    19   1     0.05   0.05   0.07     0.06   0.00  -0.02     0.01   0.03   0.04
    20   8    -0.10  -0.05  -0.06     0.03  -0.09  -0.03    -0.09  -0.01  -0.05
    21   1    -0.19  -0.02  -0.01    -0.01  -0.11   0.04    -0.15   0.03  -0.04
                    10                     11                     12
                     A                      A                      A
 Frequencies --   244.3415               268.1557               346.9811
 Red. masses --     1.7908                 2.2566                 3.1280
 Frc consts  --     0.0630                 0.0956                 0.2219
 IR Inten    --     8.2306                29.2131                14.7796
  Atom  AN      X      Y      Z        X      Y      Z        X      Y      Z
     1   6    -0.04  -0.03   0.00     0.11   0.13  -0.05    -0.12   0.08   0.08
     2   1    -0.04   0.45  -0.12     0.20   0.35  -0.06    -0.34   0.04  -0.03
     3   1    -0.39  -0.20   0.34     0.08   0.12   0.08    -0.10   0.11   0.19
     4   1     0.29  -0.35  -0.19     0.13   0.05  -0.26    -0.12   0.14   0.25
     5   6    -0.01  -0.01  -0.02     0.04   0.00   0.03     0.04   0.08  -0.05
     6   8     0.03   0.00  -0.06     0.04  -0.01  -0.05     0.03  -0.09  -0.04
     7   8     0.02   0.10  -0.04     0.07  -0.02   0.04    -0.11  -0.06  -0.07
     8   1     0.02   0.07  -0.03     0.21   0.60  -0.04     0.00   0.42  -0.26
     9   8    -0.06  -0.03   0.01    -0.03  -0.05   0.09     0.18   0.17   0.03
    10   1     0.03   0.05  -0.01    -0.12  -0.08   0.11    -0.37  -0.14   0.17
    11   6    -0.07  -0.05   0.05    -0.09  -0.07   0.02    -0.03  -0.14   0.01
    12   1    -0.12   0.05   0.11    -0.15   0.05   0.08    -0.08  -0.07   0.03
    13   1    -0.08  -0.09   0.07    -0.09  -0.12   0.01    -0.04  -0.17   0.03
    14   1    -0.09  -0.16   0.07    -0.12  -0.14   0.02    -0.02  -0.20   0.02
    15   1    -0.01   0.04   0.01     0.07   0.02  -0.06     0.04  -0.13   0.03
    16   6     0.00  -0.01  -0.02     0.00   0.02   0.02     0.02   0.00  -0.01
    17   1    -0.10   0.05   0.00     0.10  -0.05  -0.01     0.01   0.04  -0.05
    18   1     0.02  -0.09  -0.10    -0.03   0.09   0.11     0.00  -0.05  -0.03
    19   1    -0.01  -0.03  -0.04     0.01   0.04   0.05     0.03   0.03   0.03
    20   8     0.12   0.02   0.08    -0.13  -0.02  -0.09     0.02  -0.03   0.03
    21   1     0.19   0.01   0.02    -0.22   0.00  -0.03     0.01   0.09  -0.12
                    13                     14                     15
                     A                      A                      A
 Frequencies --   378.0577               428.2979               433.6644
 Red. masses --     1.8898                 1.4194                 1.2314
 Frc consts  --     0.1591                 0.1534                 0.1364
 IR Inten    --    63.2200                74.0720               173.1685
  Atom  AN      X      Y      Z        X      Y      Z        X      Y      Z
     1   6    -0.01  -0.13   0.01    -0.02   0.03   0.05    -0.01   0.02   0.04
     2   1    -0.03  -0.23   0.03    -0.16   0.05  -0.02    -0.08   0.03  -0.01
     3   1    -0.17  -0.25  -0.12     0.03   0.08   0.17     0.04   0.06   0.11
     4   1     0.14  -0.19   0.21    -0.06   0.08   0.10    -0.05   0.06   0.05
     5   6     0.02   0.08  -0.04     0.04  -0.04  -0.01     0.01  -0.04   0.01
     6   8     0.05   0.00   0.15     0.06   0.00   0.02     0.05   0.01   0.04
     7   8     0.02   0.03  -0.02    -0.05   0.01  -0.06    -0.05   0.01  -0.04
     8   1     0.18   0.72  -0.14    -0.06  -0.02  -0.16    -0.04   0.05  -0.12
     9   8    -0.05   0.00  -0.09     0.02  -0.05   0.02    -0.01  -0.04  -0.01
    10   1    -0.08  -0.11  -0.10     0.36   0.23  -0.06     0.56   0.35  -0.14
    11   6     0.00   0.01   0.02     0.01  -0.01   0.00     0.00  -0.01   0.00
    12   1    -0.02   0.00  -0.03    -0.03   0.02  -0.01    -0.04   0.03  -0.01
    13   1     0.00  -0.08  -0.03    -0.01  -0.06   0.01     0.00  -0.07  -0.03
    14   1    -0.03   0.12   0.00     0.00   0.00   0.00    -0.04   0.02  -0.01
    15   1     0.08  -0.02   0.15     0.05   0.08   0.04     0.08   0.01  -0.02
    16   6     0.00   0.00   0.00    -0.03   0.00   0.01     0.00   0.00   0.00
    17   1     0.03  -0.03   0.01    -0.03  -0.08   0.12     0.03   0.04  -0.08
    18   1    -0.01   0.04   0.04     0.00   0.08   0.04    -0.03  -0.03   0.01
    19   1     0.00   0.00   0.00    -0.06  -0.07  -0.08     0.04   0.04   0.06
    20   8    -0.03   0.00  -0.03    -0.02   0.06  -0.07    -0.03  -0.03   0.02
    21   1    -0.05  -0.04   0.05     0.02  -0.48   0.62    -0.09   0.41  -0.52
                    16                     17                     18
                     A                      A                      A
 Frequencies --   454.8381               531.7628               561.7357
 Red. masses --     2.0868                 3.7775                 2.9962
 Frc consts  --     0.2544                 0.6294                 0.5570
 IR Inten    --    47.6506                56.4447                 4.9824
  Atom  AN      X      Y      Z        X      Y      Z        X      Y      Z
     1   6     0.04   0.02  -0.07     0.12  -0.03   0.12    -0.13  -0.04  -0.13
     2   1     0.24   0.04   0.03     0.30  -0.12   0.24    -0.11  -0.11  -0.10
     3   1     0.06   0.01  -0.18     0.00  -0.14  -0.11    -0.22  -0.11  -0.22
     4   1     0.00   0.01  -0.21     0.23  -0.11   0.14    -0.05  -0.07  -0.03
     5   6    -0.06   0.05   0.04    -0.02   0.08   0.14    -0.08   0.05  -0.08
     6   8    -0.10  -0.12   0.01     0.18   0.04  -0.15     0.19   0.04   0.01
     7   8     0.00   0.02   0.09    -0.17  -0.01   0.12     0.09  -0.12   0.03
     8   1     0.06   0.30   0.12    -0.24  -0.29  -0.01     0.04  -0.35   0.35
     9   8     0.01   0.11  -0.06    -0.07   0.06  -0.15    -0.08   0.12   0.11
    10   1     0.56   0.43  -0.20    -0.03  -0.34  -0.23     0.04   0.53   0.13
    11   6     0.02  -0.12   0.00     0.01  -0.08  -0.01     0.02  -0.06   0.00
    12   1     0.08  -0.19  -0.01    -0.14   0.17   0.09    -0.13   0.13   0.03
    13   1     0.03  -0.03   0.00    -0.03  -0.20   0.02    -0.01  -0.24   0.00
    14   1     0.05  -0.11   0.00    -0.05  -0.24   0.01    -0.06  -0.08   0.00
    15   1    -0.11  -0.11  -0.01     0.17   0.07  -0.06     0.18   0.01   0.12
    16   6     0.00  -0.01   0.00    -0.01   0.00   0.00     0.00   0.00   0.00
    17   1    -0.04   0.00   0.04     0.00  -0.01   0.01     0.01  -0.01   0.00
    18   1     0.01  -0.01  -0.03    -0.01   0.02   0.03    -0.02   0.03   0.04
    19   1    -0.02  -0.03  -0.04    -0.01   0.00   0.00     0.00   0.00   0.01
    20   8     0.04   0.03   0.01    -0.02   0.00  -0.02    -0.03   0.00  -0.03
    21   1     0.07  -0.11   0.17    -0.04  -0.02   0.04    -0.06  -0.01   0.02
                    19                     20                     21
                     A                      A                      A
 Frequencies --   626.0906               859.9950               985.0659
 Red. masses --     4.2552                 5.4567                 4.5388
 Frc consts  --     0.9828                 2.3778                 2.5949
 IR Inten    --   290.8961               127.8920               167.5767
  Atom  AN      X      Y      Z        X      Y      Z        X      Y      Z
     1   6     0.12   0.04   0.09     0.19   0.00   0.25     0.01   0.02  -0.09
     2   1    -0.09  -0.12   0.01     0.35   0.07   0.33    -0.33  -0.12  -0.24
     3   1    -0.11  -0.11   0.02     0.33   0.08   0.31    -0.15  -0.06   0.05
     4   1     0.36  -0.03   0.49     0.12   0.02   0.09     0.12   0.03   0.25
     5   6     0.20   0.28  -0.12    -0.16  -0.14  -0.01     0.05   0.00   0.01
     6   8    -0.11  -0.06  -0.08    -0.06   0.07   0.07    -0.10   0.26   0.05
     7   8    -0.02  -0.18  -0.02     0.12  -0.06  -0.28    -0.01   0.02   0.05
     8   1     0.00  -0.12  -0.14     0.12  -0.13   0.09    -0.03  -0.03  -0.02
     9   8    -0.17  -0.05   0.08    -0.15   0.20  -0.01     0.01  -0.04   0.01
    10   1     0.14   0.42   0.04    -0.29   0.17   0.03     0.00  -0.13   0.00
    11   6    -0.02   0.06   0.00     0.04  -0.16  -0.02     0.08  -0.30  -0.05
    12   1     0.10  -0.09   0.00     0.01  -0.11  -0.03     0.09  -0.30  -0.03
    13   1    -0.01   0.18   0.03     0.05  -0.09  -0.03     0.11  -0.02  -0.02
    14   1     0.06  -0.05   0.02     0.01   0.01  -0.04     0.11  -0.10  -0.07
    15   1    -0.05  -0.02  -0.15    -0.12   0.02   0.01     0.04   0.34  -0.31
    16   6     0.02  -0.01  -0.01    -0.01   0.01   0.01     0.13  -0.12  -0.12
    17   1    -0.02   0.01   0.00     0.01   0.00   0.00     0.06  -0.09  -0.08
    18   1     0.02  -0.04  -0.04     0.00   0.01   0.00     0.09  -0.06  -0.05
    19   1     0.00   0.00  -0.01    -0.01   0.00   0.01     0.09  -0.05  -0.08
    20   8     0.04   0.01   0.04     0.00  -0.01  -0.01    -0.10   0.10   0.11
    21   1     0.06   0.01   0.01     0.02  -0.01  -0.02     0.01   0.04   0.09
                    22                     23                     24
                     A                      A                      A
 Frequencies --   986.3430              1019.6778              1065.9304
 Red. masses --     4.5835                 1.6192                 1.1503
 Frc consts  --     2.6273                 0.9919                 0.7701
 IR Inten    --    52.1426                10.1262                29.6603
  Atom  AN      X      Y      Z        X      Y      Z        X      Y      Z
     1   6    -0.01  -0.02   0.08     0.11  -0.09  -0.06     0.03   0.05  -0.01
     2   1     0.26   0.11   0.19    -0.48   0.07  -0.41    -0.05  -0.12  -0.01
     3   1     0.14   0.06  -0.02     0.30   0.12   0.58    -0.15  -0.07  -0.04
     4   1    -0.12  -0.02  -0.23    -0.14   0.17   0.16     0.19  -0.01   0.23
     5   6    -0.04   0.00  -0.01     0.02  -0.05  -0.04    -0.05  -0.02  -0.01
     6   8     0.06  -0.13  -0.04     0.01  -0.03  -0.01     0.00   0.00  -0.02
     7   8     0.01  -0.01  -0.04    -0.02   0.02   0.07    -0.01   0.01   0.00
     8   1     0.02   0.02   0.01    -0.02   0.04   0.13     0.00   0.03   0.18
     9   8     0.00   0.02  -0.01    -0.06   0.08  -0.02     0.03  -0.03   0.00
    10   1    -0.03   0.08   0.01    -0.07  -0.02  -0.03     0.02   0.04   0.02
    11   6    -0.04   0.15   0.02    -0.01   0.03   0.00     0.00  -0.01  -0.01
    12   1    -0.01   0.12   0.03    -0.01   0.03   0.00     0.04  -0.04   0.02
    13   1    -0.06   0.11   0.05    -0.01   0.02   0.01    -0.01   0.09   0.04
    14   1    -0.01   0.02   0.04     0.00  -0.01   0.01     0.06  -0.06   0.00
    15   1    -0.05  -0.07   0.53    -0.03  -0.02   0.11    -0.18   0.07   0.47
    16   6     0.22  -0.21  -0.22     0.00   0.00   0.00    -0.05  -0.01  -0.01
    17   1     0.13  -0.17  -0.15     0.02  -0.01  -0.01     0.32  -0.18  -0.20
    18   1     0.12  -0.07  -0.02     0.00   0.01   0.01    -0.03   0.23   0.17
    19   1     0.17  -0.08  -0.12     0.00   0.00   0.00     0.00   0.16   0.19
    20   8    -0.19   0.17   0.16     0.00   0.00   0.00     0.00   0.00  -0.01
    21   1    -0.09   0.11   0.16     0.01   0.00  -0.01     0.41  -0.16  -0.19
                    25                     26                     27
                     A                      A                      A
 Frequencies --  1081.3104              1136.7454              1147.6915
 Red. masses --     1.4250                 1.3950                 1.5042
 Frc consts  --     0.9817                 1.0621                 1.1673
 IR Inten    --   102.0675                62.7854                63.7888
  Atom  AN      X      Y      Z        X      Y      Z        X      Y      Z
     1   6     0.07   0.09  -0.02    -0.01  -0.04   0.04     0.01  -0.04   0.06
     2   1    -0.12  -0.21  -0.04     0.10   0.11   0.06     0.15   0.12   0.10
     3   1    -0.24  -0.12  -0.02     0.16   0.07   0.06     0.20   0.08   0.10
     4   1     0.33   0.00   0.42    -0.13   0.01  -0.14    -0.11   0.01  -0.13
     5   6    -0.10  -0.05  -0.02     0.00   0.06  -0.06    -0.04   0.04  -0.12
     6   8     0.00  -0.03   0.00     0.00   0.07  -0.02     0.00   0.02   0.01
     7   8    -0.02   0.02  -0.01    -0.02   0.00   0.02    -0.05   0.02   0.04
     8   1     0.00   0.08   0.39    -0.01   0.04   0.14    -0.02   0.12   0.40
     9   8     0.05  -0.03  -0.01     0.03  -0.05  -0.01     0.05  -0.08  -0.04
    10   1    -0.05   0.10   0.05    -0.05   0.13   0.05    -0.31   0.42   0.17
    11   6     0.00   0.03   0.01    -0.01  -0.06  -0.03     0.03   0.00   0.02
    12   1    -0.05   0.10   0.01     0.06  -0.09   0.04    -0.08   0.09  -0.04
    13   1     0.00  -0.06  -0.01    -0.03   0.17   0.08     0.04  -0.22  -0.07
    14   1    -0.05   0.04   0.00     0.11  -0.18   0.00    -0.10   0.07  -0.01
    15   1     0.00  -0.11  -0.07    -0.22  -0.02   0.68     0.14  -0.05  -0.40
    16   6     0.05   0.01   0.00     0.02   0.04   0.02    -0.02  -0.02  -0.01
    17   1    -0.24   0.14   0.15    -0.21   0.12   0.17     0.12  -0.08  -0.09
    18   1     0.03  -0.18  -0.13    -0.04  -0.11  -0.03     0.02   0.07   0.02
    19   1     0.01  -0.13  -0.15     0.04  -0.14  -0.14    -0.03   0.10   0.10
    20   8     0.00   0.00   0.00     0.02  -0.03  -0.03     0.00   0.02   0.01
    21   1    -0.33   0.13   0.13    -0.26   0.11   0.03     0.16  -0.07  -0.02
                    28                     29                     30
                     A                      A                      A
 Frequencies --  1177.5947              1180.2727              1186.6454
 Red. masses --     1.2625                 1.2862                 1.4158
 Frc consts  --     1.0315                 1.0557                 1.1746
 IR Inten    --     7.4731                 3.9130                38.5675
  Atom  AN      X      Y      Z        X      Y      Z        X      Y      Z
     1   6     0.00  -0.01  -0.01     0.00   0.01   0.00     0.00  -0.03  -0.02
     2   1    -0.02   0.02  -0.02     0.01  -0.01   0.01    -0.06   0.05  -0.07
     3   1     0.02   0.01   0.02    -0.01  -0.01  -0.02     0.04   0.02   0.08
     4   1    -0.03   0.01  -0.01     0.02  -0.01   0.00    -0.09   0.05  -0.02
     5   6     0.00   0.03   0.01     0.01  -0.01  -0.01    -0.01   0.09   0.05
     6   8    -0.02   0.01   0.00     0.01   0.02  -0.07    -0.05   0.02  -0.02
     7   8     0.00  -0.01  -0.01     0.00   0.00   0.02     0.00  -0.02  -0.06
     8   1     0.01   0.00   0.03    -0.01  -0.03  -0.11     0.02   0.02   0.26
     9   8     0.00  -0.01   0.01     0.00   0.00   0.00     0.01  -0.02   0.03
    10   1     0.08  -0.10  -0.03    -0.01   0.03   0.00     0.25  -0.33  -0.10
    11   6     0.03   0.00  -0.01    -0.01  -0.03   0.12     0.09   0.01   0.02
    12   1    -0.07   0.15   0.02     0.05  -0.39  -0.29    -0.20   0.34  -0.03
    13   1     0.00  -0.15   0.01     0.18  -0.22  -0.29     0.05  -0.52  -0.06
    14   1    -0.06  -0.08   0.00    -0.16   0.68   0.00    -0.23   0.01  -0.01
    15   1    -0.10  -0.09   0.13    -0.11  -0.06   0.21    -0.16  -0.19   0.12
    16   6     0.02  -0.08   0.09     0.00   0.00   0.01    -0.01   0.03  -0.04
    17   1    -0.02   0.17  -0.20    -0.02   0.02   0.00     0.03  -0.08   0.05
    18   1     0.42  -0.19  -0.43     0.03  -0.03  -0.04    -0.15   0.08   0.16
    19   1    -0.45   0.39   0.19    -0.03   0.02   0.00     0.17  -0.14  -0.06
    20   8    -0.01   0.04  -0.04     0.00   0.00  -0.01     0.00  -0.01   0.02
    21   1    -0.02   0.02   0.00    -0.03   0.02   0.00     0.02  -0.01   0.00
                    31                     32                     33
                     A                      A                      A
 Frequencies --  1200.0979              1368.5393              1382.3440
 Red. masses --     1.3862                 1.3120                 2.2733
 Frc consts  --     1.1763                 1.4478                 2.5594
 IR Inten    --    97.4792                22.4218               143.5276
  Atom  AN      X      Y      Z        X      Y      Z        X      Y      Z
     1   6     0.00  -0.03  -0.01    -0.01   0.00   0.01     0.06  -0.05  -0.05
     2   1    -0.02   0.06  -0.04     0.01   0.00   0.02    -0.15   0.08  -0.19
     3   1     0.06   0.02   0.09     0.00   0.00  -0.03    -0.10  -0.10   0.19
     4   1    -0.10   0.04  -0.03     0.00  -0.02  -0.03    -0.23   0.23   0.11
     5   6    -0.03   0.09   0.05     0.03  -0.02  -0.01    -0.16   0.15   0.19
     6   8     0.05  -0.01  -0.01     0.00  -0.02   0.00     0.02  -0.01  -0.01
     7   8    -0.02  -0.02  -0.08    -0.01   0.00   0.00     0.06  -0.02  -0.04
     8   1     0.02   0.09   0.63     0.00   0.02   0.11     0.03  -0.11  -0.50
     9   8     0.01  -0.01   0.02    -0.01   0.01   0.00     0.05  -0.08  -0.05
    10   1     0.21  -0.30  -0.10    -0.01   0.00   0.00    -0.30   0.44   0.17
    11   6    -0.08  -0.01   0.01     0.01   0.01   0.01    -0.02  -0.01   0.00
    12   1     0.17  -0.34  -0.02     0.01   0.00  -0.01    -0.01   0.03   0.08
    13   1     0.00   0.35  -0.02     0.01  -0.09  -0.02     0.00   0.09  -0.01
    14   1     0.16   0.14   0.01    -0.01  -0.02   0.01     0.08   0.11  -0.01
    15   1     0.17   0.10  -0.18    -0.02   0.20   0.00     0.03  -0.05  -0.01
    16   6     0.00  -0.01   0.01     0.08   0.06   0.05     0.02   0.01   0.01
    17   1     0.00   0.01  -0.02    -0.23   0.22   0.21    -0.06   0.04   0.07
    18   1     0.04   0.00  -0.03    -0.01  -0.28  -0.12    -0.02  -0.05  -0.01
    19   1    -0.04   0.05   0.03    -0.05  -0.15  -0.26    -0.02   0.01  -0.03
    20   8     0.00   0.00   0.00    -0.09  -0.01  -0.01    -0.02   0.00   0.00
    21   1     0.01  -0.01   0.00     0.63  -0.30  -0.31     0.14  -0.07  -0.06
                    34                     35                     36
                     A                      A                      A
 Frequencies --  1429.3632              1474.9535              1481.6331
 Red. masses --     1.2863                 1.1430                 1.8642
 Frc consts  --     1.5484                 1.4650                 2.4111
 IR Inten    --    22.4152                15.8599               126.3676
  Atom  AN      X      Y      Z        X      Y      Z        X      Y      Z
     1   6    -0.06  -0.02  -0.07     0.02   0.00  -0.01    -0.09  -0.02  -0.10
     2   1     0.47   0.11   0.19     0.10   0.00   0.04     0.35   0.06   0.12
     3   1     0.26   0.24   0.35    -0.14  -0.08   0.10     0.05   0.11   0.19
     4   1     0.20  -0.05   0.51    -0.13   0.13   0.05     0.06   0.00   0.33
     5   6    -0.08   0.03  -0.07    -0.03   0.00  -0.01     0.15  -0.05   0.15
     6   8     0.01   0.00   0.01     0.01   0.03   0.01    -0.02  -0.02  -0.01
     7   8     0.02   0.00   0.03     0.01   0.00   0.00    -0.02   0.00  -0.05
     8   1     0.00  -0.05  -0.24     0.00  -0.01  -0.07     0.00   0.06   0.30
     9   8     0.01  -0.01   0.03     0.00   0.00   0.01    -0.02   0.01  -0.05
    10   1     0.16  -0.20  -0.06     0.03  -0.04  -0.01    -0.30   0.37   0.11
    11   6    -0.01  -0.01   0.00    -0.03   0.09   0.01     0.03   0.02   0.01
    12   1    -0.05   0.04  -0.01     0.32  -0.47  -0.16     0.04  -0.07  -0.09
    13   1     0.01   0.10  -0.01    -0.06  -0.47  -0.10    -0.01  -0.15   0.03
    14   1     0.00   0.04  -0.01     0.09  -0.50   0.10    -0.13  -0.10   0.02
    15   1     0.03  -0.07  -0.06    -0.03  -0.07  -0.06    -0.02   0.32   0.13
    16   6     0.01   0.01   0.00    -0.01   0.01   0.01     0.01  -0.02  -0.02
    17   1    -0.01   0.01   0.01     0.09  -0.05  -0.04    -0.15   0.06   0.05
    18   1     0.00  -0.03  -0.01     0.05  -0.03  -0.09    -0.02   0.12   0.13
    19   1     0.00  -0.01  -0.02     0.06  -0.08  -0.03    -0.04   0.14   0.10
    20   8    -0.01   0.00   0.00    -0.01   0.00   0.00     0.02  -0.01  -0.01
    21   1     0.07  -0.04  -0.02    -0.02   0.01   0.01    -0.12   0.06   0.03
                    37                     38                     39
                     A                      A                      A
 Frequencies --  1490.3109              1504.4517              1508.6067
 Red. masses --     1.1644                 1.0492                 1.0689
 Frc consts  --     1.5237                 1.3991                 1.4333
 IR Inten    --    15.4813                 1.9126                13.9436
  Atom  AN      X      Y      Z        X      Y      Z        X      Y      Z
     1   6    -0.02  -0.01  -0.02     0.02   0.03  -0.03     0.01  -0.01  -0.01
     2   1     0.04   0.04   0.01     0.22  -0.50   0.22     0.19   0.11   0.06
     3   1     0.04   0.03   0.00    -0.34  -0.13   0.52    -0.23  -0.15   0.03
     4   1     0.03  -0.02   0.07    -0.22   0.13  -0.27    -0.22   0.22   0.11
     5   6     0.04  -0.01   0.04     0.03   0.01  -0.02     0.03  -0.02  -0.03
     6   8     0.00  -0.01   0.00     0.00   0.00   0.00    -0.01   0.00  -0.01
     7   8    -0.01   0.00  -0.01    -0.01   0.00   0.00    -0.01   0.00   0.01
     8   1     0.00   0.01   0.08     0.00   0.01   0.02    -0.01   0.00   0.03
     9   8     0.00   0.00  -0.01     0.00   0.00   0.00    -0.01   0.01   0.00
    10   1    -0.08   0.10   0.03     0.01  -0.02  -0.01     0.02  -0.03  -0.01
    11   6     0.00  -0.02   0.00     0.00  -0.02   0.01    -0.02  -0.01  -0.05
    12   1    -0.04   0.07   0.05    -0.17   0.13  -0.08     0.27   0.06   0.56
    13   1     0.00   0.07   0.02     0.11   0.15  -0.14    -0.19  -0.27   0.21
    14   1     0.00   0.10  -0.02     0.07  -0.01   0.01     0.19   0.41  -0.08
    15   1    -0.05  -0.01   0.04     0.01   0.01   0.01    -0.02  -0.05   0.00
    16   6    -0.06   0.05   0.05     0.00   0.00   0.00     0.01   0.00   0.00
    17   1     0.49  -0.22  -0.23     0.02  -0.01  -0.01    -0.01   0.03  -0.03
    18   1     0.19  -0.25  -0.44    -0.01  -0.02  -0.01    -0.03   0.02   0.05
    19   1     0.22  -0.43  -0.21    -0.01  -0.01  -0.01    -0.05   0.01  -0.03
    20   8    -0.01   0.01   0.01     0.00   0.00   0.00     0.00   0.00   0.00
    21   1    -0.06   0.04   0.03     0.00   0.00   0.00     0.00   0.00   0.00
                    40                     41                     42
                     A                      A                      A
 Frequencies --  1513.5997              1517.1938              1522.8861
 Red. masses --     1.0739                 1.0474                 1.0582
 Frc consts  --     1.4496                 1.4206                 1.4459
 IR Inten    --     8.8871                 8.8751                 7.5412
  Atom  AN      X      Y      Z        X      Y      Z        X      Y      Z
     1   6     0.04  -0.03   0.01     0.00   0.00   0.00    -0.01  -0.01   0.00
     2   1     0.17   0.42  -0.02     0.02   0.02   0.01     0.02   0.17  -0.03
     3   1    -0.29  -0.25  -0.21    -0.03  -0.02  -0.01     0.02  -0.01  -0.14
     4   1    -0.33   0.36   0.27    -0.03   0.03   0.01     0.00   0.03   0.12
     5   6     0.01  -0.02  -0.04     0.00  -0.01   0.00     0.02  -0.02   0.01
     6   8     0.00  -0.01   0.00     0.00   0.00   0.00    -0.01   0.00   0.01
     7   8     0.00   0.00   0.01     0.00   0.00   0.00     0.00   0.00   0.00
     8   1     0.00  -0.01   0.02     0.00   0.00   0.01     0.00  -0.01   0.04
     9   8     0.00   0.01   0.01     0.00   0.00   0.00    -0.01   0.00   0.00
    10   1     0.04  -0.06  -0.02     0.01  -0.01  -0.01    -0.02   0.02   0.00
    11   6     0.03  -0.01   0.02     0.00   0.00   0.00    -0.05   0.00   0.02
    12   1    -0.19   0.05  -0.28     0.01   0.00   0.02    -0.17   0.22   0.10
    13   1     0.07   0.27   0.00    -0.01   0.00   0.03     0.27  -0.08  -0.56
    14   1    -0.23  -0.09   0.00    -0.02   0.03  -0.01     0.65  -0.08   0.09
    15   1     0.03   0.10   0.01    -0.01   0.01   0.01    -0.05  -0.06   0.01
    16   6     0.00   0.00   0.00    -0.01   0.03  -0.05     0.00   0.00   0.00
    17   1     0.00   0.02  -0.03     0.00  -0.44   0.56    -0.01  -0.01   0.02
    18   1     0.02   0.02   0.00    -0.03  -0.31  -0.28    -0.02   0.00   0.02
    19   1     0.01  -0.03  -0.02     0.23   0.29   0.41    -0.01   0.03   0.02
    20   8     0.00   0.00   0.00     0.00   0.00  -0.01     0.00   0.00   0.00
    21   1    -0.01   0.00   0.00     0.02   0.00  -0.02    -0.01   0.00   0.00
                    43                     44                     45
                     A                      A                      A
 Frequencies --  1525.1868              1624.3187              2505.7214
 Red. masses --     1.0429                 1.1530                 1.0935
 Frc consts  --     1.4294                 1.7924                 4.0451
 IR Inten    --    12.3685                41.9947              2677.3787
  Atom  AN      X      Y      Z        X      Y      Z        X      Y      Z
     1   6     0.00   0.00   0.00     0.01   0.00   0.01     0.00   0.00   0.00
     2   1     0.00   0.02   0.00    -0.04  -0.01  -0.01     0.00   0.00   0.00
     3   1     0.00   0.00  -0.01     0.03   0.01   0.01    -0.01   0.00   0.00
     4   1     0.00   0.00   0.02     0.00  -0.01  -0.04     0.01   0.00   0.01
     5   6     0.01   0.00   0.01    -0.06   0.03  -0.04     0.00  -0.02   0.01
     6   8     0.00   0.01   0.00    -0.02  -0.05   0.00    -0.07   0.02  -0.02
     7   8     0.00   0.00   0.00     0.01   0.00   0.01     0.00   0.00   0.00
     8   1     0.00   0.00   0.01     0.00  -0.02  -0.08     0.01   0.00   0.00
     9   8     0.00   0.00   0.00     0.01  -0.01   0.01     0.00   0.00   0.00
    10   1    -0.01   0.01   0.00     0.04  -0.08  -0.02     0.01   0.01  -0.01
    11   6     0.00   0.00   0.00     0.02   0.01   0.01     0.00   0.00   0.00
    12   1     0.00  -0.03  -0.04     0.02   0.06   0.06     0.02   0.01  -0.01
    13   1     0.00   0.02   0.01     0.04  -0.20  -0.06    -0.01  -0.04  -0.02
    14   1    -0.03  -0.03   0.00     0.06   0.04   0.01     0.01  -0.02   0.02
    15   1     0.00  -0.06  -0.01     0.15   0.91   0.09     0.92  -0.19   0.32
    16   6     0.04   0.03   0.00    -0.01   0.00   0.01     0.00   0.00   0.01
    17   1     0.32  -0.21  -0.03     0.08  -0.04  -0.03     0.02   0.01   0.01
    18   1    -0.50  -0.43   0.19    -0.01  -0.05  -0.03     0.01  -0.01  -0.03
    19   1    -0.51   0.18  -0.25    -0.03  -0.01  -0.02     0.00  -0.02   0.00
    20   8     0.02   0.01   0.00     0.02  -0.01  -0.01     0.00   0.00   0.00
    21   1    -0.07   0.04   0.04    -0.17   0.09   0.03     0.06  -0.02   0.00
                    46                     47                     48
                     A                      A                      A
 Frequencies --  3085.8603              3086.9742              3101.8287
 Red. masses --     1.0364                 1.0296                 1.0281
 Frc consts  --     5.8147                 5.7806                 5.8282
 IR Inten    --     1.4302                14.5099                 7.1818
  Atom  AN      X      Y      Z        X      Y      Z        X      Y      Z
     1   6     0.04   0.00   0.03     0.00   0.00   0.00     0.00   0.00   0.00
     2   1     0.22  -0.10  -0.39     0.00   0.00   0.00     0.02  -0.01  -0.04
     3   1    -0.33   0.53  -0.07     0.00   0.00   0.00    -0.02   0.03   0.00
     4   1    -0.38  -0.48   0.15     0.00   0.00   0.00    -0.03  -0.04   0.01
     5   6     0.00   0.00   0.00     0.00   0.00   0.00     0.00   0.00   0.00
     6   8     0.00   0.00   0.00     0.00   0.00   0.00     0.00   0.00   0.00
     7   8     0.00   0.00   0.00     0.00   0.00   0.00     0.00   0.00   0.00
     8   1     0.00   0.00   0.00     0.00   0.00   0.00     0.00   0.00   0.00
     9   8     0.00   0.00   0.00     0.00   0.00   0.00     0.00   0.00   0.00
    10   1     0.00   0.00   0.00     0.00   0.00   0.00     0.00   0.00   0.00
    11   6     0.00   0.00   0.00     0.00   0.00   0.00     0.01  -0.04  -0.01
    12   1    -0.03  -0.02   0.01     0.01   0.01   0.00     0.39   0.32  -0.23
    13   1     0.05  -0.01   0.03    -0.01   0.00   0.00    -0.45   0.07  -0.25
    14   1     0.00  -0.01  -0.04     0.00   0.00   0.01    -0.05   0.09   0.64
    15   1     0.00   0.00   0.00     0.02   0.00   0.01    -0.02   0.00  -0.01
    16   6     0.00   0.00   0.00    -0.04   0.01   0.02     0.00   0.00   0.00
    17   1     0.00   0.00   0.00    -0.25  -0.29  -0.22     0.00   0.00   0.00
    18   1     0.00   0.00   0.00     0.37  -0.29   0.36    -0.01   0.01  -0.01
    19   1     0.00   0.00   0.00     0.32   0.41  -0.42    -0.01  -0.01   0.01
    20   8     0.00   0.00   0.00     0.00   0.00   0.00     0.00   0.00   0.00
    21   1     0.00   0.00   0.00     0.00   0.00   0.00     0.00   0.00   0.00
                    49                     50                     51
                     A                      A                      A
 Frequencies --  3159.9122              3171.5436              3182.5679
 Red. masses --     1.1043                 1.1102                 1.1034
 Frc consts  --     6.4965                 6.5797                 6.5848
 IR Inten    --     1.8941                 8.3235                 0.3155
  Atom  AN      X      Y      Z        X      Y      Z        X      Y      Z
     1   6    -0.01  -0.09   0.02     0.00   0.00   0.00     0.06  -0.02  -0.06
     2   1     0.02  -0.03  -0.04     0.00   0.00   0.00    -0.41   0.19   0.76
     3   1    -0.37   0.58  -0.08     0.00   0.00   0.00    -0.18   0.30  -0.05
     4   1     0.44   0.53  -0.17     0.00   0.00   0.00    -0.16  -0.22   0.06
     5   6     0.00   0.00   0.00     0.00   0.00   0.00     0.00   0.00   0.00
     6   8     0.00   0.00   0.00     0.00   0.00   0.00     0.00   0.00   0.00
     7   8     0.00   0.00   0.00     0.00   0.00   0.00     0.00   0.00   0.00
     8   1     0.00   0.00   0.00     0.00   0.00   0.00     0.00   0.00   0.00
     9   8     0.00   0.00   0.00     0.00   0.00   0.00     0.00   0.00   0.00
    10   1     0.00   0.00   0.00     0.00   0.00   0.00     0.00   0.00   0.00
    11   6     0.00   0.00   0.00     0.00   0.00   0.00     0.00   0.00   0.00
    12   1     0.02   0.01  -0.01     0.00   0.00   0.00     0.02   0.02  -0.01
    13   1     0.02   0.00   0.01     0.00   0.00   0.00     0.03   0.00   0.02
    14   1     0.00   0.00   0.03     0.00   0.00   0.00     0.00   0.00   0.02
    15   1     0.00   0.00   0.00     0.00   0.00   0.00     0.00   0.00   0.00
    16   6     0.00   0.00   0.00    -0.01   0.07  -0.07     0.00   0.00   0.00
    17   1     0.00   0.00   0.00    -0.05  -0.04  -0.05     0.00   0.00   0.00
    18   1     0.00   0.00   0.00     0.46  -0.34   0.44     0.00   0.00   0.00
    19   1     0.00   0.00   0.00    -0.33  -0.42   0.43     0.00   0.00   0.00
    20   8     0.00   0.00   0.00     0.00   0.00   0.00     0.00   0.00   0.00
    21   1     0.00   0.00   0.00     0.00   0.00   0.00     0.00   0.00   0.00
                    52                     53                     54
                     A                      A                      A
 Frequencies --  3198.9897              3199.1579              3206.7168
 Red. masses --     1.1078                 1.1105                 1.1094
 Frc consts  --     6.6792                 6.6967                 6.7213
 IR Inten    --     5.6047                 1.2864                 1.6158
  Atom  AN      X      Y      Z        X      Y      Z        X      Y      Z
     1   6     0.00   0.00   0.00     0.00   0.00   0.00     0.00   0.00   0.00
     2   1     0.00   0.00   0.00     0.00   0.00   0.00     0.02  -0.01  -0.03
     3   1     0.00   0.00   0.00     0.00   0.00   0.00     0.03  -0.05   0.01
     4   1     0.00   0.00   0.00     0.00   0.00   0.00     0.00  -0.01   0.00
     5   6     0.00   0.00   0.00     0.00   0.00   0.00     0.00   0.00   0.00
     6   8     0.00   0.00   0.00     0.00   0.00   0.00     0.00   0.00   0.00
     7   8     0.00   0.00   0.00     0.00   0.00   0.00     0.00   0.00   0.00
     8   1     0.00   0.00   0.00     0.00   0.00   0.00     0.00   0.00   0.00
     9   8     0.00   0.00   0.00     0.00   0.00   0.00     0.00   0.00   0.00
    10   1     0.00   0.00   0.00     0.00   0.00   0.00     0.00   0.00   0.00
    11   6     0.00   0.00   0.00    -0.04  -0.03   0.08    -0.08  -0.01  -0.05
    12   1     0.02   0.01  -0.01     0.51   0.41  -0.28     0.29   0.24  -0.18
    13   1     0.00   0.00   0.00    -0.09   0.01  -0.03     0.73  -0.11   0.40
    14   1     0.00   0.00  -0.02     0.05  -0.10  -0.67    -0.04   0.04   0.31
    15   1     0.00   0.00   0.00     0.00   0.00   0.00     0.01  -0.01   0.00
    16   6    -0.07  -0.05  -0.04     0.00   0.00   0.00     0.00   0.00   0.00
    17   1     0.51   0.58   0.44    -0.01  -0.02  -0.01     0.00   0.00   0.00
    18   1     0.21  -0.18   0.21    -0.01   0.01  -0.01     0.00   0.00   0.00
    19   1     0.12   0.16  -0.18     0.00   0.00   0.00     0.00   0.00   0.00
    20   8     0.00   0.00   0.00     0.00   0.00   0.00     0.00   0.00   0.00
    21   1    -0.02  -0.01   0.00     0.00   0.00   0.00     0.00   0.00   0.00
                    55                     56                     57
                     A                      A                      A
 Frequencies --  3701.7984              3741.9536              3762.6178
 Red. masses --     1.0658                 1.0675                 1.0670
 Frc consts  --     8.6052                 8.8070                 8.8999
 IR Inten    --   113.6689               114.9254                84.8680
  Atom  AN      X      Y      Z        X      Y      Z        X      Y      Z
     1   6     0.00   0.00   0.00     0.00   0.00   0.00     0.00   0.00   0.00
     2   1     0.00   0.00   0.00     0.00   0.00   0.00     0.00   0.00   0.00
     3   1     0.00   0.00   0.00     0.00   0.00   0.00     0.00   0.00   0.00
     4   1     0.00   0.00   0.00     0.00   0.00   0.00     0.00   0.00   0.00
     5   6     0.00   0.00   0.00     0.00   0.00   0.00     0.00   0.00   0.00
     6   8     0.00   0.00   0.00     0.00   0.00   0.00     0.00   0.00   0.00
     7   8     0.00   0.00   0.00    -0.06   0.01   0.00     0.00   0.00   0.00
     8   1    -0.01   0.00   0.00     0.97  -0.22  -0.02     0.01   0.00   0.00
     9   8    -0.02   0.01  -0.06     0.00   0.00   0.00     0.00   0.00   0.00
    10   1     0.33  -0.15   0.93     0.00   0.00   0.01     0.00   0.00   0.00
    11   6     0.00   0.00   0.00     0.00   0.00   0.00     0.00   0.00   0.00
    12   1     0.00   0.00   0.00     0.00   0.00   0.00     0.00   0.00   0.00
    13   1     0.00   0.00   0.00     0.00   0.00   0.00     0.00   0.00   0.00
    14   1     0.00   0.00   0.00     0.00   0.00   0.00     0.00   0.00   0.00
    15   1     0.01   0.00   0.00     0.00   0.00   0.00     0.01   0.00   0.00
    16   6     0.00   0.00   0.00     0.00   0.00   0.00     0.00   0.00   0.00
    17   1     0.00   0.00   0.00     0.00   0.00   0.00    -0.01  -0.01  -0.01
    18   1     0.00   0.00   0.00     0.00   0.00   0.00     0.00   0.00   0.00
    19   1     0.00   0.00   0.00     0.00   0.00   0.00     0.00   0.00   0.00
    20   8     0.00   0.00   0.00     0.00   0.00   0.00     0.03   0.04   0.03
    21   1     0.00   0.00   0.00     0.01   0.01   0.01    -0.50  -0.70  -0.51

 -------------------
 - Thermochemistry -
 -------------------
 Temperature   298.150 Kelvin.  Pressure   1.00000 Atm.
 Atom     1 has atomic number  6 and mass  12.00000
 Atom     2 has atomic number  1 and mass   1.00783
 Atom     3 has atomic number  1 and mass   1.00783
 Atom     4 has atomic number  1 and mass   1.00783
 Atom     5 has atomic number  6 and mass  12.00000
 Atom     6 has atomic number  8 and mass  15.99491
 Atom     7 has atomic number  8 and mass  15.99491
 Atom     8 has atomic number  1 and mass   1.00783
 Atom     9 has atomic number  8 and mass  15.99491
 Atom    10 has atomic number  1 and mass   1.00783
 Atom    11 has atomic number  6 and mass  12.00000
 Atom    12 has atomic number  1 and mass   1.00783
 Atom    13 has atomic number  1 and mass   1.00783
 Atom    14 has atomic number  1 and mass   1.00783
 Atom    15 has atomic number  1 and mass   1.00783
 Atom    16 has atomic number  6 and mass  12.00000
 Atom    17 has atomic number  1 and mass   1.00783
 Atom    18 has atomic number  1 and mass   1.00783
 Atom    19 has atomic number  1 and mass   1.00783
 Atom    20 has atomic number  8 and mass  15.99491
 Atom    21 has atomic number  1 and mass   1.00783
 Molecular mass:   125.08138 amu.
 Principal axes and moments of inertia in atomic units:
                           1         2         3
     Eigenvalues --   713.330471571.964091846.06733
           X            0.99987  -0.01429   0.00790
           Y            0.01415   0.99975   0.01728
           Z           -0.00814  -0.01717   0.99982
 This molecule is an asymmetric top.
 Rotational symmetry number  1.
 Warning -- assumption of classical behavior for rotation
           may cause significant error
 Rotational temperatures (Kelvin)      0.12142     0.05510     0.04692
 Rotational constants (GHZ):           2.53002     1.14808     0.97761
 Zero-point vibrational energy     477576.3 (Joules/Mol)
                                  114.14348 (Kcal/Mol)
 Warning -- explicit consideration of  18 degrees of freedom as
           vibrations may cause significant error
 Vibrational temperatures:     43.91    84.47   112.67   119.47   164.21
          (Kelvin)            215.71   241.68   257.11   335.09   351.55
                              385.82   499.23   543.94   616.22   623.95
                              654.41   765.09   808.21   900.80  1237.34
                             1417.29  1419.13  1467.09  1533.63  1555.76
                             1635.52  1651.27  1694.29  1698.15  1707.32
                             1726.67  1969.02  1988.88  2056.53  2122.13
                             2131.74  2144.22  2164.57  2170.55  2177.73
                             2182.90  2191.09  2194.40  2337.03  3605.17
                             4439.86  4441.46  4462.83  4546.40  4563.14
                             4579.00  4602.63  4602.87  4613.74  5326.06
                             5383.83  5413.56
 
 Zero-point correction=                           0.181899 (Hartree/Particle)
 Thermal correction to Energy=                    0.194455
 Thermal correction to Enthalpy=                  0.195399
 Thermal correction to Gibbs Free Energy=         0.142793
 Sum of electronic and zero-point Energies=           -460.516705
 Sum of electronic and thermal Energies=              -460.504149
 Sum of electronic and thermal Enthalpies=            -460.503205
 Sum of electronic and thermal Free Energies=         -460.555810
 
                     E (Thermal)             CV                S
                      KCal/Mol        Cal/Mol-Kelvin    Cal/Mol-Kelvin
 Total                  122.022             41.950            110.718
 Electronic               0.000              0.000              0.000
 Translational            0.889              2.981             40.385
 Rotational               0.889              2.981             29.117
 Vibrational            120.245             35.989             41.216
 Vibration     1          0.594              1.984              5.795
 Vibration     2          0.596              1.974              4.500
 Vibration     3          0.600              1.964              3.933
 Vibration     4          0.600              1.961              3.818
 Vibration     5          0.607              1.938              3.197
 Vibration     6          0.618              1.903              2.673
 Vibration     7          0.625              1.882              2.458
 Vibration     8          0.629              1.869              2.342
 Vibration     9          0.654              1.791              1.857
 Vibration    10          0.660              1.772              1.771
 Vibration    11          0.673              1.732              1.608
 Vibration    12          0.725              1.581              1.180
 Vibration    13          0.748              1.517              1.047
 Vibration    14          0.790              1.409              0.864
 Vibration    15          0.794              1.397              0.847
 Vibration    16          0.813              1.350              0.781
 Vibration    17          0.887              1.180              0.583
[...]
 0.00011734,-0.00008221,0.00010565,0.00016676,-0.00022647,0.00058142,-0
 .00011883,-0.00011095,0.00000686,-0.00165922,0.00194503,0.00194058,0.0
 0005359,-0.00371074,0.00009732,0.00328031,-0.00166142,-0.00144667,0.00
 033515,-0.00070624,-0.00073500,-0.14423225,0.06403874,-0.43382562,0.14
 120640,-0.05962023,0.43252660,-0.00170608,-0.00229642,0.00105757,0.000
 08225,0.00007508,0.00019067,-0.00095327,-0.00077432,-0.00023833,-0.000
 69094,0.00025015,-0.00062887,0.01979631,0.00497808,-0.01235641,-0.1187
 6365,0.01657623,0.00525237,-0.00279215,0.00046717,0.00243519,0.0002787
 5,-0.00114386,0.00063156,0.00241466,-0.00976873,0.00270554,-0.00075134
 ,-0.00049798,-0.00081174,0.62558766,0.00028922,0.00267509,-0.00120723,
 0.00006791,-0.00055815,-0.00031319,0.00008221,-0.00056067,-0.00004590,
 0.00084291,0.00012423,0.00058828,-0.01642129,-0.03193855,0.01058641,0.
 03243795,-0.15892292,-0.01719102,0.00554983,-0.00271042,-0.00849476,0.
 00018316,0.00251852,-0.00007776,0.00097430,0.00312706,-0.00068096,-0.0
 0024176,-0.00084430,0.00038079,0.05399367,0.42947327,0.00007601,-0.000
 14589,-0.00030269,-0.00006478,-0.00000318,-0.00002753,-0.00049002,-0.0
 0028123,-0.00008504,-0.00001622,0.00015205,0.00010242,-0.00928642,0.00
 154965,0.00536973,0.01300166,-0.03532212,-0.07001990,0.00170628,-0.002
 08219,-0.00256474,0.00036144,0.00099791,0.00028982,0.00025159,0.007212
 79,-0.00099769,-0.00011311,0.00012096,0.00063399,0.00991710,-0.0319083
 0,0.61594325,0.00008221,0.00046197,-0.00028720,0.00002175,-0.00011112,
 -0.00000106,0.00020385,-0.00009725,0.00014879,0.00014060,-0.00005629,0
 .00011629,-0.00245372,-0.00032428,0.00141672,0.01213079,0.01393201,-0.
 00536463,0.00055494,-0.00090655,-0.00048835,0.00011187,0.00042199,-0.0
 0023868,-0.00021400,0.00159634,-0.00034341,0.00010099,0.00008710,0.000
 11466,-0.19936432,-0.12065989,0.08406341,0.20464740,-0.00035434,-0.000
 41426,0.00040966,0.00001754,0.00001621,0.00007111,-0.00020895,-0.00001
 340,-0.00010470,-0.00019082,0.00007558,-0.00016277,0.00701081,0.003941
 32,-0.00421032,-0.02376155,-0.03707614,0.01094800,-0.00087262,0.001534
 09,0.00099436,-0.00008479,-0.00051791,0.00017565,0.00056871,-0.0034677
 5,0.00091627,-0.00024195,-0.00017109,-0.00032816,-0.10890195,-0.133405
 91,0.06377889,0.12107606,0.15829491,-0.00017680,-0.00003243,0.00021179
 ,0.00002654,-0.00008416,0.00005531,0.00006632,-0.00000052,0.00003468,-
 0.00004216,-0.00000821,-0.00003379,0.00194054,-0.00000228,-0.00251145,
 -0.00747538,-0.00811920,0.00387487,-0.00049221,0.00153840,0.00111025,-
 0.00019798,-0.00043221,-0.00003365,-0.00006728,-0.00077077,0.00040000,
 0.00006325,-0.00004830,-0.00009476,0.08573496,0.06886736,-0.10164332,-
 0.09039826,-0.06942799,0.09942590,-0.00007177,-0.00007995,-0.00026899,
 0.00000445,0.00002273,0.00000397,0.00020111,-0.00091369,-0.00009201,0.
 00010506,0.00000452,0.00014543,-0.00102693,-0.00105557,0.00065265,-0.0
 0697799,0.00561032,-0.00171270,0.00031909,-0.00024869,-0.00021449,0.00
 007119,0.00003830,-0.00003762,0.00016009,0.00035367,-0.00007847,-0.000
 02420,-0.00003768,0.00006294,-0.26506294,0.03202369,-0.11730586,-0.017
 10665,0.00297095,-0.01167623,0.28181036,0.00041891,-0.00052577,-0.0001
 4435,0.00000413,0.00004267,-0.00001679,-0.00084317,-0.00056152,-0.0002
 7167,-0.00019896,0.00022738,-0.00002676,0.00286723,0.00120954,0.000627
 08,0.03989502,-0.01697744,0.01405255,-0.00061854,0.00012819,0.00046893
 ,-0.00015860,-0.00026431,0.00034931,-0.00093953,-0.00040192,-0.0002948
 5,0.00005571,0.00013139,-0.00004938,0.01925209,-0.05119042,0.01317301,
 -0.01577520,0.00528037,-0.01038274,-0.03715725,0.06519616,0.00003800,0
 .00003632,-0.00009344,0.00008221,-0.00022886,-0.00004081,-0.00005499,-
 0.00044631,0.00043230,0.00000630,0.00002779,-0.00006537,-0.00113875,0.
 00037086,0.00049364,0.01059012,-0.00130968,0.00554046,0.00036188,-0.00
 061842,-0.00014238,0.00019126,0.00070037,-0.00026085,0.00026638,0.0000
 3158,-0.00011463,-0.00006339,0.00002339,-0.00003472,-0.12248965,0.0179
 2852,-0.12133760,0.01270779,-0.00280314,0.00783246,0.12750519,-0.01587
 981,0.11899946,-0.00027601,0.00014716,0.00003753,-0.00000946,0.0000349
 7,0.00000801,0.00017461,0.00002197,-0.00011527,0.00011503,-0.00009079,
 0.00003461,0.00003908,-0.00161425,-0.00095993,-0.00121904,0.00737381,0
 .01112463,-0.00025322,0.00062442,0.00007914,-0.00029842,-0.00077510,-0
 .00010900,-0.00038136,0.00028298,0.00011118,0.00019775,-0.00000096,0.0
 0005165,-0.05798672,0.00184215,0.01842788,0.00052898,0.00398906,0.0227
 6091,0.00567248,-0.00467181,-0.02820981,0.05333499,-0.00027311,-0.0003
 4404,0.00046066,0.00010437,0.00004311,0.00017140,-0.00010788,0.0000299
 5,-0.00001035,-0.00019281,0.00001263,-0.00008433,0.00360532,0.00265057
 ,-0.00459539,0.00814374,-0.02383057,-0.03503359,-0.00073015,0.00085018
 ,0.00186159,-0.00029784,-0.00048326,0.00020145,-0.00039849,-0.00005865
 ,0.00059534,0.00005202,-0.00009453,-0.00012404,0.00095046,-0.05297246,
 -0.02755857,0.00031236,0.00587587,0.01825060,-0.00204676,0.00262582,0.
 00385882,-0.00730063,0.06515874,-0.00017113,-0.00010399,0.00002506,-0.
 00000596,0.00003307,0.00004864,0.00005160,-0.00002688,-0.00005806,-0.0
 0002488,-0.00001341,-0.00000466,0.00195267,0.00082542,-0.00207564,0.00
 189093,-0.00582702,0.00326347,-0.00029529,0.00248512,0.00089178,-0.000
 28446,-0.00051064,0.00009262,-0.00020058,-0.00033341,0.00020760,0.0000
 1981,0.00001843,-0.00003712,0.02035001,-0.03739878,-0.32677574,-0.0009
 4467,-0.00098527,-0.00892545,0.00249268,-0.00055372,-0.01104373,-0.024
 49654,0.04285454,0.34445756,0.00155786,0.00292628,-0.00121870,-0.00001
 914,-0.00037745,-0.00032519,-0.00064603,-0.00011904,-0.00017522,0.0009
 2855,0.00029365,0.00065202,-0.01929844,-0.03199814,0.00968706,-0.20494
 872,0.03450309,-0.06687160,0.00435372,0.00183338,-0.00540709,-0.000866
 96,0.00058260,0.00018979,-0.00545067,0.00950644,-0.00200512,0.00316890
 ,-0.00032330,0.00085835,0.00128703,0.01759408,0.00175660,0.00058812,-0
 .00160226,0.00020211,0.00233630,-0.00439143,-0.00031734,0.00083054,-0.
 00253810,-0.00083596,0.19708355,-0.00275878,-0.00520882,0.00239844,0.0
 0000305,0.00016571,0.00001128,0.00049366,0.00009638,0.00027601,-0.0010
 8855,-0.00014078,-0.00119250,-0.01701129,0.01979967,-0.01519714,0.0123
 1680,-0.07479438,0.01222110,-0.00040959,-0.00124875,0.00290389,0.00027
 558,-0.00045847,0.00005962,0.00746313,-0.00075118,0.00063988,-0.001729
 77,-0.00201319,0.00123734,0.02828845,-0.00634151,0.01051793,0.00009982
 ,-0.00020545,0.00078011,0.00050166,-0.00508100,-0.00175429,0.00021570,
 0.00052721,-0.00042284,-0.02416840,0.09385839,0.00050554,0.00178538,-0
 .00080148,-0.00014873,-0.00009249,-0.00001947,-0.00014658,-0.00009838,
 -0.00019598,0.00031844,0.00007178,0.00051489,0.00579199,-0.01355819,0.
 01007883,-0.08087369,0.02053101,-0.05521544,0.00205075,0.00147225,-0.0
 0513959,-0.00033143,0.00018475,-0.00031368,-0.00288599,0.00083952,-0.0
 0178127,0.00173585,0.00177427,-0.00003418,0.00964856,0.00175490,0.0023
 6810,-0.00065560,0.00064676,0.00049053,0.00068741,-0.00199795,-0.00035
 135,0.00159329,-0.00125265,-0.00022411,0.05178896,-0.00563280,0.063577
 64,0.00016635,0.00005402,-0.00003659,-0.00001972,-0.00002856,-0.000055
 32,-0.00000976,-0.00001559,0.00001890,0.00002891,-0.00001879,0.0000292
 4,-0.00213076,-0.00059006,0.00030064,0.00125942,-0.00046881,-0.0009616
 0,0.00064259,0.00002130,-0.00046183,-0.00016906,-0.00000124,0.00007260
 ,0.00137496,0.00067257,0.00014921,-0.00086100,-0.00090554,0.00046177,0
 .00012501,0.00065646,0.00007372,-0.00009283,0.00014893,-0.00021278,0.0
 0012206,-0.00002619,0.00000117,-0.00011751,-0.00007043,0.00005330,-0.0
 0631467,0.00335962,0.00364215,0.55283595,-0.00021436,-0.00037132,0.000
 17529,-0.00007810,0.00008460,-0.00001457,0.00010437,-0.00000540,-0.000
 00585,-0.00009176,-0.00000739,-0.00007528,0.00143565,0.00403862,-0.000
 31062,-0.00556254,0.00008411,-0.00160288,-0.00053001,-0.00060254,0.000
 18826,0.00014990,-0.00003373,-0.00008040,0.00040306,-0.00187663,-0.000
 26868,0.00015471,0.00099892,0.00010777,-0.00009604,-0.00096960,-0.0001
 6048,0.00015729,-0.00021060,0.00012966,-0.00013911,0.00014563,0.000017
 16,0.00014931,-0.00003005,0.00000499,0.01009871,-0.00221890,0.00393987
 ,0.07484327,0.56142502,-0.00033450,-0.00051642,0.00026315,-0.00004739,
 0.00006991,0.00001535,0.00010103,-0.00000138,0.00001315,-0.00013596,-0
 .00002530,-0.00012177,0.00154406,0.00431156,-0.00121033,-0.01023560,-0
 .00045333,-0.00317092,-0.00057776,-0.00050237,0.00039242,0.00016549,-0
 .00006736,-0.00004913,0.00058438,-0.00178124,-0.00002029,0.00039717,0.
 00076185,0.00002982,0.00008488,-0.00162904,-0.00017575,0.00010416,-0.0
 0015874,0.00027972,-0.00015516,0.00018249,0.00003445,0.00018745,0.0000
 8100,-0.00001787,0.01479277,0.00161148,0.00814797,0.07524601,-0.049652
 59,0.55244649,0.00001120,-0.00002586,0.00001012,-0.00003477,0.00000319
 ,-0.00003356,0.00001657,-0.00000652,0.00000263,0.00000141,-0.00000827,
 -0.00000760,-0.00060420,0.00056737,0.00010043,0.00016934,-0.00040454,0
 .00010714,0.00015112,-0.00014723,-0.00016776,-0.00002320,-0.00000704,0
 .00000551,0.00026627,-0.00009102,-0.00005523,0.00006214,-0.00012992,0.
 00014316,-0.00001539,0.00021035,0.00005725,0.00000945,-0.00003473,0.00
 001482,0.00000658,-0.00004543,-0.00002596,0.00003559,-0.00002797,-0.00
 002456,0.00032661,0.00060720,0.00011797,-0.15186075,-0.11572542,-0.088
 78443,0.15700411,0.00000039,-0.00003925,-0.00001152,0.00004215,0.00003
 076,0.00001240,0.00000186,0.00000327,0.00000227,-0.00001618,0.00000800
 ,0.00001073,0.00035338,0.00011112,-0.00034233,0.00019896,0.00003163,0.
 00032190,-0.00005216,0.00004148,0.00016375,0.00001516,-0.00000524,-0.0
 0001234,-0.00032060,-0.00026392,0.00025464,-0.00010394,0.00011853,-0.0
 0002468,0.00002506,-0.00022748,0.00001358,-0.00001370,0.00000081,-0.00
 004891,0.00000310,0.00003048,0.00000628,-0.00004521,0.00004375,0.00002
 636,-0.00050777,-0.00042434,-0.00094734,-0.10425916,-0.16815234,-0.086
 36336,0.11067779,0.18246370,-0.00002075,0.00014225,-0.00000664,-0.0000
 2315,-0.00001052,0.00001384,-0.00003439,0.00000083,-0.00003292,0.00002
 477,0.00000921,0.00000450,0.00041174,-0.00149231,0.00030914,0.00068310
 ,0.00033331,-0.00002029,-0.00013667,0.00028240,0.00006984,0.00001350,0
 .00001280,0.00001340,-0.00116212,0.00069133,-0.00024216,0.00051215,-0.
 00009118,-0.00026772,0.00009575,-0.00001054,-0.00002085,-0.00001743,0.
 00005685,-0.00000792,0.00000211,-0.00000633,0.00001465,-0.00003011,0.0
 0000573,0.00000800,-0.00106514,-0.00031667,-0.00007976,-0.07818137,-0.
 08475651,-0.11761430,0.08294787,0.10294297,0.12726993,-0.00005988,-0.0
 0014168,0.00005355,0.00001074,0.00001490,0.00001117,0.00002580,0.00000
 382,0.00001293,-0.00003346,-0.00000433,-0.00002745,0.00040022,0.000989
 44,-0.00040475,-0.00198035,-0.00019759,-0.00054969,-0.00013633,-0.0000
 7517,0.00017903,0.00003766,-0.00001104,-0.00001535,0.00009140,-0.00048
 466,0.00014512,-0.00025024,0.00022479,-0.00008223,0.00003576,-0.000374
 65,-0.00002575,0.00001919,-0.00003020,0.00004890,-0.00002991,0.0000415
 4,0.00000244,0.00003090,0.00002957,0.00000174,0.00318221,0.00029206,0.
 00149287,-0.15790362,0.07765394,-0.10582998,-0.00936285,0.00875844,-0.
 01159663,0.17294472,0.00005568,0.00008154,-0.00005317,0.00001733,-0.00
 000856,0.00000151,-0.00001830,-0.00000011,0.00000032,0.00001711,0.0000
 0787,0.00002086,-0.00016300,-0.00070880,0.00017955,0.00173100,0.000081
 77,0.00048624,0.00008605,0.00007827,-0.00006669,-0.00002037,0.00001427
 ,0.00000725,-0.00013683,0.00015818,0.00008266,-0.00010420,-0.00000861,
 0.00000354,-0.00002901,0.00024350,0.00005883,-0.00002600,0.00003044,-0
 .00002996,0.00002432,-0.00003535,-0.00000690,-0.00002035,-0.00000275,0
 .00000150,-0.00258323,-0.00037234,-0.00125884,0.07585694,-0.11348079,0
 .08122769,-0.01402156,0.01366854,-0.01297941,-0.09391891,0.11978042,0.
 00005235,0.00009231,-0.00006665,0.00002056,0.00000085,0.00000182,-0.00
 001651,0.00000138,-0.00000517,0.00002262,0.00001160,0.00002990,-0.0000
 2965,-0.00072861,0.00020589,0.00210696,0.00012134,0.00075950,0.0000472
 8,0.00007178,-0.00004501,-0.00001085,0.00001715,-0.00000289,-0.0002346
 3,0.00018919,0.00002495,0.00002172,-0.00000362,0.00004466,-0.00000576,
 0.00025884,0.00003892,-0.00001257,0.00000447,-0.00005290,0.00001834,-0
 .00004130,-0.00000637,-0.00003207,-0.00001160,0.00000578,-0.00262878,-
 0.00057880,-0.00176393,-0.11442333,0.08527566,-0.16151264,-0.00816430,
 0.00853123,-0.00784227,0.11129349,-0.08383687,0.16639477,-0.00003088,-
 0.00000132,0.00001217,-0.00001391,-0.00001258,0.00000748,-0.00000590,0
 .00000185,-0.00000382,-0.00000402,0.00000284,-0.00001436,0.00033813,-0
 .00009626,0.00013670,-0.00079803,0.00029847,-0.00055958,-0.00011194,0.
 00004328,0.00000942,0.00002465,-0.00000403,-0.00001114,-0.00034307,-0.
 00001700,-0.00007955,0.00013291,0.00019137,-0.00006692,-0.00002045,-0.
 00023512,0.00003080,-0.00001404,0.00004787,0.00005335,-0.00001712,0.00
 003957,-0.00000092,0.00004380,0.00000855,-0.00000846,0.00145204,-0.000
 66141,0.00151427,-0.11145133,-0.07863518,0.07540872,-0.00662864,-0.011
 53427,0.01168897,0.01317496,0.01248157,-0.01332697,0.12083783,0.000000
 88,0.00007294,-0.00001262,0.00000442,-0.00001238,0.00001230,-0.0000174
 5,0.00000189,-0.00000766,0.00001557,0.00000159,0.00000659,0.00003303,-
 0.00075314,0.00006608,0.00051656,0.00000039,0.00026348,-0.00001993,0.0
 0012322,0.00003339,-0.00000132,0.00001650,0.00001575,-0.00039429,0.000
 42951,-0.00000281,0.00015149,-0.00018509,-0.00009824,0.00003989,0.0001
 5338,-0.00002569,0.00001420,0.00000231,0.00000904,-0.00000012,-0.00003
 618,0.00000828,-0.00002047,0.00000470,-0.00000628,-0.00089607,0.000316
 70,-0.00085039,-0.08565064,-0.16243029,0.11096031,-0.00783966,-0.01047
 825,0.01414053,-0.00821316,-0.00713004,0.00778252,0.08250511,0.1665669
 5,0.00002684,0.00006140,-0.00001851,0.00000199,-0.00001198,0.00000302,
 -0.00001346,-0.00000092,-0.00000202,0.00001425,0.00000115,0.00001015,-
 0.00017184,-0.00060692,0.00008235,0.00078323,-0.00001843,0.00024180,0.
 00006238,0.00008425,-0.00002559,-0.00002190,0.00001620,0.00002141,-0.0
 0018638,0.00029380,0.00003052,-0.00003428,-0.00015548,-0.00007024,-0.0
 0000286,0.00022990,-0.00000031,0.00000217,0.00001895,-0.00000328,0.000
 01290,-0.00002828,0.00000265,-0.00002133,0.00000114,-0.00000480,-0.001
 43252,0.00020489,-0.00082849,0.07525954,0.10623247,-0.15858083,-0.0083
 2491,-0.00969105,0.01373827,0.00931521,0.01313408,-0.00972514,-0.09302
 286,-0.11151816,0.17005267,-0.00109813,-0.00188568,0.00104266,0.000038
 99,0.00018736,0.00015939,0.00032306,0.00008074,0.00008891,-0.00045206,
 -0.00010725,-0.00042119,0.00511399,0.01355964,-0.00615038,-0.05086296,
 0.00593488,-0.01382253,-0.00233278,-0.00085419,0.00274093,0.00049753,-
 0.00027402,-0.00019398,0.00032692,-0.00484904,0.00076306,-0.00028556,0
 .00118111,-0.00083906,-0.00104918,-0.00780587,-0.00183455,0.00015370,0
 .00017703,0.00013771,-0.00049967,0.00178011,0.00035678,-0.00006678,0.0
 0059713,0.00030224,0.01394160,0.00225459,0.00384216,-0.13982862,0.0150
 8011,0.02142123,0.01367991,-0.00638782,-0.00727385,-0.02021796,0.01972
 769,0.02525854,-0.01671109,0.01959472,0.01678948,0.37812276,0.00048264
 ,0.00119144,-0.00049136,0.00002345,-0.00013247,0.00000256,-0.00025562,
 -0.00000229,-0.00009443,0.00022721,0.00003892,0.00021178,-0.00005710,-
 0.00859810,0.00249720,0.00947417,0.00977302,0.00321934,0.00045378,0.00
 099344,-0.00055595,-0.00017437,0.00004556,0.00003214,-0.00406800,0.001
 69552,-0.00046959,0.00148589,0.00003232,-0.00050673,-0.00169304,0.0011
 1515,-0.00026071,-0.00033530,0.00059149,-0.00051391,0.00013089,0.00043
 888,0.00011320,-0.00038217,0.00005274,0.00006780,0.00046313,-0.0203195
 9,-0.00754498,0.04839647,-0.10321969,-0.04951263,0.02253546,-0.0159739
 8,-0.01763363,0.01604741,-0.01183419,-0.01757706,-0.00395585,0.0113147
 3,0.00079412,0.08839628,0.38189125,-0.00022524,-0.00054930,0.00037194,
 0.00008805,0.00003663,0.00005147,0.00008151,0.00004805,0.00003070,-0.0
 0010578,-0.00004112,-0.00011551,0.00087593,0.00348107,-0.00325524,-0.0
 1441404,0.00294429,0.00444724,-0.00035295,-0.00002492,0.00151356,0.000
 04345,-0.00006944,0.00009367,0.00010440,-0.00088093,0.00088144,-0.0009
 2519,-0.00073303,-0.00085877,-0.00123752,-0.00157524,-0.00126683,0.000
 21115,-0.00008026,-0.00026963,-0.00015976,0.00075578,0.00023469,-0.000
 55031,0.00034874,0.00015018,0.00395618,-0.00693283,-0.01671688,0.05069
 286,-0.04338580,-0.10812991,0.01818906,-0.01347755,-0.01356857,-0.0037
 0876,0.00198193,0.01193520,0.01925610,-0.02108118,-0.01442975,0.060041
 53,0.25905008,0.27188708,-0.00002222,-0.00000149,0.00007100,0.00000775
 ,0.00000576,0.00001979,-0.00002320,0.00000955,-0.00001602,-0.00001763,
 -0.00000904,-0.00001120,0.00065019,-0.00025265,-0.00059278,-0.00501761
 ,0.00259829,-0.00108118,-0.00004325,0.00025494,0.00034119,-0.00003682,
 -0.00004989,0.00004699,-0.00081960,-0.00036614,0.00001186,0.00012374,0
 .00010050,-0.00028484,-0.00045100,-0.00100932,-0.00058705,-0.00004827,
 0.00027720,-0.00031032,0.00000841,0.00047181,0.00019127,-0.00039522,0.
 00018065,0.00017750,0.00650761,-0.00834355,0.00031183,0.01420439,0.020
 84218,0.01606342,-0.00321048,0.00316451,0.00316164,0.00002104,0.001044
 06,0.00004356,0.00014611,0.00017726,0.00096435,-0.17879368,-0.17719531
 ,-0.13186066,0.16720978,0.00003689,0.00004801,-0.00001179,-0.00001136,
 0.00000607,-0.00001694,0.00002946,-0.00000650,0.00000002,0.00001966,0.
 00000214,0.00001674,-0.00050969,-0.00005675,0.00014277,0.00531762,-0.0
 0195767,0.00080399,0.00022696,-0.00016697,-0.00018455,-0.00002199,0.00
 009022,0.00002750,0.00020035,-0.00020188,0.00002213,-0.00025847,-0.000
 05029,-0.00013362,0.00030503,0.00121220,0.00017278,0.00014642,-0.00016
 088,0.00032641,-0.00000533,-0.00038257,-0.00007515,0.00024021,-0.00005
 898,-0.00013499,-0.00829619,0.00481462,0.00023349,-0.01197457,-0.01316
 764,-0.00854254,0.00391381,-0.00098724,-0.00132113,-0.00060454,-0.0005
 6326,0.00041951,-0.00046745,0.00202057,0.00095886,-0.14638751,-0.24909
 414,-0.17981497,0.15810068,0.25866095,0.00010375,0.00002629,-0.0000810
 5,-0.00002103,-0.00002205,-0.00002309,-0.00001636,-0.00001065,0.000020
 48,0.00001395,0.00000409,0.00001773,-0.00113247,-0.00006815,0.00075778
 ,0.00023336,0.00021307,-0.00000667,0.00024528,-0.00013419,-0.00057351,
 -0.00003959,0.00000699,0.00003929,0.00098317,0.00032659,-0.00000304,-0
 .00034369,-0.00026059,0.00047590,-0.00033301,-0.00006229,0.00047178,-0
 .00013328,0.00024041,-0.00013934,0.00011768,0.00008476,-0.00009352,0.0
 0010809,-0.00002050,0.00001649,-0.00160119,-0.00083413,-0.00171237,-0.
 01166830,-0.01575749,-0.01101878,0.00389234,-0.00136703,-0.00173818,-0
 .00031587,0.00104589,0.00158158,-0.00102339,0.00030475,-0.00049387,-0.
 10240908,-0.17082725,-0.13298608,0.11333963,0.18711148,0.14548847||-0.
 00034548,-0.00010582,-0.00005113,0.00006158,0.00010333,-0.00004307,0.0
 0008528,0.00017321,-0.00005734,0.00018407,0.00001515,0.00002087,-0.000
 62844,0.00337014,-0.00110929,-0.00165263,-0.00128487,0.00025960,0.0003
 3359,-0.00031179,0.00026028,-0.00005157,-0.00020621,-0.00001933,0.0007
 7096,-0.00139841,0.00072956,0.00012124,-0.00023431,-0.00008886,0.00025
 550,-0.00105789,-0.00007760,-0.00016143,0.00015369,-0.00004794,-0.0001
 3888,0.00013830,0.00000975,0.00006006,0.00021062,0.00006784,0.00180607
 ,0.00026883,0.00027001,0.00035454,-0.00082070,-0.00063669,0.00021084,-
 0.00003500,-0.00011739,-0.00008665,-0.00003196,-0.00000379,0.00003124,
 0.00011660,0.00026621,-0.00128293,0.00053540,0.00062252,0.00007305,0.0
 0040168,-0.00025420|||@


 Change starts when someone sees the next step.
                            -- William Drayton
 Job cpu time:  0 days  0 hours 20 minutes 25.0 seconds.
 File lengths (MBytes):  RWF=     81 Int=      0 D2E=      0 Chk=      3 Scr=      1
 Normal termination of Gaussian 09 at Fri Nov 13 15:04:31 2015.
