 Entering Link 1 = C:\G09W\l1.exe PID=      3104.
  
 Copyright (c) 1988,1990,1992,1993,1995,1998,2003,2009, Gaussian, Inc.
                  All Rights Reserved.
  
 This is part of the Gaussian(R) 09 program.  It is based on
 the Gaussian(R) 03 system (copyright 2003, Gaussian, Inc.),
 the Gaussian(R) 98 system (copyright 1998, Gaussian, Inc.),
 the Gaussian(R) 94 system (copyright 1995, Gaussian, Inc.),
 the Gaussian 92(TM) system (copyright 1992, Gaussian, Inc.),
 the Gaussian 90(TM) system (copyright 1990, Gaussian, Inc.),
 the Gaussian 88(TM) system (copyright 1988, Gaussian, Inc.),
 the Gaussian 86(TM) system (copyright 1986, Carnegie Mellon
 University), and the Gaussian 82(TM) system (copyright 1983,
 Carnegie Mellon University). Gaussian is a federally registered
 trademark of Gaussian, Inc.
  
 This software contains proprietary and confidential information,
 including trade secrets, belonging to Gaussian, Inc.
  
 This software is provided under written license and may be
 used, copied, transmitted, or stored only in accord with that
 written license.
  
 The following legend is applicable only to US Government
 contracts under FAR:
  
                    RESTRICTED RIGHTS LEGEND
  
 Use, reproduction and disclosure by the US Government is
 subject to restrictions as set forth in subparagraphs (a)
 and (c) of the Commercial Computer Software - Restricted
 Rights clause in FAR 52.227-19.
  
 Gaussian, Inc.
 340 Quinnipiac St., Bldg. 40, Wallingford CT 06492
  
  
 ---------------------------------------------------------------
 Warning -- This program may not be used in any manner that
 competes with the business of Gaussian, Inc. or will provide
 assistance to any competitor of Gaussian, Inc.  The licensee
 of this program is prohibited from giving any competitor of
 Gaussian, Inc. access to this program.  By using this program,
 the user acknowledges that Gaussian, Inc. is engaged in the
 business of creating and licensing software in the field of
 computational chemistry and represents and warrants to the
 licensee that it is not a competitor of Gaussian, Inc. and that
 it will not use this program in any manner prohibited above.
 ---------------------------------------------------------------
  

 Cite this work as:
 Gaussian 09, Revision A.02,
 M. J. Frisch, G. W. Trucks, H. B. Schlegel, G. E. Scuseria, 
 M. A. Robb, J. R. Cheeseman, G. Scalmani, V. Barone, B. Mennucci, 
 G. A. Petersson, H. Nakatsuji, M. Caricato, X. Li, H. P. Hratchian, 
 A. F. Izmaylov, J. Bloino, G. Zheng, J. L. Sonnenberg, M. Hada, 
 M. Ehara, K. Toyota, R. Fukuda, J. Hasegawa, M. Ishida, T. Nakajima, 
 Y. Honda, O. Kitao, H. Nakai, T. Vreven, J. A. Montgomery, Jr., 
 J. E. Peralta, F. Ogliaro, M. Bearpark, J. J. Heyd, E. Brothers, 
 K. N. Kudin, V. N. Staroverov, R. Kobayashi, J. Normand, 
 K. Raghavachari, A. Rendell, J. C. Burant, S. S. Iyengar, J. Tomasi, 
 M. Cossi, N. Rega, J. M. Millam, M. Klene, J. E. Knox, J. B. Cross, 
 V. Bakken, C. Adamo, J. Jaramillo, R. Gomperts, R. E. Stratmann, 
 O. Yazyev, A. J. Austin, R. Cammi, C. Pomelli, J. W. Ochterski, 
 R. L. Martin, K. Morokuma, V. G. Zakrzewski, G. A. Voth, 
 P. Salvador, J. J. Dannenberg, S. Dapprich, A. D. Daniels, 
 O. Farkas, J. B. Foresman, J. V. Ortiz, J. Cioslowski, 
 and D. J. Fox, Gaussian, Inc., Wallingford CT, 2009.
 
 ******************************************
 Gaussian 09:  IA32W-G09RevA.02 11-Jun-2009
                29-Oct-2015 
 ******************************************
 ----------------------------------------------------------------------
 # freq=noraman x3lyp/6-31+g(d) scrf=(cpcm,solvent=methanol) geom=conne
 ctivity
 ----------------------------------------------------------------------
 1/10=4,30=1,38=1,57=2/1,3;
 2/12=2,17=6,18=5,40=1/2;
 3/5=1,6=6,7=11,11=2,16=1,25=1,30=1,70=2101,71=2,72=3,74=-33/1,2,3;
 4//1;
 5/5=2,38=5,53=3,98=1/2;
 8/6=4,10=90,11=11/1;
 11/6=1,8=1,9=11,15=111,16=1/1,2,10;
 10/6=1/2;
 6/7=2,8=2,9=2,10=2,18=1,28=1/1;
 7/8=1,10=1,25=1/1,2,3,16;
 1/10=4,30=1/3;
 99//99;
 --------
 tsb-4 s9
 --------
 Symbolic Z-matrix:
 Charge =  1 Multiplicity = 1
 C                    -1.78814   1.83306  -0.00343 
 H                    -2.16951   1.81284   1.02188 
 H                    -2.57615   1.58998  -0.7179 
 H                    -1.37532   2.81718  -0.22127 
 C                    -1.19157  -0.92193   1.39354 
 H                    -0.3628   -0.6211    2.0393 
 H                    -1.2754   -2.01248   1.41869 
 H                    -2.11446  -0.48398   1.7835 
 C                    -0.95581  -0.43259  -0.02141 
 O                    -1.89463  -0.81056  -0.94853 
 H                    -2.4011   -1.58648  -0.65417 
 O                     2.16238   0.34416   0.2872 
 H                     1.88894   1.27056   0.15324 
 O                    -0.67599   0.91615  -0.15131 
 H                     1.2678   -0.39748  -0.13208 
 O                     0.34506  -1.0604   -0.47398 
 H                     0.29667  -1.11228  -1.45059 
 C                     3.55248   0.10436  -0.10361 
 H                     3.74814  -0.94354   0.11959 
 H                     3.68768   0.31222  -1.167 
 H                     4.18918   0.74243   0.50925 
 

 GradGradGradGradGradGradGradGradGradGradGradGradGradGradGradGradGradGrad
 Berny optimization.
 Initialization pass.
 Trust Radius=3.00D-01 FncErr=1.00D-07 GrdErr=1.00D-07
 Number of steps in this run=   2 maximum allowed number of steps=   2.
 GradGradGradGradGradGradGradGradGradGradGradGradGradGradGradGradGradGrad

                          Input orientation:                          
 ---------------------------------------------------------------------
 Center     Atomic      Atomic             Coordinates (Angstroms)
 Number     Number       Type             X           Y           Z
 ---------------------------------------------------------------------
      1          6           0       -1.788141    1.833056   -0.003426
      2          1           0       -2.169506    1.812839    1.021875
      3          1           0       -2.576145    1.589983   -0.717895
      4          1           0       -1.375321    2.817182   -0.221274
      5          6           0       -1.191570   -0.921933    1.393538
      6          1           0       -0.362796   -0.621099    2.039298
      7          1           0       -1.275397   -2.012479    1.418692
      8          1           0       -2.114459   -0.483983    1.783498
      9          6           0       -0.955812   -0.432591   -0.021411
     10          8           0       -1.894633   -0.810559   -0.948530
     11          1           0       -2.401097   -1.586477   -0.654172
     12          8           0        2.162384    0.344160    0.287196
     13          1           0        1.888942    1.270557    0.153235
     14          8           0       -0.675985    0.916150   -0.151312
     15          1           0        1.267796   -0.397483   -0.132082
     16          8           0        0.345055   -1.060402   -0.473975
     17          1           0        0.296665   -1.112280   -1.450588
     18          6           0        3.552482    0.104358   -0.103610
     19          1           0        3.748144   -0.943538    0.119588
     20          1           0        3.687677    0.312217   -1.167001
     21          1           0        4.189183    0.742433    0.509252
 ---------------------------------------------------------------------
                    Distance matrix (angstroms):
                    1          2          3          4          5
     1  C    0.000000
     2  H    1.094116   0.000000
     3  H    1.091101   1.800505   0.000000
     4  H    1.089212   1.784616   1.787352   0.000000
     5  C    3.146009   2.928049   3.561589   4.077053   0.000000
     6  H    3.496742   3.197406   4.170121   4.237590   1.092874
     7  H    4.132005   3.948411   4.385736   5.101480   1.094052
     8  H    2.944189   2.420432   3.281990   3.932318   1.093432
     9  C    2.413763   2.757436   2.683538   3.282828   1.515625
    10  O    2.809495   3.292456   2.506043   3.736187   2.447853
    11  H    3.534458   3.797120   3.181918   4.542227   2.469350
    12  O    4.231775   4.632714   5.001594   4.346232   3.751798
    13  H    3.723156   4.185643   4.560472   3.631490   3.979311
    14  O    1.448958   2.100244   2.094200   2.026793   2.455797
    15  H    3.785579   4.246432   4.366816   4.162703   2.941266
    16  O    3.625471   4.100744   3.951892   4.249613   2.422394
    17  H    3.887891   4.555370   4.011496   4.443807   3.215607
    18  C    5.614329   6.076740   6.335968   5.626411   5.079444
    19  H    6.194761   6.590168   6.864163   6.364676   5.101391
    20  H    5.800986   6.430368   6.408576   5.727408   5.646817
    21  H    6.097598   6.468499   6.927763   5.983474   5.701279
                    6          7          8          9         10
     6  H    0.000000
     7  H    1.775931   0.000000
     8  H    1.775544   1.781406   0.000000
     9  C    2.152609   2.161499   2.145414   0.000000
    10  O    3.362965   2.726134   2.760245   1.372514   0.000000
    11  H    3.513034   2.396965   2.690704   1.954658   0.972215
    12  O    3.221509   4.318839   4.606097   3.228270   4.395427
    13  H    3.493697   4.732098   4.665125   3.320217   4.456497
    14  O    2.694438   3.376548   2.788023   1.383575   2.258801
    15  H    2.724651   3.388354   3.888004   2.226637   3.292139
    16  O    2.647750   2.667303   3.387868   1.513676   2.303004
    17  H    3.585450   3.393303   4.082596   2.018223   2.268234
    18  C    4.521918   5.486968   6.001795   4.540901   5.587667
    19  H    4.548525   5.297761   6.111457   4.733725   5.744518
    20  H    5.249549   6.059878   6.557756   4.840362   5.698293
    21  H    4.992071   6.186942   6.547038   5.304079   6.445908
                   11         12         13         14         15
    11  H    0.000000
    12  O    5.043698   0.000000
    13  H    5.217182   0.975155   0.000000
    14  O    3.080912   2.928447   2.607145   0.000000
    15  H    3.891922   1.235361   1.802661   2.346121   0.000000
    16  O    2.801888   2.419682   2.865371   2.247975   1.186509
    17  H    2.852553   2.936327   3.284129   2.597825   1.786754
    18  C    6.213465   1.463765   2.047768   4.305951   2.339326
    19  H    6.230990   2.049608   2.891363   4.806739   2.552183
    20  H    6.398531   2.107659   2.428351   4.520830   2.725905
    21  H    7.085843   2.077461   2.386791   4.912879   3.200815
                   16         17         18         19         20
    16  O    0.000000
    17  H    0.979186   0.000000
    18  C    3.432408   3.727587   0.000000
    19  H    3.456442   3.795607   1.089122   0.000000
    20  H    3.679333   3.688980   1.091917   1.798857   0.000000
    21  H    4.358242   4.736310   1.090013   1.785736   1.801782
                   21
    21  H    0.000000
 Stoichiometry    C4H13O4(1+)
 Framework group  C1[X(C4H13O4)]
 Deg. of freedom    57
 Full point group                 C1      NOp   1
 Largest Abelian subgroup         C1      NOp   1
 Largest concise Abelian subgroup C1      NOp   1
                         Standard orientation:                         
 ---------------------------------------------------------------------
 Center     Atomic      Atomic             Coordinates (Angstroms)
 Number     Number       Type             X           Y           Z
 ---------------------------------------------------------------------
      1          6           0       -1.788141    1.833056   -0.003426
      2          1           0       -2.169506    1.812839    1.021875
      3          1           0       -2.576145    1.589983   -0.717895
      4          1           0       -1.375321    2.817182   -0.221274
      5          6           0       -1.191570   -0.921933    1.393538
      6          1           0       -0.362796   -0.621099    2.039298
      7          1           0       -1.275397   -2.012479    1.418692
      8          1           0       -2.114459   -0.483983    1.783498
      9          6           0       -0.955812   -0.432591   -0.021411
     10          8           0       -1.894633   -0.810559   -0.948530
     11          1           0       -2.401097   -1.586477   -0.654172
     12          8           0        2.162384    0.344160    0.287196
     13          1           0        1.888942    1.270557    0.153235
     14          8           0       -0.675985    0.916150   -0.151312
     15          1           0        1.267796   -0.397483   -0.132082
     16          8           0        0.345055   -1.060402   -0.473975
     17          1           0        0.296665   -1.112280   -1.450588
     18          6           0        3.552482    0.104358   -0.103610
     19          1           0        3.748144   -0.943538    0.119588
     20          1           0        3.687677    0.312217   -1.167001
     21          1           0        4.189183    0.742433    0.509252
 ---------------------------------------------------------------------
 Rotational constants (GHZ):      2.7985223      1.0235741      0.9056714
 Standard basis: 6-31+G(d) (6D, 7F)
 There are   178 symmetry adapted basis functions of A   symmetry.
 Integral buffers will be    262144 words long.
 Raffenetti 2 integral format.
 Two-electron integral symmetry is turned on.
   178 basis functions,   308 primitive gaussians,   178 cartesian basis functions
    34 alpha electrons       34 beta electrons
       nuclear repulsion energy       450.0711445976 Hartrees.
 NAtoms=   21 NActive=   21 NUniq=   21 SFac= 7.50D-01 NAtFMM=   80 NAOKFM=F Big=F
 ------------------------------------------------------------------------------
 Polarizable Continuum Model (PCM)
 =================================
 Model                : C-PCM.
 Atomic radii         : UFF (Universal Force Field).
 Polarization charges : Total charges.
 Charge compensation  : None.
 Solution method      : Matrix inversion.
 Cavity type          : Scaled VdW (van der Waals Surface) (Alpha=1.100).
 Cavity algorithm     : GePol (No added spheres)
                        Default sphere list used, NSphG=   21.
                        Lebedev-Laikov grids with approx.  5.0 points / Ang**2.
                        Smoothing algorithm: Karplus/York (Gamma=1.0000).
                        Polarization charges: spherical gaussians, with
                                              point-specific exponents (IZeta= 3).
                        Self-potential: point-specific (ISelfS= 7).
                        Self-field    : sphere-specific E.n sum rule (ISelfD= 2).
 1st derivatives      : Analytical E(r).r(x)/FMM algorithm (CHGder, D1EAlg=3).
                        Cavity 1st derivative terms included.
 2nd derivatives      : Analytical E(r).r(xy)/FMM algorithm (CHGder, D2EAlg=3).
                        Cavity 2nd derivative terms included.
 Solvent              : Methanol, Eps=  32.613000 Eps(inf)=   1.765709
 ------------------------------------------------------------------------------
 One-electron integrals computed using PRISM.
 NBasis=   178 RedAO= T  NBF=   178
 NBsUse=   178 1.00D-06 NBFU=   178
 Harris functional with IExCor= 3102 diagonalized for initial guess.
 ExpMin= 4.38D-02 ExpMax= 5.48D+03 ExpMxC= 8.25D+02 IAcc=2 IRadAn=         0 AccDes= 0.00D+00
 HarFok:  IExCor= 3102 AccDes= 0.00D+00 IRadAn=         0 IDoV= 1
 ScaDFX=  1.000000  1.000000  1.000000  1.000000
 FoFCou: FMM=F IPFlag=           0 FMFlag=      100000 FMFlg1=           0
         NFxFlg=           0 DoJE=T BraDBF=F KetDBF=T FulRan=T
         Omega=  0.000000  0.000000  1.000000  0.000000  0.000000 ICntrl=     500 IOpCl=  0
         NMat0=    1 NMatS0=    1 NMatT0=    0 NMatD0=    1 NMtDS0=    0 NMtDT0=    0
         I1Cent=           4 NGrid=           0.
 Petite list used in FoFCou.
 Initial guess orbital symmetries:
       Occupied  (A) (A) (A) (A) (A) (A) (A) (A) (A) (A) (A) (A)
                 (A) (A) (A) (A) (A) (A) (A) (A) (A) (A) (A) (A)
                 (A) (A) (A) (A) (A) (A) (A) (A) (A) (A)
       Virtual   (A) (A) (A) (A) (A) (A) (A) (A) (A) (A) (A) (A)
                 (A) (A) (A) (A) (A) (A) (A) (A) (A) (A) (A) (A)
                 (A) (A) (A) (A) (A) (A) (A) (A) (A) (A) (A) (A)
                 (A) (A) (A) (A) (A) (A) (A) (A) (A) (A) (A) (A)
                 (A) (A) (A) (A) (A) (A) (A) (A) (A) (A) (A) (A)
                 (A) (A) (A) (A) (A) (A) (A) (A) (A) (A) (A) (A)
                 (A) (A) (A) (A) (A) (A) (A) (A) (A) (A) (A) (A)
                 (A) (A) (A) (A) (A) (A) (A) (A) (A) (A) (A) (A)
                 (A) (A) (A) (A) (A) (A) (A) (A) (A) (A) (A) (A)
                 (A) (A) (A) (A) (A) (A) (A) (A) (A) (A) (A) (A)
                 (A) (A) (A) (A) (A) (A) (A) (A) (A) (A) (A) (A)
                 (A) (A) (A) (A) (A) (A) (A) (A) (A) (A) (A) (A)
 The electronic state of the initial guess is 1-A.
 Requested convergence on RMS density matrix=1.00D-08 within 128 cycles.
 Requested convergence on MAX density matrix=1.00D-06.
 Requested convergence on             energy=1.00D-06.
 No special actions if energy rises.
 Error on total polarization charges =  0.00961
 SCF Done:  E(RX3LYP) =  -460.771760829     A.U. after   12 cycles
             Convg  =    0.4177D-08             -V/T =  2.0091
 Range of M.O.s used for correlation:     1   178
 NBasis=   178 NAE=    34 NBE=    34 NFC=     0 NFV=     0
 NROrb=    178 NOA=    34 NOB=    34 NVA=   144 NVB=   144

 **** Warning!!: The largest alpha MO coefficient is  0.55543899D+02

 Symmetrizing basis deriv contribution to polar:
 IMax=3 JMax=2 DiffMx= 0.00D+00
 G2DrvN: will do    22 centers at a time, making    1 passes doing MaxLOS=2.
 Calling FoFCou, ICntrl=  3107 FMM=F I1Cent=   0 AccDes= 0.00D+00.
 FoFDir/FoFCou used for L=0 through L=2.
 G2PCM: DoFxE=T DoFxN=T DoGrad=T DoPD/DQ/DG=FFF NFrqRd=   0 IEInf=0 DoCFld=F IF1Alg=4.
 End of G2Drv Frequency-dependent properties file   721 does not exist.
 End of G2Drv Frequency-dependent properties file   722 does not exist.
          IDoAtm=111111111111111111111
 NEqPCM:  Using equilibrium solvation (IEInf=0, Eps=  32.6130, EpsInf=   1.7657)
          Differentiating once with respect to electric field.
                with respect to dipole field.
          Differentiating once with respect to nuclear coordinates.
          There are    66 degrees of freedom in the 1st order CPHF.  IDoFFX=5.
     63 vectors produced by pass  0 Test12= 7.42D-15 1.52D-09 XBig12= 3.69D+01 7.90D-01.
 AX will form    63 AO Fock derivatives at one time.
     63 vectors produced by pass  1 Test12= 7.42D-15 1.52D-09 XBig12= 2.22D+00 1.77D-01.
     63 vectors produced by pass  2 Test12= 7.42D-15 1.52D-09 XBig12= 1.37D-02 1.07D-02.
     63 vectors produced by pass  3 Test12= 7.42D-15 1.52D-09 XBig12= 3.08D-05 9.74D-04.
     63 vectors produced by pass  4 Test12= 7.42D-15 1.52D-09 XBig12= 3.96D-08 2.13D-05.
     37 vectors produced by pass  5 Test12= 7.42D-15 1.52D-09 XBig12= 3.04D-11 5.56D-07.
      3 vectors produced by pass  6 Test12= 7.42D-15 1.52D-09 XBig12= 2.68D-14 1.82D-08.
 Inverted reduced A of dimension   355 with in-core refinement.
 Isotropic polarizability for W=    0.000000       81.72 Bohr**3.
 End of Minotr Frequency-dependent properties file   721 does not exist.
 End of Minotr Frequency-dependent properties file   722 does not exist.

 **********************************************************************

            Population analysis using the SCF density.

 **********************************************************************

 Orbital symmetries:
       Occupied  (A) (A) (A) (A) (A) (A) (A) (A) (A) (A) (A) (A)
                 (A) (A) (A) (A) (A) (A) (A) (A) (A) (A) (A) (A)
                 (A) (A) (A) (A) (A) (A) (A) (A) (A) (A)
       Virtual   (A) (A) (A) (A) (A) (A) (A) (A) (A) (A) (A) (A)
                 (A) (A) (A) (A) (A) (A) (A) (A) (A) (A) (A) (A)
                 (A) (A) (A) (A) (A) (A) (A) (A) (A) (A) (A) (A)
                 (A) (A) (A) (A) (A) (A) (A) (A) (A) (A) (A) (A)
                 (A) (A) (A) (A) (A) (A) (A) (A) (A) (A) (A) (A)
                 (A) (A) (A) (A) (A) (A) (A) (A) (A) (A) (A) (A)
                 (A) (A) (A) (A) (A) (A) (A) (A) (A) (A) (A) (A)
                 (A) (A) (A) (A) (A) (A) (A) (A) (A) (A) (A) (A)
                 (A) (A) (A) (A) (A) (A) (A) (A) (A) (A) (A) (A)
                 (A) (A) (A) (A) (A) (A) (A) (A) (A) (A) (A) (A)
                 (A) (A) (A) (A) (A) (A) (A) (A) (A) (A) (A) (A)
                 (A) (A) (A) (A) (A) (A) (A) (A) (A) (A) (A) (A)
 The electronic state is 1-A.
 Alpha  occ. eigenvalues --  -19.28639 -19.27862 -19.24843 -19.23640 -10.42250
 Alpha  occ. eigenvalues --  -10.28974 -10.27346 -10.23518  -1.17241  -1.11539
 Alpha  occ. eigenvalues --   -1.08358  -1.06720  -0.79826  -0.74481  -0.73938
 Alpha  occ. eigenvalues --   -0.66712  -0.63179  -0.61085  -0.56422  -0.55232
 Alpha  occ. eigenvalues --   -0.53209  -0.49995  -0.48880  -0.47066  -0.46351
 Alpha  occ. eigenvalues --   -0.44274  -0.43006  -0.42600  -0.40311  -0.40046
 Alpha  occ. eigenvalues --   -0.37783  -0.36946  -0.35659  -0.31907
 Alpha virt. eigenvalues --   -0.02065   0.00572   0.01338   0.02182   0.02450
 Alpha virt. eigenvalues --    0.03284   0.04479   0.05151   0.05871   0.06148
 Alpha virt. eigenvalues --    0.06735   0.07388   0.08252   0.09170   0.10483
 Alpha virt. eigenvalues --    0.11039   0.11974   0.14245   0.14426   0.14812
 Alpha virt. eigenvalues --    0.15821   0.16525   0.16892   0.17252   0.18805
 Alpha virt. eigenvalues --    0.19349   0.20247   0.20434   0.21202   0.22170
 Alpha virt. eigenvalues --    0.23149   0.23346   0.24171   0.24969   0.26184
 Alpha virt. eigenvalues --    0.27024   0.27154   0.27556   0.29282   0.29622
 Alpha virt. eigenvalues --    0.29772   0.31296   0.32926   0.34183   0.34458
 Alpha virt. eigenvalues --    0.36027   0.36536   0.39332   0.41409   0.43320
 Alpha virt. eigenvalues --    0.45122   0.61418   0.62874   0.63280   0.64989
 Alpha virt. eigenvalues --    0.67125   0.68517   0.69921   0.72268   0.75755
 Alpha virt. eigenvalues --    0.76421   0.78123   0.81915   0.88700   0.91619
 Alpha virt. eigenvalues --    0.91833   0.94724   0.98086   0.98700   1.01839
 Alpha virt. eigenvalues --    1.03131   1.04704   1.05003   1.05888   1.08704
 Alpha virt. eigenvalues --    1.09496   1.11428   1.13707   1.14695   1.15614
 Alpha virt. eigenvalues --    1.18127   1.19403   1.24418   1.25814   1.28170
 Alpha virt. eigenvalues --    1.29905   1.31401   1.34860   1.37232   1.39386
 Alpha virt. eigenvalues --    1.44882   1.46780   1.47703   1.51988   1.53191
 Alpha virt. eigenvalues --    1.56158   1.57729   1.63112   1.66034   1.70917
 Alpha virt. eigenvalues --    1.72069   1.75433   1.77422   1.78190   1.79468
 Alpha virt. eigenvalues --    1.83990   1.88495   1.92556   1.96901   1.99186
 Alpha virt. eigenvalues --    2.02644   2.05312   2.06982   2.10004   2.13101
 Alpha virt. eigenvalues --    2.18794   2.21559   2.22741   2.25553   2.26965
 Alpha virt. eigenvalues --    2.28545   2.31088   2.34304   2.38899   2.43267
 Alpha virt. eigenvalues --    2.46287   2.52471   2.57856   2.59124   2.73350
 Alpha virt. eigenvalues --    2.78523   2.81600   2.85936   2.86525   2.97503
 Alpha virt. eigenvalues --    3.01314   4.06664   4.17972   4.21373   4.26871
 Alpha virt. eigenvalues --    4.30156   4.33175   4.49737   4.60787
          Condensed to atoms (all electrons):
              1          2          3          4          5          6
     1  C    5.248659   0.384746   0.409142   0.391285   0.043040   0.002286
     2  H    0.384746   0.501932  -0.035681  -0.026619  -0.003003   0.000139
     3  H    0.409142  -0.035681   0.482317  -0.024331   0.001081   0.000011
     4  H    0.391285  -0.026619  -0.024331   0.471964  -0.002520  -0.000023
     5  C    0.043040  -0.003003   0.001081  -0.002520   5.962343   0.399879
     6  H    0.002286   0.000139   0.000011  -0.000023   0.399879   0.448391
     7  H    0.001592  -0.000115   0.000019   0.000002   0.408613  -0.022309
     8  H   -0.003777   0.001024  -0.000009   0.000025   0.367367  -0.022119
     9  C   -0.230916   0.006510  -0.035342   0.012684  -0.379016  -0.065243
    10  O   -0.013946  -0.004104   0.013876  -0.000250  -0.116390   0.008520
    11  H    0.000528   0.000152  -0.000734   0.000011   0.015351   0.000095
    12  O    0.005229   0.000105  -0.000081  -0.000023   0.002916   0.001393
    13  H   -0.000469   0.000000   0.000007  -0.000022  -0.001798  -0.000039
    14  O    0.123015  -0.043282  -0.044110  -0.049296  -0.172160  -0.002676
    15  H    0.001716  -0.000033   0.000014   0.000003  -0.003348  -0.000359
    16  O    0.016334  -0.000063  -0.000098  -0.000995   0.044997  -0.000283
    17  H   -0.003455   0.000004  -0.000019   0.000007  -0.018387  -0.000022
    18  C    0.000065  -0.000003   0.000036  -0.000105  -0.001240  -0.000211
    19  H    0.000066   0.000000   0.000000   0.000000   0.000239   0.000000
    20  H   -0.000045   0.000000   0.000000   0.000000  -0.000672   0.000001
    21  H   -0.000001   0.000000   0.000000   0.000000   0.000458   0.000000
              7          8          9         10         11         12
     1  C    0.001592  -0.003777  -0.230916  -0.013946   0.000528   0.005229
     2  H   -0.000115   0.001024   0.006510  -0.004104   0.000152   0.000105
     3  H    0.000019  -0.000009  -0.035342   0.013876  -0.000734  -0.000081
     4  H    0.000002   0.000025   0.012684  -0.000250   0.000011  -0.000023
     5  C    0.408613   0.367367  -0.379016  -0.116390   0.015351   0.002916
     6  H   -0.022309  -0.022119  -0.065243   0.008520   0.000095   0.001393
     7  H    0.454360  -0.022960  -0.074586  -0.004071   0.001331   0.000017
     8  H   -0.022960   0.450832  -0.018175  -0.005809  -0.000285   0.000041
     9  C   -0.074586  -0.018175   5.879673   0.327022  -0.019222  -0.024746
    10  O   -0.004071  -0.005809   0.327022   8.413889   0.193826   0.001128
    11  H    0.001331  -0.000285  -0.019222   0.193826   0.278134   0.000020
    12  O    0.000017   0.000041  -0.024746   0.001128   0.000020   8.529014
    13  H   -0.000001   0.000002   0.003176  -0.000044  -0.000001   0.213883
    14  O    0.009255  -0.004246   0.326982  -0.088939   0.008472   0.001686
    15  H    0.000116   0.000040  -0.002086   0.003418  -0.000130   0.098031
    16  O   -0.000412   0.004792  -0.102309  -0.083647  -0.000509  -0.027122
    17  H   -0.000096  -0.000109   0.055682   0.005641  -0.000546  -0.003075
    18  C    0.000073   0.000036  -0.004856   0.000163  -0.000005   0.072908
    19  H    0.000000   0.000000  -0.001426   0.000006   0.000000  -0.037364
    20  H    0.000000   0.000000   0.001056   0.000004   0.000000  -0.053520
    21  H    0.000000   0.000000  -0.000519   0.000000   0.000000  -0.035686
             13         14         15         16         17         18
     1  C   -0.000469   0.123015   0.001716   0.016334  -0.003455   0.000065
     2  H    0.000000  -0.043282  -0.000033  -0.000063   0.000004  -0.000003
     3  H    0.000007  -0.044110   0.000014  -0.000098  -0.000019   0.000036
     4  H   -0.000022  -0.049296   0.000003  -0.000995   0.000007  -0.000105
     5  C   -0.001798  -0.172160  -0.003348   0.044997  -0.018387  -0.001240
     6  H   -0.000039  -0.002676  -0.000359  -0.000283  -0.000022  -0.000211
     7  H   -0.000001   0.009255   0.000116  -0.000412  -0.000096   0.000073
     8  H    0.000002  -0.004246   0.000040   0.004792  -0.000109   0.000036
     9  C    0.003176   0.326982  -0.002086  -0.102309   0.055682  -0.004856
    10  O   -0.000044  -0.088939   0.003418  -0.083647   0.005641   0.000163
    11  H   -0.000001   0.008472  -0.000130  -0.000509  -0.000546  -0.000005
    12  O    0.213883   0.001686   0.098031  -0.027122  -0.003075   0.072908
    13  H    0.238254   0.008099  -0.004607  -0.001528   0.000014  -0.013421
    14  O    0.008099   8.444364   0.007703  -0.165291  -0.007908   0.000823
    15  H   -0.004607   0.007703   0.180032   0.073765  -0.003171  -0.008657
    16  O   -0.001528  -0.165291   0.073765   8.858045   0.177153   0.005259
    17  H    0.000014  -0.007908  -0.003171   0.177153   0.216024  -0.000479
    18  C   -0.013421   0.000823  -0.008657   0.005259  -0.000479   5.125881
    19  H    0.003350   0.000134  -0.002034   0.000812  -0.000006   0.391863
    20  H   -0.001908   0.000008  -0.000206   0.000229   0.000087   0.395178
    21  H   -0.003235   0.000012   0.001362  -0.000629   0.000001   0.389985
             19         20         21
     1  C    0.000066  -0.000045  -0.000001
     2  H    0.000000   0.000000   0.000000
     3  H    0.000000   0.000000   0.000000
     4  H    0.000000   0.000000   0.000000
     5  C    0.000239  -0.000672   0.000458
     6  H    0.000000   0.000001   0.000000
     7  H    0.000000   0.000000   0.000000
     8  H    0.000000   0.000000   0.000000
     9  C   -0.001426   0.001056  -0.000519
    10  O    0.000006   0.000004   0.000000
    11  H    0.000000   0.000000   0.000000
    12  O   -0.037364  -0.053520  -0.035686
    13  H    0.003350  -0.001908  -0.003235
    14  O    0.000134   0.000008   0.000012
    15  H   -0.002034  -0.000206   0.001362
    16  O    0.000812   0.000229  -0.000629
    17  H   -0.000006   0.000087   0.000001
    18  C    0.391863   0.395178   0.389985
    19  H    0.452693  -0.026525  -0.022747
    20  H   -0.026525   0.476795  -0.027965
    21  H   -0.022747  -0.027965   0.461075
 Mulliken atomic charges:
              1
     1  C   -0.375093
     2  H    0.218288
     3  H    0.233902
     4  H    0.228202
     5  C   -0.547749
     6  H    0.252570
     7  H    0.249172
     8  H    0.253331
     9  C    0.345656
    10  O   -0.650292
    11  H    0.523512
    12  O   -0.744753
    13  H    0.560290
    14  O   -0.352644
    15  H    0.658432
    16  O   -0.798501
    17  H    0.582657
    18  C   -0.353293
    19  H    0.240941
    20  H    0.237484
    21  H    0.237888
 Sum of Mulliken atomic charges =   1.00000
 Mulliken charges with hydrogens summed into heavy atoms:
              1
     1  C    0.305299
     5  C    0.207324
     9  C    0.345656
    10  O   -0.126780
    12  O   -0.184463
    14  O   -0.352644
    16  O    0.442589
    18  C    0.363019
 Sum of Mulliken charges with hydrogens summed into heavy atoms =   1.00000
 APT atomic charges:
              1
     1  C    0.573970
     2  H   -0.025866
     3  H   -0.000514
     4  H    0.014270
     5  C   -0.128814
     6  H    0.039366
     7  H    0.028700
     8  H    0.044121
     9  C    1.796307
    10  O   -0.893859
    11  H    0.375798
    12  O   -0.978252
    13  H    0.394199
    14  O   -1.055882
    15  H    0.999931
    16  O   -1.145205
    17  H    0.379984
    18  C    0.541022
    19  H    0.033745
    20  H   -0.002087
    21  H    0.009065
 Sum of APT charges=   1.00000
 APT Atomic charges with hydrogens summed into heavy atoms:
              1
     1  C    0.561861
     2  H    0.000000
     3  H    0.000000
     4  H    0.000000
     5  C   -0.016627
     6  H    0.000000
     7  H    0.000000
     8  H    0.000000
     9  C    1.796307
    10  O   -0.518061
    11  H    0.000000
    12  O   -0.584053
    13  H    0.000000
    14  O   -1.055882
    15  H    0.000000
    16  O    0.234709
    17  H    0.000000
    18  C    0.581745
    19  H    0.000000
    20  H    0.000000
    21  H    0.000000
 Sum of APT charges=   1.00000
 Electronic spatial extent (au):  <R**2>=           1382.5714
 Charge=              1.0000 electrons
 Dipole moment (field-independent basis, Debye):
    X=              2.6954    Y=             -0.4500    Z=             -0.2916  Tot=              2.7483
 Quadrupole moment (field-independent basis, Debye-Ang):
   XX=            -18.5784   YY=            -37.5995   ZZ=            -45.9217
   XY=              4.9553   XZ=             -5.3297   YZ=              1.6740
 Traceless Quadrupole moment (field-independent basis, Debye-Ang):
   XX=             15.4548   YY=             -3.5663   ZZ=            -11.8885
   XY=              4.9553   XZ=             -5.3297   YZ=              1.6740
 Octapole moment (field-independent basis, Debye-Ang**2):
  XXX=             57.2427  YYY=              3.8298  ZZZ=             -6.4950  XYY=             -9.6977
  XXY=             -0.5289  XXZ=             -1.4719  XZZ=              3.3425  YZZ=             -5.7022
  YYZ=             -3.8772  XYZ=              0.7123
 Hexadecapole moment (field-independent basis, Debye-Ang**3):
 XXXX=           -839.5684 YYYY=           -316.1890 ZZZZ=           -196.8573 XXXY=             47.0196
 XXXZ=             -2.2463 YYYX=             22.5779 YYYZ=              7.7905 ZZZX=             -9.0944
 ZZZY=             10.7355 XXYY=           -195.0174 XXZZ=           -223.4365 YYZZ=            -89.2273
 XXYZ=              8.0648 YYXZ=              7.5049 ZZXY=              1.7725
 N-N= 4.500711445976D+02 E-N=-1.966413159438D+03  KE= 4.566136953083D+02
  Exact polarizability:  87.726   0.571  82.004   0.340   1.089  75.434
 Approx polarizability:  87.963   1.455  85.154   1.077   1.730  79.033
 D2PCM: C-PCM CHGder 2nd derivatives, FixD1E=F FixD2E=F DoIter=F DoCFld=F I1PDM=0
 Calling FoFJK, ICntrl=    100127 FMM=F ISym2X=0 I1Cent= 0 IOpClX= 0 NMat=1 NMatS=1 NMatT=0.
 Full mass-weighted force constant matrix:
 Low frequencies --- -442.2624  -32.4806   -7.0318   -0.0006   -0.0004    0.0009
 Low frequencies ---   16.7188   22.1724   46.9080
 ******    2 imaginary frequencies (negative Signs) ****** 
 Diagonal vibrational polarizability:
     1406.4238736     194.5472695     228.3898591
 Harmonic frequencies (cm**-1), IR intensities (KM/Mole), Raman scattering
 activities (A**4/AMU), depolarization ratios for plane and unpolarized
 incident light, reduced masses (AMU), force constants (mDyne/A),
 and normal coordinates:
                     1                      2                      3
                     A                      A                      A
 Frequencies --  -442.2521               -24.0117                44.0467
 Red. masses --     1.3871                 2.4438                 3.4559
 Frc consts  --     0.1598                 0.0008                 0.0040
 IR Inten    --  4561.2656                12.6786                17.4836
  Atom  AN      X      Y      Z        X      Y      Z        X      Y      Z
     1   6     0.01  -0.02   0.01     0.08   0.02  -0.06    -0.09  -0.01   0.00
     2   1     0.00  -0.02   0.01     0.03   0.04  -0.08     0.11   0.04   0.08
     3   1     0.00  -0.02   0.01     0.10   0.05  -0.10    -0.21  -0.11   0.17
     4   1    -0.03   0.00   0.01     0.13   0.01  -0.04    -0.19   0.00  -0.15
     5   6     0.00   0.01  -0.01    -0.03   0.01   0.01     0.22   0.08   0.01
     6   1    -0.01  -0.01   0.02    -0.03   0.00   0.01     0.28   0.16  -0.10
     7   1    -0.01   0.01   0.01    -0.07   0.02   0.02     0.29   0.08   0.07
     8   1     0.00   0.03  -0.05    -0.02   0.05  -0.01     0.24   0.04   0.09
     9   6     0.12  -0.06  -0.04     0.00  -0.01   0.00     0.02   0.03  -0.05
    10   8    -0.02   0.01  -0.01     0.00   0.02   0.00    -0.08  -0.05   0.09
    11   1     0.01   0.00   0.02    -0.03   0.04  -0.01     0.06  -0.12   0.15
    12   8    -0.07  -0.01   0.00    -0.02  -0.13   0.15     0.00  -0.10   0.14
    13   1    -0.19  -0.03  -0.02    -0.17  -0.13   0.45     0.03  -0.07   0.32
    14   8     0.02   0.02   0.00     0.05  -0.02  -0.01    -0.07   0.04  -0.14
    15   1     0.71   0.54   0.30    -0.02  -0.12   0.07     0.01   0.01  -0.02
    16   8    -0.04   0.04   0.03    -0.01  -0.06   0.02    -0.01   0.08  -0.16
    17   1    -0.11  -0.04   0.05     0.02  -0.03   0.02     0.00   0.25  -0.17
    18   6     0.00  -0.03  -0.03    -0.05   0.17  -0.14     0.00  -0.06   0.08
    19   1    -0.03  -0.02   0.01     0.14   0.14  -0.45    -0.02  -0.10  -0.11
    20   1    -0.07  -0.01  -0.02    -0.26   0.47  -0.11    -0.01   0.14   0.12
    21   1    -0.12   0.02   0.01    -0.03   0.10  -0.09     0.01  -0.18   0.20
                     4                      5                      6
                     A                      A                      A
 Frequencies --    65.5876                77.2767               135.5887
 Red. masses --     2.7927                 1.9235                 1.1552
 Frc consts  --     0.0071                 0.0068                 0.0125
 IR Inten    --     4.0820                 5.0003                18.8757
  Atom  AN      X      Y      Z        X      Y      Z        X      Y      Z
     1   6     0.17   0.03   0.10    -0.01   0.00   0.14     0.01   0.01   0.01
     2   1     0.45   0.17   0.21     0.40   0.21   0.30     0.02   0.00   0.01
     3   1    -0.03  -0.01   0.34    -0.29  -0.20   0.51     0.00   0.01   0.01
     4   1     0.17  -0.02  -0.12    -0.15  -0.04  -0.26     0.01   0.01   0.01
     5   6     0.03   0.02   0.00    -0.10   0.06  -0.02     0.03  -0.01  -0.01
     6   1     0.08   0.00  -0.05    -0.17   0.12   0.03     0.03  -0.01  -0.02
     7   1    -0.02   0.03   0.03    -0.05   0.06   0.01     0.04  -0.01  -0.02
     8   1     0.07   0.08   0.02    -0.15   0.03  -0.11     0.03  -0.02   0.01
     9   6     0.00  -0.03  -0.03    -0.02   0.01  -0.02     0.00   0.01  -0.01
    10   8    -0.05   0.00   0.02     0.06  -0.06  -0.07     0.00   0.01   0.00
    11   1    -0.08   0.03   0.05     0.04  -0.04  -0.06     0.02  -0.01  -0.02
    12   8    -0.12   0.01  -0.09     0.05   0.01   0.04    -0.01  -0.01   0.08
    13   1    -0.21  -0.03  -0.20     0.08   0.02   0.07    -0.03  -0.02  -0.01
    14   8     0.08  -0.05  -0.08    -0.04   0.00  -0.09     0.00   0.00  -0.01
    15   1    -0.05  -0.10  -0.10     0.00   0.01   0.06    -0.04  -0.05   0.04
    16   8    -0.04  -0.11  -0.05     0.02   0.02   0.07     0.01   0.00  -0.02
    17   1    -0.07  -0.14  -0.05     0.06  -0.06   0.08     0.04   0.08  -0.03
    18   6    -0.05   0.13   0.14     0.02  -0.03  -0.06    -0.04  -0.01  -0.03
    19   1     0.03   0.16   0.25     0.00  -0.04  -0.10     0.14   0.13   0.46
    20   1     0.10   0.06   0.15    -0.05   0.00  -0.07    -0.24  -0.52  -0.16
    21   1    -0.20   0.24   0.19     0.08  -0.06  -0.09    -0.02   0.38  -0.46
                     7                      8                      9
                     A                      A                      A
 Frequencies --   173.5030               176.0825               251.5690
 Red. masses --     1.5154                 2.6400                 1.0741
 Frc consts  --     0.0269                 0.0482                 0.0401
 IR Inten    --    19.6051                71.1651                 3.5184
  Atom  AN      X      Y      Z        X      Y      Z        X      Y      Z
     1   6    -0.01  -0.01   0.10     0.10   0.03   0.04     0.03   0.03  -0.03
     2   1    -0.22  -0.44   0.01     0.00  -0.15   0.00     0.05   0.10  -0.02
     3   1     0.12   0.35  -0.16     0.14   0.25  -0.08     0.01  -0.01   0.00
     4   1     0.09   0.07   0.63     0.21   0.04   0.29     0.04   0.00  -0.10
     5   6    -0.03   0.09   0.00     0.05   0.00   0.00    -0.01  -0.04   0.00
     6   1    -0.09   0.23   0.02     0.03   0.08  -0.01    -0.29   0.43   0.14
     7   1     0.09   0.08   0.07     0.13   0.00   0.02     0.54  -0.08   0.03
     8   1    -0.10   0.00  -0.07     0.01  -0.06  -0.01    -0.31  -0.49  -0.20
     9   6    -0.01   0.01  -0.03     0.01  -0.01  -0.01     0.00   0.00   0.01
    10   8    -0.01  -0.05  -0.01     0.04  -0.06  -0.01    -0.02   0.00   0.02
    11   1     0.02  -0.06   0.02     0.06  -0.07   0.00    -0.03   0.02   0.04
    12   8     0.03  -0.05  -0.02    -0.10   0.17   0.09     0.00  -0.01  -0.01
    13   1     0.00  -0.05   0.01     0.03   0.18  -0.05    -0.01  -0.01   0.00
    14   8    -0.02   0.00  -0.09     0.03  -0.03  -0.06     0.01   0.00   0.02
    15   1     0.04  -0.03   0.00    -0.19   0.04   0.02     0.02   0.01   0.00
    16   8    -0.01  -0.01   0.02     0.06  -0.01   0.01    -0.01   0.01  -0.02
    17   1    -0.01  -0.08   0.02     0.12   0.05   0.00    -0.02   0.05  -0.02
    18   6     0.06   0.03   0.01    -0.20  -0.11  -0.05     0.01   0.00   0.00
    19   1     0.13   0.06   0.07    -0.45  -0.20  -0.25     0.01   0.00   0.01
    20   1     0.06   0.00   0.01    -0.22   0.03  -0.03     0.01   0.00   0.00
    21   1    -0.01   0.11   0.00     0.04  -0.39  -0.01    -0.01   0.01   0.01
                    10                     11                     12
                     A                      A                      A
 Frequencies --   268.6467               331.7192               349.9689
 Red. masses --     3.1135                 1.3125                 3.6123
 Frc consts  --     0.1324                 0.0851                 0.2607
 IR Inten    --   152.3851               157.7363                 2.6026
  Atom  AN      X      Y      Z        X      Y      Z        X      Y      Z
     1   6     0.13   0.18  -0.03    -0.01   0.01  -0.01     0.00   0.18   0.02
     2   1     0.12   0.27  -0.03     0.02   0.00   0.01    -0.08   0.33  -0.01
     3   1     0.07   0.39  -0.04    -0.04   0.02   0.02     0.02   0.22  -0.02
     4   1     0.37   0.08  -0.02     0.00   0.00  -0.01     0.16   0.10  -0.05
     5   6    -0.07  -0.14  -0.02     0.02  -0.02   0.00     0.04   0.07   0.06
     6   1     0.01  -0.35  -0.02     0.01  -0.01   0.01     0.06   0.15  -0.01
     7   1    -0.24  -0.13  -0.14     0.05  -0.02  -0.02     0.02   0.08   0.19
     8   1     0.02  -0.03   0.05     0.00  -0.06   0.01     0.06   0.14   0.03
     9   6    -0.06  -0.06   0.00     0.00   0.01   0.01     0.02  -0.01   0.03
    10   8    -0.12  -0.14   0.06    -0.05   0.10   0.03     0.19  -0.17  -0.10
    11   1     0.03  -0.22   0.10     0.66  -0.55  -0.45     0.45  -0.39  -0.24
    12   8     0.09   0.05   0.03     0.00   0.00   0.00    -0.09  -0.12  -0.08
    13   1     0.12   0.08   0.12    -0.03  -0.02  -0.10    -0.14  -0.12   0.00
    14   8    -0.09  -0.05  -0.05    -0.02  -0.01  -0.04    -0.09   0.03   0.16
    15   1     0.13   0.22   0.09     0.04  -0.03   0.08     0.00  -0.07  -0.09
    16   8    -0.01   0.11   0.00     0.02  -0.05   0.05    -0.03   0.04  -0.06
    17   1     0.00   0.17  -0.01     0.07   0.04   0.04    -0.13   0.08  -0.06
    18   6     0.10   0.02   0.00     0.01   0.00   0.00    -0.06   0.00   0.01
    19   1     0.09   0.03   0.03     0.00   0.00  -0.03     0.02   0.01   0.03
    20   1     0.07   0.00   0.00     0.01   0.02   0.00    -0.01   0.00   0.02
    21   1     0.09   0.04  -0.01     0.00  -0.01   0.02    -0.15   0.05   0.04
                    13                     14                     15
                     A                      A                      A
 Frequencies --   366.9852               434.4431               476.1131
 Red. masses --     2.5216                 2.9565                 1.1123
 Frc consts  --     0.2001                 0.3288                 0.1486
 IR Inten    --     3.0914                46.2677                75.2281
  Atom  AN      X      Y      Z        X      Y      Z        X      Y      Z
     1   6    -0.04   0.11   0.00    -0.05   0.04  -0.01     0.01  -0.02   0.00
     2   1    -0.01   0.10   0.01     0.00  -0.09   0.01     0.02  -0.03   0.00
     3   1    -0.08   0.18   0.01    -0.05   0.01   0.01     0.01  -0.03   0.00
     4   1     0.01   0.09   0.01    -0.16   0.10   0.06     0.00  -0.01   0.00
     5   6     0.17  -0.11  -0.02    -0.09  -0.11  -0.05     0.00  -0.01   0.01
     6   1     0.28  -0.11  -0.17    -0.21  -0.43   0.25     0.01  -0.03   0.01
     7   1     0.34  -0.13  -0.18    -0.21  -0.11  -0.43     0.02  -0.01  -0.02
     8   1     0.20  -0.29   0.27    -0.15  -0.17  -0.12     0.00  -0.03   0.03
     9   6    -0.04   0.04  -0.01     0.10   0.12   0.06     0.01   0.01   0.01
    10   8     0.03   0.02  -0.09     0.11  -0.05   0.16     0.01   0.01   0.00
    11   1    -0.26   0.25   0.03     0.18  -0.04   0.29     0.10  -0.07  -0.06
    12   8    -0.01  -0.03  -0.01    -0.06  -0.08  -0.04    -0.01   0.01  -0.06
    13   1    -0.05  -0.05  -0.07    -0.12  -0.11  -0.11     0.17   0.18   0.82
    14   8    -0.08   0.05  -0.07     0.05   0.13  -0.12     0.02   0.00  -0.01
    15   1     0.01  -0.04   0.08    -0.05  -0.16  -0.08    -0.09   0.18  -0.21
    16   8    -0.03  -0.05   0.18     0.04   0.02   0.00    -0.01   0.02   0.01
    17   1     0.03  -0.38   0.19    -0.02   0.02   0.00    -0.14  -0.31   0.04
    18   6     0.00   0.00   0.00    -0.07   0.00   0.01    -0.03  -0.01   0.01
    19   1     0.02   0.00  -0.01    -0.01   0.00   0.00    -0.03   0.01   0.12
    20   1     0.01   0.02   0.01    -0.03   0.01   0.01     0.02  -0.10   0.00
    21   1    -0.03   0.01   0.02    -0.10   0.01   0.02    -0.03   0.03  -0.03
                    16                     17                     18
                     A                      A                      A
 Frequencies --   513.5363               576.3973               596.4140
 Red. masses --     2.6646                 3.2566                 1.6487
 Frc consts  --     0.4140                 0.6375                 0.3455
 IR Inten    --    21.6397               154.3455               102.7507
  Atom  AN      X      Y      Z        X      Y      Z        X      Y      Z
     1   6    -0.07   0.10   0.03    -0.08   0.10   0.00     0.00   0.00   0.01
     2   1    -0.11   0.17   0.01    -0.03   0.14   0.02    -0.02   0.01   0.00
     3   1    -0.03   0.06   0.00    -0.15   0.29   0.02     0.02  -0.04   0.00
     4   1    -0.03   0.07  -0.03     0.13   0.02   0.03    -0.02   0.00  -0.01
     5   6     0.00   0.06  -0.15    -0.04  -0.03   0.12     0.02   0.03  -0.11
     6   1    -0.06   0.09  -0.10    -0.12   0.02   0.20     0.04   0.05  -0.13
     7   1    -0.03   0.06  -0.09    -0.13  -0.02   0.26     0.02   0.04  -0.08
     8   1    -0.03   0.11  -0.28    -0.06   0.09  -0.06     0.03   0.04  -0.09
     9   6     0.03   0.01  -0.09     0.05  -0.09   0.06    -0.02   0.01  -0.05
    10   8    -0.09  -0.04   0.07     0.06   0.13   0.01    -0.05  -0.04   0.01
    11   1     0.05  -0.08   0.22    -0.32   0.35  -0.05    -0.04   0.00   0.13
    12   8     0.01   0.03   0.04    -0.02  -0.01  -0.04    -0.02  -0.03  -0.09
    13   1     0.02   0.03   0.00    -0.04   0.04   0.30    -0.03   0.02   0.33
    14   8    -0.02   0.05   0.12    -0.16  -0.07  -0.08     0.02   0.01   0.05
    15   1     0.15   0.04  -0.16     0.23   0.11   0.05    -0.09  -0.06   0.30
    16   8     0.12  -0.14  -0.04     0.19  -0.12  -0.07     0.05  -0.02   0.10
    17   1     0.07  -0.77   0.00     0.17   0.32  -0.09     0.45   0.68   0.04
    18   6     0.01  -0.01   0.00    -0.01  -0.01   0.00    -0.04   0.00   0.01
    19   1    -0.02  -0.01  -0.01    -0.03   0.00   0.05    -0.02   0.01   0.05
    20   1    -0.03  -0.01  -0.01     0.02  -0.03   0.00     0.05  -0.03   0.01
    21   1     0.05  -0.02  -0.02    -0.06   0.01   0.02    -0.08   0.02   0.03
                    19                     20                     21
                     A                      A                      A
 Frequencies --   654.6202               773.3109               873.3401
 Red. masses --     4.1282                 4.1655                 2.3281
 Frc consts  --     1.0423                 1.4677                 1.0462
 IR Inten    --   209.4958                50.9599               390.9307
  Atom  AN      X      Y      Z        X      Y      Z        X      Y      Z
     1   6     0.07  -0.09  -0.01     0.03  -0.06  -0.01     0.08  -0.09  -0.01
     2   1     0.06  -0.02  -0.01     0.03   0.13   0.00     0.06  -0.04  -0.01
     3   1     0.04  -0.01  -0.01    -0.05   0.19  -0.01     0.05  -0.04   0.00
     4   1     0.15  -0.12  -0.02     0.33  -0.19  -0.03     0.12  -0.12  -0.02
     5   6    -0.01   0.02  -0.01     0.08   0.06  -0.24    -0.05   0.10  -0.06
     6   1     0.02   0.08  -0.08    -0.07   0.07  -0.06     0.14  -0.09  -0.21
     7   1    -0.01   0.02   0.08    -0.06   0.08  -0.19     0.19   0.07  -0.47
     8   1     0.01   0.06   0.00     0.02   0.21  -0.55    -0.01  -0.23   0.39
     9   6    -0.06   0.00  -0.01     0.14  -0.05   0.02    -0.13   0.16   0.07
    10   8    -0.06   0.06   0.02     0.15   0.10   0.14     0.06  -0.01   0.02
    11   1    -0.06   0.04  -0.04     0.03   0.16   0.05     0.06   0.02   0.09
    12   8    -0.05  -0.15  -0.05     0.02   0.01   0.01    -0.06   0.01   0.02
    13   1    -0.11  -0.21  -0.36     0.10   0.03  -0.03    -0.11   0.01   0.04
    14   8    -0.05  -0.10   0.01    -0.18  -0.15   0.01    -0.09  -0.04   0.03
    15   1    -0.04  -0.05  -0.20    -0.27  -0.15  -0.01     0.35   0.23  -0.04
    16   8     0.24   0.28   0.06    -0.17   0.04   0.06     0.06  -0.07  -0.04
    17   1     0.23  -0.60   0.12    -0.14   0.01   0.05    -0.27   0.17  -0.03
    18   6    -0.11   0.01   0.02    -0.01   0.01   0.00     0.07  -0.02  -0.02
    19   1     0.05   0.02  -0.03     0.01   0.01  -0.01     0.02  -0.02   0.01
    20   1    -0.06   0.05   0.03    -0.01   0.00   0.00     0.03   0.00  -0.02
    21   1    -0.18   0.06   0.04     0.05  -0.01  -0.03    -0.02   0.02   0.02
                    22                     23                     24
                     A                      A                      A
 Frequencies --   972.1350               997.4515              1028.6582
 Red. masses --     2.3333                 3.5978                 1.6716
 Frc consts  --     1.2992                 2.1090                 1.0422
 IR Inten    --    76.0316                69.4762               101.3100
  Atom  AN      X      Y      Z        X      Y      Z        X      Y      Z
     1   6     0.06  -0.07   0.00    -0.03   0.03   0.00    -0.08   0.07   0.01
     2   1     0.03   0.04  -0.01    -0.02   0.00   0.00    -0.06   0.03   0.02
     3   1     0.04   0.02  -0.02    -0.02   0.01   0.00    -0.04   0.01  -0.01
     4   1     0.18  -0.13  -0.03    -0.04   0.04   0.01    -0.02   0.04   0.00
     5   6     0.08   0.06   0.11    -0.06   0.02  -0.06     0.05   0.06  -0.03
     6   1    -0.18  -0.34   0.64     0.13   0.07  -0.33    -0.04  -0.11   0.16
     7   1    -0.09   0.06  -0.39     0.14   0.01  -0.05    -0.02   0.06  -0.30
     8   1    -0.11  -0.12  -0.15     0.03  -0.06   0.24    -0.04  -0.03  -0.16
     9   6     0.12   0.12  -0.02    -0.02  -0.04   0.05     0.02  -0.01   0.09
    10   8    -0.09  -0.03  -0.11     0.02   0.00   0.02    -0.05  -0.02  -0.04
    11   1     0.02  -0.01   0.13    -0.03   0.00  -0.06    -0.15  -0.02  -0.19
    12   8     0.08   0.00  -0.02     0.28  -0.03  -0.05    -0.05  -0.01   0.02
    13   1     0.01  -0.02   0.02     0.18  -0.07  -0.11     0.42   0.10  -0.16
    14   8    -0.10   0.00   0.04     0.03  -0.02  -0.01     0.08  -0.08  -0.01
    15   1     0.05  -0.13   0.09     0.42   0.13  -0.01    -0.13   0.23  -0.26
    16   8    -0.01  -0.03   0.00     0.00  -0.03  -0.01     0.04   0.00   0.04
    17   1     0.12  -0.04  -0.01    -0.42   0.14   0.00    -0.34   0.22   0.04
    18   6    -0.08   0.02   0.02    -0.31   0.06   0.08     0.01  -0.04   0.00
    19   1    -0.09   0.02   0.02    -0.17   0.07   0.04     0.33   0.00  -0.09
    20   1    -0.04  -0.02   0.02    -0.22   0.04   0.08    -0.09   0.15   0.02
    21   1     0.00  -0.03   0.00    -0.20   0.01   0.03    -0.17   0.15   0.00
                    25                     26                     27
                     A                      A                      A
 Frequencies --  1053.6777              1084.7197              1122.2207
 Red. masses --     1.5273                 1.9115                 1.5364
 Frc consts  --     0.9991                 1.3251                 1.1400
 IR Inten    --   177.9505               106.4466               184.4023
  Atom  AN      X      Y      Z        X      Y      Z        X      Y      Z
     1   6     0.09  -0.07  -0.02    -0.11   0.04   0.02     0.02   0.01   0.01
     2   1     0.06  -0.05  -0.02    -0.05   0.13   0.03    -0.07   0.02  -0.02
     3   1     0.04  -0.02   0.01    -0.09   0.14  -0.02     0.04  -0.04   0.00
     4   1     0.00  -0.02   0.01     0.21  -0.11  -0.04    -0.11   0.06  -0.02
     5   6    -0.02  -0.06   0.02    -0.09   0.03   0.05     0.00   0.10   0.03
     6   1     0.00   0.09  -0.06     0.11  -0.07  -0.14     0.03  -0.22   0.13
     7   1    -0.03  -0.05   0.25     0.18   0.00  -0.03     0.06   0.08  -0.42
     8   1     0.04   0.07   0.00    -0.01  -0.17   0.46    -0.10  -0.22   0.13
     9   6     0.00   0.01  -0.05     0.09   0.05  -0.11    -0.06  -0.12  -0.05
    10   8     0.01   0.01   0.01     0.02   0.03  -0.01     0.05   0.00   0.07
    11   1     0.09   0.00   0.14     0.29   0.03   0.47    -0.24   0.00  -0.44
    12   8    -0.01   0.00   0.00    -0.01   0.01   0.00     0.01   0.01   0.00
    13   1     0.57   0.14  -0.15     0.18   0.06  -0.02     0.09   0.03   0.01
    14   8    -0.08   0.10   0.01     0.06  -0.13   0.01     0.00   0.03   0.01
    15   1    -0.09   0.22  -0.05    -0.10   0.00   0.12    -0.05   0.03   0.23
    16   8     0.00  -0.04   0.00    -0.04   0.02  -0.02    -0.03   0.01  -0.04
    17   1     0.09   0.05  -0.01     0.30  -0.09  -0.03     0.45  -0.22  -0.05
    18   6    -0.03  -0.05   0.01     0.00  -0.02   0.00    -0.01  -0.02  -0.01
    19   1     0.43   0.02  -0.11     0.16   0.00  -0.04     0.13   0.01  -0.01
    20   1    -0.14   0.22   0.05    -0.03   0.07   0.02     0.02   0.06   0.01
    21   1    -0.30   0.20   0.02    -0.10   0.07   0.01    -0.14   0.06   0.04
                    28                     29                     30
                     A                      A                      A
 Frequencies --  1173.8763              1178.8305              1193.8545
 Red. masses --     1.5867                 1.2617                 1.5972
 Frc consts  --     1.2882                 1.0330                 1.3413
 IR Inten    --   136.9364                 7.5640               219.9737
  Atom  AN      X      Y      Z        X      Y      Z        X      Y      Z
     1   6    -0.02   0.03   0.00     0.03   0.01   0.13     0.00  -0.05   0.01
     2   1     0.01  -0.08   0.00    -0.57   0.35  -0.08    -0.03   0.16   0.01
     3   1     0.01  -0.08   0.01     0.49  -0.38  -0.25    -0.02   0.14  -0.04
     4   1    -0.08   0.06   0.02    -0.02  -0.06  -0.27     0.18  -0.13  -0.04
     5   6     0.06  -0.04   0.00     0.00  -0.01   0.00    -0.06   0.02   0.00
     6   1    -0.11   0.06   0.17     0.00   0.03  -0.02     0.10  -0.03  -0.17
     7   1    -0.16  -0.01   0.11     0.00  -0.01   0.04     0.15   0.00  -0.07
     8   1     0.01   0.09  -0.24     0.01   0.03  -0.01     0.00  -0.06   0.21
     9   6    -0.11   0.09   0.00     0.00   0.02   0.00     0.12  -0.07   0.02
    10   8     0.04   0.00   0.01     0.00   0.00   0.00    -0.04  -0.01  -0.01
    11   1     0.08   0.02   0.11     0.02   0.00   0.03    -0.07  -0.02  -0.09
    12   8     0.03   0.01   0.04     0.00   0.00   0.00     0.00  -0.01   0.05
    13   1    -0.01   0.00   0.01     0.00   0.00   0.00     0.05  -0.01  -0.04
    14   8     0.03  -0.07   0.00    -0.02  -0.01  -0.06    -0.02   0.08   0.00
    15   1     0.11   0.11   0.15     0.00   0.00   0.00    -0.23  -0.08  -0.17
    16   8    -0.02   0.00  -0.02     0.00   0.00   0.00     0.02   0.00   0.02
    17   1     0.12  -0.09  -0.01    -0.01   0.01   0.00    -0.17   0.09   0.01
    18   6    -0.04  -0.02  -0.10     0.00   0.00   0.00    -0.02   0.02  -0.10
    19   1     0.02   0.06   0.23     0.01   0.00  -0.01    -0.14   0.07   0.24
    20   1     0.53   0.01  -0.02    -0.01   0.00   0.00     0.61  -0.11  -0.05
    21   1    -0.51   0.06   0.29     0.00   0.00  -0.01    -0.26  -0.06   0.23
                    31                     32                     33
                     A                      A                      A
 Frequencies --  1222.7373              1293.5071              1355.1006
 Red. masses --     1.4996                 1.8147                 1.4805
 Frc consts  --     1.3210                 1.7890                 1.6018
 IR Inten    --     3.3859                81.8312               469.1619
  Atom  AN      X      Y      Z        X      Y      Z        X      Y      Z
     1   6    -0.09  -0.11   0.03     0.00   0.01  -0.01    -0.02   0.02   0.00
     2   1    -0.05   0.41   0.06     0.06  -0.06   0.01     0.06  -0.08   0.02
     3   1    -0.13   0.41  -0.11     0.01  -0.06   0.01     0.03  -0.10  -0.01
     4   1     0.55  -0.40  -0.09     0.03   0.00   0.04     0.09  -0.03   0.01
     5   6     0.03  -0.03   0.00    -0.05  -0.03  -0.04    -0.02  -0.04  -0.01
     6   1    -0.05   0.05   0.07     0.04   0.16  -0.24    -0.05   0.13  -0.04
     7   1    -0.09  -0.01   0.05     0.11  -0.03   0.02     0.01  -0.03   0.10
     8   1     0.01   0.05  -0.13     0.09   0.15   0.05     0.09   0.09   0.11
     9   6    -0.09   0.03   0.01     0.10   0.07   0.17     0.06   0.14   0.00
    10   8     0.01  -0.01   0.01    -0.05  -0.03  -0.03     0.00  -0.04   0.04
    11   1    -0.07  -0.01  -0.14    -0.18  -0.03  -0.27    -0.31  -0.02  -0.49
    12   8     0.01   0.01  -0.01     0.01   0.06  -0.02    -0.03  -0.05   0.00
    13   1    -0.04   0.00   0.02    -0.24   0.01   0.16     0.43   0.06  -0.11
    14   8     0.07   0.06  -0.02    -0.01  -0.01  -0.01     0.00  -0.03   0.01
    15   1     0.11   0.04   0.08     0.05  -0.36   0.35     0.06   0.22  -0.01
    16   8     0.00   0.00  -0.01    -0.01   0.01  -0.04    -0.03  -0.02  -0.01
    17   1     0.05  -0.04   0.00     0.18  -0.21  -0.04     0.30  -0.03  -0.02
    18   6     0.00  -0.01   0.02    -0.01  -0.09   0.00     0.02   0.08  -0.01
    19   1     0.05  -0.01  -0.04     0.38  -0.03  -0.07    -0.35   0.03   0.06
    20   1    -0.11   0.04   0.01    -0.03   0.19   0.06    -0.04  -0.17  -0.06
    21   1    -0.01   0.03  -0.02    -0.22   0.14  -0.02     0.13  -0.11   0.07
                    34                     35                     36
                     A                      A                      A
 Frequencies --  1384.5333              1445.3315              1481.9326
 Red. masses --     1.6718                 1.3909                 1.1389
 Frc consts  --     1.8882                 1.7120                 1.4737
 IR Inten    --   488.7720               114.0840                 9.6469
  Atom  AN      X      Y      Z        X      Y      Z        X      Y      Z
     1   6     0.01  -0.02   0.00     0.00   0.00   0.00    -0.06   0.06  -0.01
     2   1    -0.05   0.11  -0.02     0.02   0.00   0.01     0.26  -0.28   0.10
     3   1    -0.05   0.09   0.02     0.01  -0.04   0.00     0.20  -0.52  -0.07
     4   1    -0.09   0.04   0.05     0.02   0.00   0.03     0.54  -0.19   0.07
     5   6     0.00   0.01   0.00    -0.03  -0.05   0.15     0.01   0.02   0.00
     6   1     0.11   0.06  -0.18     0.29   0.23  -0.39     0.15  -0.09  -0.13
     7   1     0.09   0.00  -0.27     0.09  -0.07  -0.53    -0.13   0.03   0.09
     8   1    -0.03   0.14  -0.23    -0.11   0.31  -0.47    -0.16  -0.22  -0.12
     9   6    -0.04  -0.07   0.19     0.01   0.03  -0.08    -0.01  -0.03   0.03
    10   8    -0.01   0.02  -0.07     0.01   0.00   0.02     0.00   0.01  -0.01
    11   1     0.26   0.01   0.41    -0.05   0.00  -0.08     0.04   0.00   0.07
    12   8    -0.02  -0.04   0.00     0.01   0.01   0.00     0.01   0.00   0.00
    13   1     0.35   0.06  -0.07    -0.10  -0.02   0.01    -0.03  -0.01  -0.01
    14   8     0.01   0.02  -0.02     0.00  -0.01   0.01    -0.02   0.04   0.00
    15   1     0.02   0.14   0.17     0.01   0.03  -0.13    -0.03   0.06  -0.03
    16   8    -0.02   0.00  -0.04     0.00   0.00   0.02     0.00   0.00   0.00
    17   1     0.40  -0.16  -0.04    -0.05   0.07   0.01     0.06  -0.01   0.00
    18   6     0.02   0.06   0.00     0.00  -0.01   0.00     0.01   0.00   0.00
    19   1    -0.25   0.02   0.04     0.03  -0.01   0.00    -0.04  -0.01   0.00
    20   1    -0.06  -0.13  -0.05     0.02   0.04   0.01    -0.03   0.02   0.00
    21   1     0.07  -0.07   0.07    -0.01   0.02  -0.03    -0.03   0.03   0.00
                    37                     38                     39
                     A                      A                      A
 Frequencies --  1492.6571              1499.6291              1504.2462
 Red. masses --     1.1266                 1.0511                 1.0471
 Frc consts  --     1.4789                 1.3926                 1.3960
 IR Inten    --    67.8691                10.2526                18.9011
  Atom  AN      X      Y      Z        X      Y      Z        X      Y      Z
     1   6     0.01  -0.01   0.00    -0.02   0.00  -0.03     0.00   0.00   0.00
     2   1    -0.01   0.03   0.00     0.11   0.30   0.03     0.00   0.02   0.00
     3   1    -0.01   0.06  -0.01     0.05  -0.30   0.01     0.00  -0.01   0.00
     4   1    -0.06   0.02  -0.01     0.11   0.05   0.44     0.00   0.01   0.02
     5   6    -0.01   0.01   0.00    -0.03  -0.01  -0.02     0.00   0.00   0.00
     6   1     0.02  -0.10   0.01    -0.13  -0.22   0.23     0.01  -0.04   0.00
     7   1     0.09   0.00   0.06     0.50  -0.04   0.00     0.02   0.00   0.03
     8   1    -0.01   0.02  -0.03     0.18   0.40   0.02    -0.01  -0.01  -0.02
     9   6     0.01   0.00   0.00    -0.03  -0.01  -0.01     0.00   0.00   0.00
    10   8     0.00   0.00   0.00     0.01   0.00   0.00     0.00   0.00   0.00
    11   1    -0.01   0.00  -0.01     0.01   0.00   0.01     0.00   0.00   0.00
    12   8     0.03   0.00   0.00     0.00   0.00   0.00     0.00   0.00  -0.01
    13   1    -0.07  -0.03   0.00    -0.06  -0.02  -0.01     0.01   0.00  -0.01
    14   8     0.00   0.00   0.00     0.00   0.00   0.00     0.00   0.00   0.00
    15   1    -0.10  -0.03  -0.10    -0.02   0.09  -0.06     0.01   0.00  -0.03
    16   8     0.00   0.00   0.01     0.00   0.00   0.00     0.00   0.00   0.00
    17   1     0.01   0.02   0.00     0.02   0.02   0.00     0.03   0.00   0.00
    18   6     0.08  -0.04  -0.01    -0.01   0.00   0.01    -0.01  -0.02  -0.05
    19   1    -0.59  -0.12   0.16     0.02  -0.01  -0.03     0.16   0.17   0.68
    20   1    -0.38   0.30   0.00     0.07   0.01   0.02    -0.22   0.46   0.03
    21   1    -0.41   0.37   0.06     0.03   0.02  -0.06     0.24  -0.37   0.09
                    40                     41                     42
                     A                      A                      A
 Frequencies --  1506.1999              1511.2660              1513.8989
 Red. masses --     1.0541                 1.0669                 1.0707
 Frc consts  --     1.4090                 1.4357                 1.4458
 IR Inten    --     9.6681               101.6497                21.4230
  Atom  AN      X      Y      Z        X      Y      Z        X      Y      Z
     1   6     0.00   0.01  -0.02    -0.01   0.00   0.03     0.01  -0.03  -0.03
     2   1    -0.11   0.02  -0.05     0.12  -0.21   0.05    -0.04   0.47  -0.02
     3   1    -0.09  -0.19   0.16     0.10   0.17  -0.16    -0.06  -0.09   0.08
     4   1     0.17  -0.02   0.15    -0.06  -0.04  -0.29    -0.13   0.14   0.45
     5   6     0.03  -0.03  -0.01    -0.01   0.00  -0.01     0.02   0.02   0.01
     6   1    -0.28   0.54   0.11    -0.02  -0.06   0.04     0.18  -0.03  -0.19
     7   1    -0.32   0.00  -0.37     0.11  -0.01   0.02    -0.28   0.04   0.17
     8   1     0.20   0.04   0.35     0.03   0.08   0.00    -0.20  -0.35  -0.10
     9   6     0.01  -0.04   0.00     0.00   0.00   0.03     0.02   0.03   0.01
    10   8     0.00   0.01   0.00     0.00   0.00   0.00     0.00  -0.01   0.00
    11   1     0.05   0.00   0.06     0.01   0.00   0.01    -0.04   0.00  -0.05
    12   8     0.00   0.00   0.00     0.00  -0.01   0.01    -0.01  -0.01   0.00
    13   1    -0.03  -0.01  -0.01    -0.04  -0.03  -0.03     0.04   0.01  -0.01
    14   8     0.00   0.01   0.00     0.00   0.00   0.00     0.00  -0.02  -0.01
    15   1    -0.04   0.03  -0.05     0.02   0.19  -0.16     0.05   0.00  -0.03
    16   8     0.00   0.00   0.00    -0.02  -0.01   0.00    -0.01   0.00   0.00
    17   1     0.02   0.01   0.00     0.19   0.01  -0.01     0.05   0.00   0.00
    18   6     0.00  -0.02   0.00    -0.04  -0.03   0.02    -0.02  -0.01   0.01
    19   1    -0.11  -0.02   0.06    -0.12  -0.04   0.02    -0.08  -0.02  -0.01
    20   1     0.05   0.16   0.04     0.41   0.35   0.14     0.21   0.15   0.06
    21   1     0.01   0.09  -0.12     0.23   0.21  -0.49     0.10   0.12  -0.23
                    43                     44                     45
                     A                      A                      A
 Frequencies --  1515.2500              1540.6415              1698.5250
 Red. masses --     1.0484                 1.0841                 1.0615
 Frc consts  --     1.4183                 1.5161                 1.8043
 IR Inten    --     7.9768                34.8365               171.6708
  Atom  AN      X      Y      Z        X      Y      Z        X      Y      Z
     1   6    -0.05  -0.03   0.01    -0.01   0.01   0.00     0.00   0.00   0.00
     2   1     0.55   0.22   0.22     0.06  -0.04   0.02     0.02  -0.02   0.01
     3   1     0.39   0.11  -0.49     0.04  -0.05  -0.04     0.02  -0.02  -0.01
     4   1    -0.25   0.09   0.07     0.05  -0.02  -0.01     0.02   0.00   0.00
     5   6     0.01  -0.01   0.00     0.00   0.00   0.01     0.00   0.00   0.00
     6   1    -0.07   0.19   0.02     0.00  -0.02   0.02    -0.02  -0.01   0.03
     7   1    -0.15   0.01  -0.12     0.06  -0.01  -0.04     0.02   0.00  -0.02
     8   1     0.04  -0.03   0.12     0.01   0.07  -0.04     0.02   0.02   0.02
     9   6     0.01  -0.01   0.00    -0.02  -0.01  -0.04    -0.02  -0.03   0.00
    10   8     0.00   0.00   0.00     0.00   0.00   0.01     0.00   0.00   0.00
    11   1     0.02   0.00   0.02     0.00   0.00   0.01     0.01   0.00   0.02
    12   8     0.00   0.00   0.00    -0.04  -0.01  -0.01    -0.03   0.02   0.01
    13   1    -0.01   0.00   0.00     0.40   0.11   0.02     0.22   0.10   0.06
    14   8    -0.01  -0.01   0.00     0.00   0.00   0.00     0.00   0.00   0.00
    15   1    -0.03  -0.01   0.01     0.08  -0.38   0.58     0.60  -0.54  -0.47
    16   8     0.00   0.00   0.00     0.03   0.02  -0.01    -0.03   0.02   0.02
    17   1    -0.02   0.00   0.00    -0.42  -0.07   0.02     0.20   0.09   0.01
    18   6     0.01   0.00   0.00     0.00   0.01   0.00     0.00  -0.01  -0.01
    19   1     0.02   0.01   0.00    -0.20  -0.01   0.07     0.00  -0.01  -0.01
    20   1    -0.08  -0.05  -0.02     0.13   0.15   0.04     0.01  -0.01  -0.01
    21   1    -0.05  -0.03   0.09     0.08   0.09  -0.16    -0.06   0.02   0.02
                    46                     47                     48
                     A                      A                      A
 Frequencies --  3077.6916              3082.0798              3097.8711
 Red. masses --     1.0334                 1.0353                 1.0287
 Frc consts  --     5.7670                 5.7943                 5.8163
 IR Inten    --    37.4903                 9.8620                20.1052
  Atom  AN      X      Y      Z        X      Y      Z        X      Y      Z
     1   6     0.03  -0.01  -0.02    -0.01   0.01   0.01     0.00   0.00   0.00
     2   1    -0.24  -0.02   0.67     0.10   0.01  -0.28     0.00   0.00  -0.01
     3   1    -0.33  -0.11  -0.31     0.15   0.05   0.14     0.00   0.00   0.00
     4   1     0.14   0.32  -0.08    -0.06  -0.14   0.03     0.00   0.00   0.00
     5   6    -0.01  -0.01   0.02    -0.01  -0.02   0.04     0.00   0.00   0.00
     6   1    -0.15  -0.06  -0.12    -0.38  -0.14  -0.29     0.00   0.00   0.00
     7   1     0.02   0.25   0.00     0.04   0.58   0.00     0.00   0.00   0.00
     8   1     0.20  -0.10  -0.08     0.42  -0.21  -0.17     0.00   0.00   0.00
     9   6     0.00   0.00   0.00     0.00   0.00   0.00     0.00   0.00   0.00
    10   8     0.00   0.00   0.00     0.00   0.00   0.00     0.00   0.00   0.00
    11   1     0.00   0.00   0.00     0.00   0.00   0.00     0.00   0.00   0.00
    12   8     0.00   0.00   0.00     0.00   0.00   0.00     0.00   0.00   0.00
    13   1     0.00   0.00   0.00     0.00   0.00   0.00     0.00  -0.01   0.00
    14   8     0.00   0.00   0.00     0.00   0.00   0.00     0.00   0.00   0.00
    15   1     0.00   0.00   0.00     0.00   0.00   0.00    -0.01  -0.01   0.00
    16   8     0.00   0.00   0.00     0.00   0.00   0.00     0.00   0.00   0.00
    17   1     0.00   0.00   0.00     0.00   0.00   0.00     0.00   0.00   0.00
    18   6     0.00   0.00   0.00     0.00   0.00   0.00     0.04   0.00  -0.02
    19   1     0.00   0.00   0.00     0.00   0.00   0.00    -0.08   0.46  -0.10
    20   1     0.00   0.00   0.00     0.00   0.00   0.00    -0.07  -0.13   0.67
    21   1     0.00   0.00   0.00     0.00   0.00   0.00    -0.31  -0.32  -0.31
                    49                     50                     51
                     A                      A                      A
 Frequencies --  3156.6172              3162.6735              3165.4115
 Red. masses --     1.1043                 1.1038                 1.1043
 Frc consts  --     6.4831                 6.5051                 6.5194
 IR Inten    --     7.9206                19.8847                11.6557
  Atom  AN      X      Y      Z        X      Y      Z        X      Y      Z
     1   6     0.00   0.00   0.01    -0.01   0.01  -0.06     0.01  -0.01   0.07
     2   1     0.02   0.00  -0.06    -0.13  -0.02   0.37     0.16   0.02  -0.44
     3   1    -0.05  -0.02  -0.05     0.34   0.12   0.31    -0.38  -0.13  -0.34
     4   1     0.02   0.03  -0.01    -0.09  -0.20   0.03     0.09   0.21  -0.03
     5   6     0.00  -0.09  -0.03    -0.07   0.00  -0.01    -0.06   0.01  -0.01
     6   1     0.32   0.10   0.24     0.44   0.16   0.34     0.34   0.13   0.26
     7   1     0.06   0.76  -0.02    -0.01   0.07   0.00    -0.01  -0.03   0.00
     8   1    -0.41   0.18   0.17     0.39  -0.19  -0.17     0.41  -0.20  -0.18
     9   6     0.00   0.00   0.00     0.00   0.00   0.00     0.00   0.00   0.00
    10   8     0.00   0.00   0.00     0.00   0.00   0.00     0.00   0.00   0.00
    11   1     0.00   0.00   0.00     0.00   0.00   0.00     0.00   0.00   0.00
    12   8     0.00   0.00   0.00     0.00   0.00   0.00     0.00   0.00   0.00
    13   1     0.00   0.00   0.00     0.00   0.00   0.00     0.00   0.00   0.00
    14   8     0.00   0.00   0.00     0.00   0.00   0.00     0.00   0.00   0.00
    15   1     0.00   0.00   0.00     0.00   0.00   0.00     0.00   0.00   0.00
    16   8     0.00   0.00   0.00     0.00   0.00   0.00     0.00   0.00   0.00
    17   1     0.00   0.00   0.00     0.00   0.00   0.00     0.00   0.00   0.00
    18   6     0.00   0.00   0.00     0.00   0.00   0.00     0.00   0.00   0.00
    19   1     0.00   0.00   0.00     0.00   0.00   0.00     0.00   0.00   0.00
    20   1     0.00   0.00   0.00     0.00   0.00   0.00     0.00   0.00   0.00
    21   1     0.00   0.00   0.00     0.00   0.00   0.00     0.00   0.00   0.00
                    52                     53                     54
                     A                      A                      A
 Frequencies --  3191.9687              3197.5139              3212.2437
 Red. masses --     1.1101                 1.1067                 1.1098
 Frc consts  --     6.6641                 6.6669                 6.7470
 IR Inten    --    10.8996                12.2357                 6.6359
  Atom  AN      X      Y      Z        X      Y      Z        X      Y      Z
     1   6     0.00   0.00   0.00    -0.06  -0.07   0.00     0.00   0.00   0.00
     2   1     0.00   0.00   0.00     0.03  -0.01  -0.11     0.00   0.00   0.00
     3   1     0.00   0.00   0.00     0.34   0.11   0.32     0.00   0.00   0.00
     4   1     0.00   0.00   0.00     0.34   0.78  -0.18     0.00   0.00   0.00
     5   6     0.00   0.00   0.00     0.00   0.00   0.00     0.00   0.00   0.00
     6   1     0.00   0.00   0.00     0.00   0.00   0.00     0.00   0.00   0.00
     7   1     0.00   0.00   0.00     0.00   0.00   0.00     0.00   0.00   0.00
     8   1     0.00   0.00   0.00     0.01   0.00   0.00     0.00   0.00   0.00
     9   6     0.00   0.00   0.00     0.00   0.00   0.00     0.00   0.00   0.00
    10   8     0.00   0.00   0.00     0.00   0.00   0.00     0.00   0.00   0.00
    11   1     0.00   0.00   0.00     0.00   0.00   0.00     0.00   0.00   0.00
    12   8     0.00   0.00   0.00     0.00   0.00   0.00     0.00   0.00   0.00
    13   1     0.00   0.00   0.00     0.00   0.00   0.00     0.00   0.01   0.00
    14   8     0.00   0.00   0.00     0.00   0.00   0.00     0.00   0.00   0.00
    15   1     0.00   0.00   0.00     0.00   0.00   0.00     0.00   0.00   0.00
    16   8     0.00   0.00   0.00     0.00   0.00   0.00     0.00   0.00   0.00
    17   1     0.00   0.00   0.00     0.00   0.00   0.00     0.00   0.00   0.00
    18   6     0.03   0.00   0.09     0.00   0.00   0.00     0.01   0.10  -0.01
    19   1    -0.04   0.24  -0.04     0.00   0.00   0.00     0.14  -0.82   0.18
    20   1     0.07   0.14  -0.67     0.00   0.00   0.00    -0.02  -0.02   0.19
    21   1    -0.39  -0.41  -0.38     0.00   0.00   0.00    -0.28  -0.28  -0.29
                    55                     56                     57
                     A                      A                      A
 Frequencies --  3666.7984              3711.4533              3738.5691
 Red. masses --     1.0659                 1.0671                 1.0670
 Frc consts  --     8.4436                 8.6603                 8.7869
 IR Inten    --   183.1674               175.4451               129.7048
  Atom  AN      X      Y      Z        X      Y      Z        X      Y      Z
     1   6     0.00   0.00   0.00     0.00   0.00   0.00     0.00   0.00   0.00
     2   1     0.00   0.00   0.00     0.00   0.00   0.00     0.00   0.00   0.00
     3   1     0.00   0.00   0.00     0.00   0.00   0.00     0.00   0.00   0.00
     4   1     0.00   0.00   0.00     0.00   0.00   0.00     0.00   0.00   0.00
     5   6     0.00   0.00   0.00     0.00   0.00   0.00     0.00   0.00   0.00
     6   1     0.00   0.00   0.00     0.00   0.00   0.00     0.00   0.00   0.00
     7   1     0.00   0.00   0.00     0.00   0.00   0.00     0.00   0.00   0.00
     8   1     0.00   0.00   0.00     0.00   0.00   0.00     0.00   0.00   0.00
     9   6     0.00   0.00   0.00     0.00   0.00   0.00     0.00   0.00   0.00
    10   8     0.00   0.00   0.00     0.00   0.00   0.00    -0.03  -0.05   0.02
    11   1     0.01   0.01   0.00     0.00   0.01   0.00     0.53   0.80  -0.29
    12   8     0.00   0.00   0.00     0.02  -0.06   0.01     0.00   0.00   0.00
    13   1     0.01  -0.02   0.00    -0.27   0.95  -0.13     0.00  -0.01   0.00
    14   8     0.00   0.00   0.00     0.00   0.00   0.00     0.00   0.00   0.00
    15   1     0.01   0.00   0.01    -0.01  -0.01   0.00     0.00   0.00   0.00
    16   8     0.00   0.00   0.06     0.00   0.00   0.00     0.00   0.00   0.00
    17   1    -0.04  -0.06  -0.99     0.00   0.00  -0.02     0.00   0.00   0.01
    18   6     0.00   0.00   0.00     0.00   0.00   0.00     0.00   0.00   0.00
    19   1     0.00   0.00   0.00    -0.01   0.02   0.00     0.00   0.00   0.00
    20   1     0.00   0.00   0.00     0.00   0.00   0.00     0.00   0.00   0.00
    21   1     0.00   0.00   0.00     0.00   0.00   0.00     0.00   0.00   0.00

 -------------------
 - Thermochemistry -
 -------------------
 Temperature   298.150 Kelvin.  Pressure   1.00000 Atm.
 Atom     1 has atomic number  6 and mass  12.00000
 Atom     2 has atomic number  1 and mass   1.00783
 Atom     3 has atomic number  1 and mass   1.00783
 Atom     4 has atomic number  1 and mass   1.00783
 Atom     5 has atomic number  6 and mass  12.00000
 Atom     6 has atomic number  1 and mass   1.00783
 Atom     7 has atomic number  1 and mass   1.00783
 Atom     8 has atomic number  1 and mass   1.00783
 Atom     9 has atomic number  6 and mass  12.00000
 Atom    10 has atomic number  8 and mass  15.99491
 Atom    11 has atomic number  1 and mass   1.00783
 Atom    12 has atomic number  8 and mass  15.99491
 Atom    13 has atomic number  1 and mass   1.00783
 Atom    14 has atomic number  8 and mass  15.99491
 Atom    15 has atomic number  1 and mass   1.00783
 Atom    16 has atomic number  8 and mass  15.99491
 Atom    17 has atomic number  1 and mass   1.00783
 Atom    18 has atomic number  6 and mass  12.00000
 Atom    19 has atomic number  1 and mass   1.00783
 Atom    20 has atomic number  1 and mass   1.00783
 Atom    21 has atomic number  1 and mass   1.00783
 Molecular mass:   125.08138 amu.
 Principal axes and moments of inertia in atomic units:
                           1         2         3
     Eigenvalues --   644.890761763.175941992.71085
           X            0.99982  -0.00685  -0.01763
           Y            0.00629   0.99949  -0.03130
           Z            0.01784   0.03118   0.99935
 This molecule is an asymmetric top.
 Rotational symmetry number  1.
 Warning -- assumption of classical behavior for rotation
           may cause significant error
 Rotational temperatures (Kelvin)      0.13431     0.04912     0.04347
 Rotational constants (GHZ):           2.79852     1.02357     0.90567
    2 imaginary frequencies ignored.
 Zero-point vibrational energy     468762.2 (Joules/Mol)
                                  112.03686 (Kcal/Mol)
 Warning -- explicit consideration of  16 degrees of freedom as
           vibrations may cause significant error
 Vibrational temperatures:     63.37    94.37   111.18   195.08   249.63
          (Kelvin)            253.34   361.95   386.52   477.27   503.53
                              528.01   625.07   685.02   738.86   829.31
                              858.11   941.85  1112.62  1256.54  1398.68
                             1435.11  1480.01  1516.01  1560.67  1614.62
                             1688.94  1696.07  1717.69  1759.24  1861.07
                             1949.69  1992.03  2079.51  2132.17  2147.60
                             2157.63  2164.27  2167.08  2174.37  2178.16
                             2180.10  2216.64  2443.80  4428.11  4434.42
                             4457.14  4541.66  4550.38  4554.32  4592.53
                             4600.50  4621.70  5275.70  5339.95  5378.96
 
 Zero-point correction=                           0.178542 (Hartree/Particle)
 Thermal correction to Energy=                    0.189394
 Thermal correction to Enthalpy=                  0.190338
 Thermal correction to Gibbs Free Energy=         0.141827
 Sum of electronic and zero-point Energies=           -460.593219
 Sum of electronic and thermal Energies=              -460.582367
[...]
 0.00011483,0.00025269,-0.00011222,0.00030330,-0.03868084,-0.01208456,-
 0.03141473,0.00221928,0.00363945,-0.00850285,-0.00038985,-0.00017971,0
 .00169601,-0.00030656,-0.00098380,0.00260400,-0.04908410,0.01025980,-0
 .18553541,0.06463836,-0.10123196,0.28510617,0.00025230,-0.00021830,-0.
 00017515,0.00005018,-0.00007351,0.00008162,0.00021479,-0.00023315,0.00
 009618,0.00007317,0.00004811,0.00001976,0.00214644,0.00064766,0.001065
 21,-0.00016538,0.00032853,0.00097562,-0.00007314,0.00037445,-0.0011664
 4,-0.00002008,0.00027534,0.00020071,-0.01899835,-0.02553385,0.01056977
 ,-0.13799961,-0.18765567,0.04758402,0.15632206,-0.00095593,0.00081318,
 -0.00004600,0.00005131,-0.00012401,-0.00003490,0.00015345,0.00022508,0
 .00028527,0.00004818,0.00006133,0.00005281,0.00279700,0.00205956,0.001
 49218,0.00007134,-0.00044920,0.00114393,0.00020721,0.00023312,-0.00039
 942,-0.00004485,-0.00012213,-0.00071027,-0.00379065,-0.01018673,0.0048
 4897,-0.20973593,-0.31092341,0.11065435,0.20959007,0.32071099,-0.00058
 925,0.00073800,0.00031327,0.00011609,-0.00013241,-0.00006826,0.0002426
 1,-0.00017576,-0.00005705,0.00007523,-0.00003129,-0.00001471,0.0002405
 0,-0.00091920,0.00026853,0.00034369,0.00039506,0.00025374,-0.00090515,
 0.00027457,-0.00098918,0.00015998,-0.00041661,-0.00056340,-0.01817430,
 -0.02823178,0.00770169,0.08091234,0.14924747,-0.08548654,-0.05582348,-
 0.11563448,0.08214107,0.00169497,-0.00208469,-0.00033066,-0.00048145,0
 .00024196,0.00022091,-0.00053647,0.00031326,0.00005758,-0.00014572,0.0
 0037059,0.00003512,-0.00143767,0.00094847,0.00033577,0.00036710,0.0002
 3854,-0.00037065,-0.00000154,-0.00002233,-0.00007999,-0.00023107,-0.00
 013888,0.00061938,0.01723183,-0.00824634,-0.00561948,-0.00706586,-0.00
 008003,-0.00177252,0.00052107,0.00053285,-0.00003609,0.40305459,0.0007
 4008,0.00014656,0.00012006,-0.00011390,0.00002849,0.00003369,0.0000325
 7,-0.00010177,-0.00000526,-0.00014666,0.00016004,0.00002590,-0.0010302
 4,0.00096171,0.00023557,0.00009565,0.00009385,0.00003640,0.00007880,0.
 00007172,-0.00012979,-0.00009967,-0.00009308,0.00048515,0.00999258,-0.
 01093237,-0.00588053,-0.00591087,0.00071624,-0.00118340,0.00031500,0.0
 0053426,-0.00000417,-0.10878925,0.59936489,0.00046376,-0.00014048,0.00
 010770,-0.00011531,0.00005348,0.00004015,-0.00001925,-0.00001817,0.000
 01276,-0.00007262,0.00009934,0.00000696,-0.00063884,0.00046188,0.00005
 709,-0.00012263,-0.00024622,0.00014061,0.00003969,0.00003372,-0.000070
 28,-0.00002517,-0.00002421,0.00030360,0.00565927,-0.00578498,-0.002620
 81,-0.00274234,0.00030362,-0.00063750,0.00019648,0.00024665,-0.0000210
 7,-0.01677045,-0.03623636,0.10519928,-0.00070473,0.00163635,0.00026347
 ,0.00024308,-0.00015976,-0.00012696,0.00039847,-0.00025742,-0.00000943
 ,-0.00009462,-0.00005623,-0.00001450,-0.00012412,0.00041009,0.00009642
 ,-0.00001120,-0.00008403,0.00008458,0.00005556,0.00008965,-0.00013195,
 -0.00000972,-0.00002115,0.00005620,0.00055585,-0.00489337,-0.00091353,
 -0.00009899,0.00104631,0.00016742,0.00000594,0.00011312,0.00010878,-0.
 08814379,0.09110850,-0.01112210,0.08825263,-0.00010635,0.00059960,0.00
 011326,0.00011168,-0.00006679,-0.00003896,0.00015475,-0.00010021,-0.00
 000738,0.00001345,-0.00005923,0.00001557,0.00007039,-0.00002343,-0.000
 02054,-0.00008274,-0.00004600,0.00011370,0.00002381,0.00002392,-0.0000
 1208,0.00003551,0.00002454,-0.00003235,-0.00190335,-0.00066351,-0.0000
 7857,0.00039833,0.00012052,0.00026715,-0.00006970,-0.00001453,0.000009
 60,0.11503999,-0.44662380,0.05735727,-0.11497233,0.45343830,-0.0000498
 5,0.00024232,-0.00008541,0.00008783,-0.00004990,-0.00002278,0.00003555
 ,-0.00002115,-0.00000448,-0.00002130,-0.00001260,0.00002168,0.00007027
 ,0.00007789,0.00004125,0.00003538,0.00006247,-0.00005735,-0.00001627,0
 .00000902,-0.00002964,0.00000022,-0.00000503,-0.00000388,-0.00028222,-
 0.00057097,0.00001261,-0.00007739,0.00008603,-0.00001750,-0.00000792,0
 .00001089,0.00001432,-0.01988845,0.08137755,-0.01992966,0.01127127,-0.
 06100399,0.01945844,-0.15472131,0.03177776,0.01369943,-0.01885143,0.01
 728696,0.00472083,-0.02905640,0.02607340,0.00476037,0.00528965,-0.0007
 9945,-0.00135725,0.00549754,-0.01031962,0.00053885,0.00043964,0.000042
 95,0.00134247,0.00101119,-0.00006974,0.00193027,0.00020443,0.00121774,
 -0.00164468,-0.09960252,-0.01202821,0.01231387,-0.01906873,-0.04196948
 ,-0.00606938,0.00117332,-0.00377413,-0.00586534,-0.00666200,0.00000606
 ,-0.00043661,0.00242882,0.00157119,0.00025993,0.32124647,0.05935144,-0
 .10897260,-0.00657896,0.01176679,-0.00705018,-0.00605052,0.00890417,-0
 .00246390,0.00364622,0.03700108,-0.02811078,-0.00493445,-0.00704061,-0
 .03313554,0.00642541,0.00059497,0.00081106,-0.00150257,-0.00163401,-0.
 00079659,0.00635272,-0.00059742,-0.00003137,-0.00016445,-0.04601219,-0
 .19281242,0.04111099,-0.03786619,-0.04269351,-0.01660203,0.00190320,-0
 .00136822,-0.00562105,0.00438574,0.00291149,0.00149488,0.00167832,-0.0
 0080070,-0.00007445,-0.05915839,0.47642098,0.01517480,-0.00549126,-0.0
 5756786,0.02541902,-0.02213071,0.00452588,-0.01381662,0.01425404,0.007
 72517,-0.00485045,0.00289566,0.00174488,0.00340295,0.03656598,0.001938
 15,0.00008751,-0.00034916,0.00234973,0.00198955,0.00257634,-0.00649831
 ,0.00036749,-0.00142779,0.00154945,0.01454729,0.02777003,-0.07773213,-
 0.01471643,-0.03126570,0.00829255,-0.00227366,-0.00258210,-0.00303372,
 -0.00015298,0.00027797,0.00029986,0.00001326,-0.00004797,-0.00030648,-
 0.02676023,-0.00808717,0.10977401,-0.00317196,0.00213366,0.00018133,0.
 00079300,-0.00040306,-0.00036080,0.00068334,-0.00028378,-0.00001881,0.
 00053094,-0.00073164,-0.00007285,0.00253112,-0.00183356,-0.00026954,-0
 .00004769,0.00007348,0.00044660,-0.00000787,0.00000016,0.00011634,0.00
 052591,0.00035790,-0.00122639,-0.04599221,0.01243091,0.00867971,0.0104
 1185,-0.00047072,0.00318341,-0.00116546,-0.00083629,-0.00006245,-0.010
 96912,0.02530365,0.00369048,0.01699385,0.00110681,0.00495539,0.0046812
 9,-0.01041371,-0.00122032,0.04541336,-0.00159252,-0.00073203,-0.000262
 07,0.00012344,0.00001616,-0.00004561,-0.00015052,0.00029886,0.00001729
 ,0.00031641,-0.00033224,-0.00004722,0.00181311,-0.00210375,-0.00033676
 ,0.00008957,0.00034164,-0.00016293,-0.00020775,-0.00012094,0.00028905,
 0.00028486,0.00022647,-0.00100398,-0.01800326,0.02662671,0.01477248,0.
 01406870,-0.00115009,0.00285653,-0.00039416,-0.00127308,0.00000238,0.0
 3505070,-0.03434561,-0.00063937,-0.00870002,-0.01209857,-0.00766035,0.
 00161573,-0.00638305,-0.00056671,-0.03692044,0.05841943,-0.00104220,0.
 00022496,-0.00037041,0.00028581,-0.00014009,-0.00009480,0.00005079,0.0
 0008194,0.00001053,0.00020146,-0.00025531,-0.00002793,0.00199473,-0.00
 111820,-0.00030101,0.00034253,0.00010568,-0.00081455,-0.00013298,-0.00
 016486,0.00015952,-0.00014452,-0.00002837,-0.00090617,-0.01224850,0.01
 677469,0.00922009,0.00677750,-0.00075580,0.00221414,-0.00054338,-0.000
 49185,0.00012655,0.00113071,-0.01032754,-0.02855628,0.00728202,0.00305
 116,0.00110804,0.00122579,-0.00374610,-0.00021793,-0.02285923,-0.00044
 351,0.06845662,0.00818811,-0.00254450,0.00164592,-0.00107028,0.0007089
 8,0.00034841,-0.00028136,-0.00052476,-0.00006174,-0.00105301,0.0011940
 8,0.00027679,-0.01800619,0.01072751,0.01297300,0.00065731,0.00005076,0
 .00057043,0.00005054,0.00039648,-0.00148756,0.00110430,-0.00118752,0.0
 0346752,-0.02871404,-0.01493862,-0.01810925,-0.07720248,0.00009795,-0.
 01731976,-0.00166649,0.00624083,-0.00051309,-0.05862404,-0.05212677,-0
 .02650458,-0.00698916,0.00071922,-0.00181314,-0.01463865,0.03815731,0.
 00409510,-0.01580814,0.00611600,0.03271107,0.26783056,-0.00714503,0.00
 177954,-0.00237247,0.00153470,-0.00134276,-0.00051862,0.00085167,-0.00
 038416,0.00021666,0.00138088,-0.00126105,-0.00016943,0.00102234,0.0030
 4094,-0.00014373,-0.00016012,-0.00002388,0.00072663,-0.00025726,0.0010
 5020,-0.00037430,-0.00007402,0.00081921,0.00073060,-0.00791985,-0.0595
 6742,-0.00325978,-0.00657443,0.01359845,0.00310206,0.00132036,-0.00071
 303,-0.00000336,-0.04509996,-0.01786367,-0.01389092,-0.00150834,0.0014
 2685,0.00053206,0.04827775,-0.05624793,-0.01309922,0.00436373,-0.04124
 047,0.00078185,0.01062089,0.17788943,-0.00201627,0.00125273,0.00232323
 ,-0.00024333,0.00051954,-0.00005175,0.00044452,-0.00047746,-0.00002679
 ,0.00042197,-0.00036391,0.00008601,0.03833120,-0.01569598,-0.01612061,
 -0.00026911,-0.00036891,0.00213293,-0.00018697,-0.00024405,0.00105840,
 0.00109809,0.00309944,-0.00689283,0.00793916,-0.01483268,-0.09801947,-
 0.02750800,0.00637488,0.01018754,-0.00092620,0.00100605,-0.00027317,-0
 .02572752,-0.01459953,0.00369021,-0.00191353,-0.00044545,-0.00011396,0
 .00451479,-0.00900471,0.00618730,0.01028520,-0.01339336,-0.04842995,0.
 03345043,0.06261339,0.61301441,-0.00006208,0.00027874,-0.00005371,0.00
 008737,-0.00012376,-0.00004117,-0.00004609,0.00007141,-0.00002634,-0.0
 0007177,0.00000829,-0.00005350,-0.00642503,0.00292912,0.00118316,0.000
 16083,0.00007927,-0.00044685,0.00012148,-0.00005865,-0.00014664,-0.000
 21930,-0.00068740,0.00165974,0.00342867,0.00258845,0.04026325,0.003770
 79,-0.00151363,-0.00359796,-0.00058903,-0.00057995,-0.00023933,-0.0043
 9262,-0.00323675,0.00036716,-0.00038600,-0.00022629,-0.00005230,-0.000
 34554,-0.00043739,-0.00135190,0.00984571,0.00711341,-0.01836768,-0.058
 61233,-0.00131465,-0.03670914,0.05414176,0.00060701,-0.00087261,0.0007
 6670,-0.00031862,0.00024352,0.00008518,-0.00006887,-0.00001727,-0.0000
 3346,0.00001629,0.00003998,-0.00000942,0.00004576,0.00016377,0.0003073
 7,0.00002816,-0.00012751,-0.00002335,0.00013356,0.00012907,-0.00010566
 ,-0.00010955,0.00035263,0.00010765,0.00336720,-0.00090735,-0.01763590,
 -0.00191358,-0.00201146,-0.00040727,-0.00067755,0.00047563,0.00048633,
 -0.00180130,-0.00060255,0.00094871,-0.00021170,-0.00027871,-0.00032694
 ,0.00033214,0.00004562,0.00071073,0.00350863,0.00013450,-0.01408463,0.
 00186833,-0.01587474,-0.00171710,-0.00419688,0.01938398,0.00089260,-0.
 00034728,-0.00002771,-0.00022259,0.00012330,0.00010644,-0.00018483,0.0
 0003085,-0.00001883,-0.00017163,0.00022140,0.00002750,0.00145863,-0.00
 110400,0.00046195,-0.00013306,-0.00003242,0.00017143,-0.00005996,0.000
 02790,0.00010639,-0.00011217,0.00019918,0.00002093,0.01005744,-0.00200
 068,-0.01212569,-0.00382486,0.00011669,0.00001940,0.00009610,0.0001364
 7,-0.00030487,0.00384230,0.00217710,0.00136721,-0.00005776,-0.00033294
 ,-0.00008596,-0.00257699,0.00304269,0.00089273,-0.00687547,-0.00271511
 ,-0.00470192,-0.01975948,-0.03093414,-0.46681241,0.01803342,0.03103779
 ,0.48061468,-0.00063687,0.00093456,0.00011876,0.00017410,-0.00009781,-
 0.00008698,0.00023365,-0.00011752,0.00000563,0.00004261,-0.00011810,-0
 .00000633,0.00031544,-0.00023012,-0.00014952,-0.00019445,-0.00005840,0
 .00026774,0.00004611,0.00004074,0.00001264,0.00010055,0.00004890,-0.00
 013328,-0.00480637,0.00115535,0.00094346,0.00195506,0.00029691,0.00071
 934,-0.00014482,-0.00014557,0.00001872,-0.16565905,0.02693220,0.027299
 15,-0.00784088,0.00133022,0.00420875,0.00193665,-0.00108307,0.00007827
 ,-0.02307885,-0.01045852,-0.00166561,0.01011928,0.00432799,0.00102889,
 -0.00003168,-0.00060006,-0.00078209,0.42475583,0.00021474,-0.00018263,
 -0.00003044,-0.00005202,0.00002512,0.00002552,-0.00005205,0.00002447,0
 .00000626,-0.00003472,0.00004701,0.00000500,-0.00017588,0.00016070,0.0
 0006753,0.00010060,0.00002744,-0.00013965,-0.00001055,-0.00000658,-0.0
 0001832,-0.00006372,-0.00003316,0.00007208,0.00290542,-0.00112298,-0.0
 0052465,-0.00091778,0.00007439,-0.00025076,0.00007198,0.00008240,0.000
 01707,-0.00904945,-0.10365421,-0.00022472,0.03482326,0.00211384,-0.011
 99172,-0.00023780,0.00083275,-0.00000563,0.00420008,0.01559418,0.01137
 375,-0.00725642,-0.00598246,-0.00432778,-0.00080496,-0.00026860,0.0004
 5351,0.03922714,0.63489336,0.00021719,-0.00038558,-0.00002921,-0.00008
 238,0.00004671,0.00003003,-0.00009316,0.00005459,0.00000476,-0.0000094
 5,0.00005073,0.00000466,-0.00012963,0.00007107,-0.00002403,0.00000215,
 -0.00001220,0.00001614,0.00000867,-0.00000571,0.00000855,-0.00001800,-
 0.00000962,0.00007150,0.00213729,-0.00045254,-0.00061302,-0.00079229,-
 0.00006661,-0.00022371,0.00005706,0.00004772,-0.00001250,0.03912752,-0
 .01251419,-0.06957794,-0.00659240,0.00071043,0.00001365,-0.00095866,0.
 00051431,0.00008804,0.00412023,0.01265309,0.00447513,-0.00624488,-0.00
 540682,-0.00252915,-0.00052075,-0.00009032,0.00046549,0.05182926,-0.01
 163276,0.60159890,0.00004561,-0.00014052,-0.00002443,-0.00001964,0.000
 01207,0.00001004,-0.00003440,0.00002331,0.00000184,0.00000568,0.000008
 13,-0.00000040,0.00000233,-0.00001990,0.00000344,0.00000295,0.00000789
 ,-0.00000982,-0.00000574,-0.00000674,0.00000603,-0.00000213,0.00000120
 ,0.00000032,0.00006099,0.00023503,0.00003970,-0.00005862,-0.00006502,-
 0.00003011,0.00000311,-0.00000396,-0.00000767,-0.01765950,0.04071590,-
 0.00363711,-0.00631885,-0.00047412,0.00161231,-0.00030612,-0.00003562,
 -0.00002178,0.00091782,0.00114341,-0.00033713,-0.00038058,-0.00034019,
 -0.00001682,0.00001160,0.00004637,0.00000981,-0.05391761,0.03013942,-0
 .00896765,0.06885445,-0.00003817,0.00004801,0.00001115,0.00000962,-0.0
 0000463,-0.00000485,0.00001289,-0.00000622,-0.00000057,0.00000307,-0.0
 0000663,-0.00000033,0.00002166,-0.00001494,-0.00000856,-0.00000951,-0.
 00000146,0.00001223,0.00000091,0.00000238,0.00000036,0.00000578,0.0000
 0345,-0.00000840,-0.00028609,0.00007831,0.00008936,0.00014062,0.000011
 95,0.00004423,-0.00001040,-0.00001060,0.00000108,0.00364030,-0.0017610
 5,-0.00036961,-0.00025764,0.00201439,-0.00023726,0.00010634,-0.0000543
 0,-0.00001275,-0.00097923,-0.00065633,-0.00052304,0.00075333,0.0003373
 7,0.00023038,0.00006728,-0.00000833,-0.00003917,0.04485094,-0.31962006
 ,0.05778696,-0.05036345,0.33663405,-0.00002450,0.00004459,0.00000648,0
 .00000820,-0.00000515,-0.00000383,0.00001120,-0.00000637,0.,0.00000074
 ,-0.00000482,-0.00000040,0.00001120,-0.00000337,0.00000053,0.00000010,
 -0.00000155,0.00000119,0.00000134,0.00000205,-0.00000130,0.00000092,0.
 00000131,-0.00000626,-0.00014383,0.00000976,0.00004599,0.00006525,0.00
 001987,0.00002251,-0.00000598,-0.00000380,0.00000365,0.00467596,-0.012
 47258,0.00219513,0.00210494,-0.00025896,-0.00038510,0.00010746,-0.0000
 2397,-0.00000549,-0.00077781,-0.00022963,0.00015910,0.00023948,0.00004
 522,-0.00002159,-0.00002396,-0.00001690,-0.00002917,-0.01166659,0.0631
 4134,-0.06694844,0.00683924,-0.06210990,0.06229033,0.00009190,-0.00013
 672,-0.00003760,-0.00002517,0.00001356,0.00001219,-0.00003640,0.000021
 32,0.00000183,-0.00000579,0.00001711,0.00000192,-0.00003560,0.00003468
 ,0.00003908,0.00005219,0.00001760,-0.00007376,-0.00001283,-0.00000932,
 -0.00000248,-0.00002391,-0.00001289,0.00001066,0.00068840,-0.00008536,
 -0.00007197,-0.00025838,-0.00004558,-0.00010100,0.00002131,0.00002127,
 0.00000052,-0.02262834,-0.00410985,0.03740717,0.00125247,-0.00159272,0
 .00042214,-0.00023933,0.00015691,-0.00003013,0.00252879,0.00188225,0.0
 0207208,-0.00120846,-0.00061851,-0.00051319,-0.00013268,-0.00000356,0.
 00009118,-0.05110825,-0.00386971,0.01519952,0.00255617,-0.00050603,-0.
 00544262,0.06329020,-0.00001260,0.00001458,0.00000621,0.00000291,-0.00
 000146,-0.00000144,0.00000385,-0.00000209,-0.00000025,0.00000251,-0.00
 000268,-0.00000051,0.00000732,-0.00001047,-0.00000913,-0.00000604,-0.0
 0000241,0.00001116,0.00000193,0.00000136,0.00000214,0.00000358,0.00000
 283,-0.00000321,-0.00013241,0.00006486,0.00002048,0.00004519,0.0000014
 5,0.00001536,-0.00000519,-0.00000360,-0.00000020,0.00485986,0.00317316
 ,-0.00794403,0.00001014,0.00033353,-0.00135978,0.00001647,-0.00004255,
 0.00000608,-0.00061665,-0.00036610,0.00021433,0.00017131,0.00003087,0.
 00001859,-0.00003322,-0.00002166,-0.00002782,-0.00715870,-0.06728682,0
 .05532458,-0.00332106,-0.00222817,0.03020359,0.00385551,0.06033992,-0.
 00005141,0.00008221,0.00001022,0.00001582,-0.00000926,-0.00000742,0.00
 002041,-0.00001088,-0.00000059,0.00000330,-0.00001037,-0.00000049,0.00
 001673,-0.00001962,-0.00000742,-0.00001805,-0.00000449,0.00002076,0.00
 000520,0.00000315,0.00000081,0.00000753,0.00000319,-0.00001141,-0.0004
 0053,0.00009235,0.00006711,0.00015540,0.00002261,0.00005643,-0.0000108
 8,-0.00001139,0.00000134,0.00797297,-0.00074441,-0.00065244,0.00032638
 ,0.00033515,0.00004042,0.00015942,-0.00009373,0.00000518,-0.00138173,-
 0.00130332,-0.00052737,0.00090614,0.00052170,0.00017245,0.00004614,-0.
 00002111,-0.00008780,0.02352012,0.05333166,-0.31755525,-0.00073542,0.0
 0020858,-0.00283559,-0.03175331,-0.05727181,0.33532295,0.00014513,-0.0
 0020373,-0.00003428,-0.00004358,0.00002376,0.00002110,-0.00005210,0.00
 003026,0.00000411,-0.00001519,0.00003257,0.00000274,-0.00009684,0.0000
 7168,0.00002236,0.00003841,0.00000638,-0.00004438,-0.00000440,-0.00000
 590,-0.00000282,-0.00002631,-0.00001211,0.00004393,0.00148332,-0.00046
 661,-0.00036719,-0.00055207,-0.00002471,-0.00015581,0.00003868,0.00004
 064,-0.00000232,-0.03823134,-0.01975704,-0.01291615,0.00053538,-0.0011
 4776,-0.00075020,-0.00041698,0.00037867,0.00001925,0.00438433,0.006809
 60,0.00326674,-0.00369490,-0.00268795,-0.00148414,-0.00025405,-0.00005
 178,0.00027940,-0.13226042,-0.08915757,-0.08828962,0.00624249,0.002837
 79,0.00401926,0.00523371,0.00230527,0.00119575,0.15754674,-0.00001012,
 0.00001815,0.00000202,0.00000318,-0.00000158,-0.00000195,0.00000341,-0
 .00000285,-0.00000067,0.00000288,-0.00000435,-0.00000023,0.00001343,-0
 .00001021,-0.00000120,-0.00000346,-0.00000020,0.00000116,-0.00000078,-
 0.00000026,0.00000085,0.00000276,0.00000139,-0.00000618,-0.00017669,0.
 00010812,0.00006051,0.00008746,-0.00000813,0.00001605,-0.00000323,-0.0
 0000701,-0.00000125,0.00968997,0.00781571,0.00451950,0.00020624,0.0006
 7998,0.00091590,0.00003232,-0.00005825,0.00000933,0.00001005,-0.000855
 69,-0.00052907,0.00075560,0.00052871,0.00035590,0.00007758,0.00002208,
 -0.00003332,-0.09907705,-0.15571815,-0.09668383,-0.01756215,-0.0147572
 0,-0.01833073,0.00497007,0.00600545,0.00489978,0.10097853,0.15624429,-
 0.00003610,0.00004550,0.00000886,0.00001136,-0.00000592,-0.00000495,0.
 00001231,-0.00000699,-0.00000127,0.00000398,-0.00000826,-0.00000082,0.
 00002742,-0.00002094,-0.00000340,-0.00000829,-0.00000053,0.00000875,-0
 .00000046,0.00000125,0.00000084,0.00000735,0.00000308,-0.00001251,-0.0
 0040569,0.00014186,0.00009710,0.00014431,0.00000156,0.00003800,-0.0000
 0942,-0.00001110,0.00000030,0.01273055,0.00932837,0.00864541,-0.000892
 56,0.00030589,0.00033181,0.00009568,-0.00010306,-0.00001101,-0.0005333
 0,-0.00178091,-0.00098142,0.00112920,0.00090263,0.00043919,0.00007837,
 0.00002160,-0.00005979,-0.09556032,-0.09934729,-0.14926361,0.00526558,
 0.00493015,0.00551227,-0.01723223,-0.01920431,-0.01401190,0.09517226,0
 .10480744,0.14926812||-0.00295219,0.00198282,-0.00081212,0.00038630,0.
 00017460,0.00029509,0.00049576,0.00013538,-0.00020577,-0.00036395,0.00
 003813,-0.00000915,0.00056345,-0.00012566,-0.00114732,-0.00008904,-0.0
 0043123,0.00063187,0.00026930,-0.00065271,0.00086469,0.00002270,0.0001
 9556,0.00017191,-0.00572617,0.00363372,0.00120286,0.00260291,-0.001317
 10,0.00099519,-0.00085148,0.00039930,-0.00071599,-0.00103946,0.0011712
 5,-0.00152638,-0.00134842,0.00038423,0.00073372,0.00337858,-0.00262388
 ,0.00058188,-0.00297873,-0.00128850,0.00220274,0.00604903,-0.00057790,
 -0.00314341,-0.00236896,-0.00026510,-0.00007354,0.00216933,-0.00041411
 ,-0.00017909,0.00058894,-0.00023869,0.00047897,0.00067225,0.00016574,-
 0.00060402,0.00051986,-0.00034585,0.00025788|||@


 FIREWORKS ENDED
 AND SPECTATORS GONE AWAY....
 AH, HOW VAST AND DARK
                     SHIKI
 Job cpu time:  0 days  0 hours 21 minutes 37.0 seconds.
 File lengths (MBytes):  RWF=    109 Int=      0 D2E=      0 Chk=      8 Scr=      1
 Normal termination of Gaussian 09 at Thu Oct 29 17:24:27 2015.
