 Entering Link 1 = C:\G09W\l1.exe PID=       272.
  
 Copyright (c) 1988,1990,1992,1993,1995,1998,2003,2009, Gaussian, Inc.
                  All Rights Reserved.
  
 This is part of the Gaussian(R) 09 program.  It is based on
 the Gaussian(R) 03 system (copyright 2003, Gaussian, Inc.),
 the Gaussian(R) 98 system (copyright 1998, Gaussian, Inc.),
 the Gaussian(R) 94 system (copyright 1995, Gaussian, Inc.),
 the Gaussian 92(TM) system (copyright 1992, Gaussian, Inc.),
 the Gaussian 90(TM) system (copyright 1990, Gaussian, Inc.),
 the Gaussian 88(TM) system (copyright 1988, Gaussian, Inc.),
 the Gaussian 86(TM) system (copyright 1986, Carnegie Mellon
 University), and the Gaussian 82(TM) system (copyright 1983,
 Carnegie Mellon University). Gaussian is a federally registered
 trademark of Gaussian, Inc.
  
 This software contains proprietary and confidential information,
 including trade secrets, belonging to Gaussian, Inc.
  
 This software is provided under written license and may be
 used, copied, transmitted, or stored only in accord with that
 written license.
  
 The following legend is applicable only to US Government
 contracts under FAR:
  
                    RESTRICTED RIGHTS LEGEND
  
 Use, reproduction and disclosure by the US Government is
 subject to restrictions as set forth in subparagraphs (a)
 and (c) of the Commercial Computer Software - Restricted
 Rights clause in FAR 52.227-19.
  
 Gaussian, Inc.
 340 Quinnipiac St., Bldg. 40, Wallingford CT 06492
  
  
 ---------------------------------------------------------------
 Warning -- This program may not be used in any manner that
 competes with the business of Gaussian, Inc. or will provide
 assistance to any competitor of Gaussian, Inc.  The licensee
 of this program is prohibited from giving any competitor of
 Gaussian, Inc. access to this program.  By using this program,
 the user acknowledges that Gaussian, Inc. is engaged in the
 business of creating and licensing software in the field of
 computational chemistry and represents and warrants to the
 licensee that it is not a competitor of Gaussian, Inc. and that
 it will not use this program in any manner prohibited above.
 ---------------------------------------------------------------
  

 Cite this work as:
 Gaussian 09, Revision A.02,
 M. J. Frisch, G. W. Trucks, H. B. Schlegel, G. E. Scuseria, 
 M. A. Robb, J. R. Cheeseman, G. Scalmani, V. Barone, B. Mennucci, 
 G. A. Petersson, H. Nakatsuji, M. Caricato, X. Li, H. P. Hratchian, 
 A. F. Izmaylov, J. Bloino, G. Zheng, J. L. Sonnenberg, M. Hada, 
 M. Ehara, K. Toyota, R. Fukuda, J. Hasegawa, M. Ishida, T. Nakajima, 
 Y. Honda, O. Kitao, H. Nakai, T. Vreven, J. A. Montgomery, Jr., 
 J. E. Peralta, F. Ogliaro, M. Bearpark, J. J. Heyd, E. Brothers, 
 K. N. Kudin, V. N. Staroverov, R. Kobayashi, J. Normand, 
 K. Raghavachari, A. Rendell, J. C. Burant, S. S. Iyengar, J. Tomasi, 
 M. Cossi, N. Rega, J. M. Millam, M. Klene, J. E. Knox, J. B. Cross, 
 V. Bakken, C. Adamo, J. Jaramillo, R. Gomperts, R. E. Stratmann, 
 O. Yazyev, A. J. Austin, R. Cammi, C. Pomelli, J. W. Ochterski, 
 R. L. Martin, K. Morokuma, V. G. Zakrzewski, G. A. Voth, 
 P. Salvador, J. J. Dannenberg, S. Dapprich, A. D. Daniels, 
 O. Farkas, J. B. Foresman, J. V. Ortiz, J. Cioslowski, 
 and D. J. Fox, Gaussian, Inc., Wallingford CT, 2009.
 
 ******************************************
 Gaussian 09:  IA32W-G09RevA.02 11-Jun-2009
                02-Oct-2015 
 ******************************************
 ----------------------------------------------
 # irc=calcfc x3lyp/6-31+g(d) geom=connectivity
 ----------------------------------------------
 1/10=4,14=-1,18=20,26=3,38=1,44=3,57=2/1,23;
 2/9=110,12=2,17=6,18=5,29=1,40=1/2;
 3/5=1,6=6,7=11,11=2,16=1,25=1,30=1,71=2,74=-33/1,2,3;
 4//1;
 5/5=2,38=5/2;
 8/6=4,10=90,11=11/1;
 11/6=1,8=1,9=11,15=111,16=1/1,2,10;
 10/6=1,7=6,13=1/2;
 6/7=2,8=2,9=2,10=2,28=1/1;
 7/10=1,18=20,25=1/1,2,3,16;
 1/10=4,14=-1,18=20,44=3/23(3);
 2/9=110,29=1/2;
 7/9=1,25=1,44=-1/16;
 99//99;
 2/9=110,29=1/2;
 3/5=1,6=6,7=11,11=2,16=1,25=1,30=1,71=2,74=-33/1,2,3;
 4/5=5,16=3/1;
 5/5=2,38=5/2;
 8/6=4,10=90,11=11/1;
 11/6=1,8=1,9=11,15=111,16=1/1,2,10;
 10/6=1,7=6,13=1/2;
 7/10=1,18=20,25=1/1,2,3,16;
 1/14=-1,18=20,44=3/23(-8);
 2/9=110,29=1/2;
 6/7=2,8=2,9=2,10=2,19=2,28=1/1;
 7/9=1,25=1,44=-1/16;
 99/9=1/99;
 --------
 tsb-3irc
 --------
 Symbolic Z-matrix:
 Charge =  1 Multiplicity = 1
 C                    -2.56589   0.22364   0.09052 
 H                    -2.91133   0.63167  -0.87981 
 H                    -2.62415   1.00726   0.84503 
 H                    -3.23918  -0.58507   0.38423 
 C                    -1.18533  -0.34404  -0.02551 
 O                    -0.23214   0.70513  -0.582 
 O                    -0.25008  -0.73543   1.34861 
 H                    -0.69955  -1.46495   1.86936 
 O                    -1.14139  -1.37619  -0.91998 
 H                    -0.38841  -1.94985  -0.69797 
 C                    -0.14519   2.00638   0.08852 
 H                     0.71119   2.50826  -0.36031 
 H                    -1.05875   2.5552   -0.12642 
 H                    -0.0011    1.8491    1.1597 
 H                     0.73546   0.24486  -0.55834 
 C                     3.17035   0.01097  -0.02709 
 H                     3.40882   0.5865   -0.9225 
 H                     3.89546  -0.79813   0.09854 
 H                     3.17928   0.66246   0.8521 
 O                     1.85645  -0.55682  -0.22908 
 H                     1.4859   -0.92258   0.63732 
 
 IRC-IRC-IRC-IRC-IRC-IRC-IRC-IRC-IRC-IRC-IRC-IRC-IRC-IRC-IRC-IRC-IRC-IRC
 ------------------------------------------------------------------------
 INPUT DATA FOR L123
 ------------------------------------------------------------------------
 GENERAL PARAMETERS:
 Follow reaction path in both directions.
 Maximum points per path      =  10
 Step size                    =   0.100 bohr
 Integration scheme           = HPC                                 
    Redo corrector integration= Yes                                 
    Max correction cycles     =  20
 Initial Hessian              = CalcFC
 Hessian eveluation           = All updating
    Hessian updating method   = Bofill                              
 ------------------------------------------------------------------------
 IRC-IRC-IRC-IRC-IRC-IRC-IRC-IRC-IRC-IRC-IRC-IRC-IRC-IRC-IRC-IRC-IRC-IRC
                          Input orientation:                          
 ---------------------------------------------------------------------
 Center     Atomic      Atomic             Coordinates (Angstroms)
 Number     Number       Type             X           Y           Z
 ---------------------------------------------------------------------
      1          6           0       -2.565893    0.223644    0.090521
      2          1           0       -2.911326    0.631674   -0.879806
      3          1           0       -2.624151    1.007262    0.845033
      4          1           0       -3.239176   -0.585071    0.384231
      5          6           0       -1.185327   -0.344043   -0.025507
      6          8           0       -0.232142    0.705130   -0.581997
      7          8           0       -0.250078   -0.735434    1.348609
      8          1           0       -0.699554   -1.464949    1.869363
      9          8           0       -1.141391   -1.376188   -0.919976
     10          1           0       -0.388411   -1.949849   -0.697966
     11          6           0       -0.145190    2.006385    0.088515
     12          1           0        0.711188    2.508260   -0.360314
     13          1           0       -1.058753    2.555200   -0.126421
     14          1           0       -0.001102    1.849104    1.159703
     15          1           0        0.735461    0.244862   -0.558337
     16          6           0        3.170347    0.010969   -0.027089
     17          1           0        3.408818    0.586497   -0.922502
     18          1           0        3.895462   -0.798127    0.098544
     19          1           0        3.179283    0.662461    0.852096
     20          8           0        1.856453   -0.556818   -0.229084
     21          1           0        1.485897   -0.922578    0.637320
 ---------------------------------------------------------------------
                    Distance matrix (angstroms):
                    1          2          3          4          5
     1  C    0.000000
     2  H    1.107857   0.000000
     3  H    1.089376   1.788465   0.000000
     4  H    1.092518   1.784865   1.768083   0.000000
     5  C    1.497229   2.158917   2.157332   2.108145   0.000000
     6  O    2.475985   2.696686   2.801679   3.411813   1.522829
     7  O    2.804570   3.730557   2.987775   3.144414   1.707651
     8  H    3.082020   4.104351   3.296233   3.070746   2.254537
     9  O    2.368496   2.676900   3.315821   2.593747   1.366502
    10  H    3.176037   3.614198   4.015456   3.340753   1.914651
    11  C    3.006322   3.237126   2.777735   4.046707   2.572819
    12  H    4.020197   4.112670   3.851018   5.072319   3.441584
    13  H    2.784724   2.774810   2.406305   3.856982   2.903759
    14  H    3.219227   3.756479   2.772743   4.124523   2.759892
    15  H    3.364581   3.681307   3.719905   4.168329   2.078495
    16  C    5.741386   6.172451   5.943854   6.450305   4.370118
    17  H    6.070836   6.320450   6.300630   6.875751   4.772491
    18  H    6.541650   7.023807   6.806029   7.143533   5.102548
    19  H    5.812022   6.332136   5.813672   6.555292   4.564324
    20  O    4.502045   4.956578   4.865787   5.132484   3.056001
    21  H    4.246153   4.904380   4.545319   4.743868   2.812380
                    6          7          8          9         10
     6  O    0.000000
     7  O    2.408897   0.000000
     8  H    3.307096   1.002699   0.000000
     9  O    2.296268   2.520215   2.825511   0.000000
    10  H    2.662101   2.383780   2.631182   0.972293   0.000000
    11  C    1.466428   3.019339   3.940672   3.667597   4.040977
    12  H    2.047020   3.790251   4.769491   4.339839   4.604114
    13  H    2.076919   3.695665   4.502641   4.011530   4.590369
    14  H    2.096563   2.603365   3.460405   4.003478   4.246526
    15  H    1.071756   2.359812   3.297946   2.506224   2.469684
    16  C    3.516634   3.761512   4.555326   4.616550   4.118209
    17  H    3.658771   4.504772   5.374166   4.955456   4.571916
    18  H    4.445226   4.330369   4.969369   5.171211   4.506935
    19  H    3.700846   3.736463   4.539392   5.095542   4.685648
    20  O    2.465622   2.637895   3.429483   3.183672   2.683244
    21  H    2.662297   1.885355   2.566767   3.087649   2.520180
                   11         12         13         14         15
    11  C    0.000000
    12  H    1.089362   0.000000
    13  H    1.087195   1.785945   0.000000
    14  H    1.092219   1.803412   1.808677   0.000000
    15  H    2.072903   2.272174   2.956927   2.463286   0.000000
    16  C    3.871413   3.520648   4.936422   3.852960   2.503118
    17  H    3.958435   3.359529   4.946587   4.190144   2.719590
    18  H    4.918562   4.613279   5.986623   4.828778   3.391891
    19  H    3.666239   3.311858   4.743512   3.408459   2.852363
    20  O    3.267637   3.274684   4.265398   3.341811   1.416941
    21  H    3.397125   3.655967   4.376469   3.188459   1.831848
                   16         17         18         19         20
    16  C    0.000000
    17  H    1.090809   0.000000
    18  H    1.093715   1.787887   0.000000
    19  H    1.094298   1.790993   1.792783   0.000000
    20  O    1.445511   2.048862   2.079213   2.098921   0.000000
    21  H    2.037234   2.899651   2.472200   2.329385   1.010816
                   21
    21  H    0.000000
 Symmetry turned off by external request.
 Stoichiometry    C4H13O4(1+)
 Framework group  C1[X(C4H13O4)]
 Deg. of freedom    57
 Full point group                 C1      NOp   1
 Rotational constants (GHZ):      2.7020470      1.1994342      1.0285454
 Standard basis: 6-31+G(d) (6D, 7F)
 Integral buffers will be    262144 words long.
 Raffenetti 2 integral format.
 Two-electron integral symmetry is turned off.
   178 basis functions,   308 primitive gaussians,   178 cartesian basis functions
    34 alpha electrons       34 beta electrons
       nuclear repulsion energy       453.9173775424 Hartrees.
 NAtoms=   21 NActive=   21 NUniq=   21 SFac= 7.50D-01 NAtFMM=   80 NAOKFM=F Big=F
 One-electron integrals computed using PRISM.
 NBasis=   178 RedAO= T  NBF=   178
 NBsUse=   178 1.00D-06 NBFU=   178
 Harris functional with IExCor= 3102 diagonalized for initial guess.
 ExpMin= 4.38D-02 ExpMax= 5.48D+03 ExpMxC= 8.25D+02 IAcc=2 IRadAn=         0 AccDes= 0.00D+00
 HarFok:  IExCor= 3102 AccDes= 0.00D+00 IRadAn=         0 IDoV= 1
 ScaDFX=  1.000000  1.000000  1.000000  1.000000
 FoFCou: FMM=F IPFlag=           0 FMFlag=      100000 FMFlg1=           0
         NFxFlg=           0 DoJE=T BraDBF=F KetDBF=T FulRan=T
         Omega=  0.000000  0.000000  1.000000  0.000000  0.000000 ICntrl=     500 IOpCl=  0
         NMat0=    1 NMatS0=    1 NMatT0=    0 NMatD0=    1 NMtDS0=    0 NMtDT0=    0
         I1Cent=           4 NGrid=           0.
 Symmetry not used in FoFCou.
 Requested convergence on RMS density matrix=1.00D-08 within 128 cycles.
 Requested convergence on MAX density matrix=1.00D-06.
 Requested convergence on             energy=1.00D-06.
 No special actions if energy rises.
 SCF Done:  E(RX3LYP) =  -460.654717921     A.U. after   13 cycles
             Convg  =    0.3668D-08             -V/T =  2.0097
 Range of M.O.s used for correlation:     1   178
 NBasis=   178 NAE=    34 NBE=    34 NFC=     0 NFV=     0
 NROrb=    178 NOA=    34 NOB=    34 NVA=   144 NVB=   144

 **** Warning!!: The largest alpha MO coefficient is  0.39666712D+02

 Symmetrizing basis deriv contribution to polar:
 IMax=3 JMax=2 DiffMx= 0.00D+00
 G2DrvN: will do    22 centers at a time, making    1 passes doing MaxLOS=2.
 Calling FoFCou, ICntrl=  3107 FMM=F I1Cent=   0 AccDes= 0.00D+00.
 FoFDir/FoFCou used for L=0 through L=2.
 End of G2Drv Frequency-dependent properties file   721 does not exist.
 End of G2Drv Frequency-dependent properties file   722 does not exist.
          IDoAtm=111111111111111111111
          Differentiating once with respect to nuclear coordinates.
          There are    66 degrees of freedom in the 1st order CPHF.  IDoFFX=5.
     60 vectors produced by pass  0 Test12= 7.42D-11 1.52D-07 XBig12= 1.40D-01 1.09D-01.
 AX will form    60 AO Fock derivatives at one time.
     60 vectors produced by pass  1 Test12= 7.42D-11 1.52D-07 XBig12= 2.24D-02 3.97D-02.
     60 vectors produced by pass  2 Test12= 7.42D-11 1.52D-07 XBig12= 7.21D-05 1.24D-03.
     60 vectors produced by pass  3 Test12= 7.42D-11 1.52D-07 XBig12= 4.02D-07 6.11D-05.
     21 vectors produced by pass  4 Test12= 7.42D-11 1.52D-07 XBig12= 6.82D-10 3.30D-06.
 Inverted reduced A of dimension   261 with in-core refinement.
 End of Minotr Frequency-dependent properties file   721 does not exist.
 End of Minotr Frequency-dependent properties file   722 does not exist.

 **********************************************************************

            Population analysis using the SCF density.

 **********************************************************************

 Alpha  occ. eigenvalues --  -19.46166 -19.40831 -19.39607 -19.38907 -10.59467
 Alpha  occ. eigenvalues --  -10.44872 -10.41072 -10.39236  -1.32167  -1.25482
 Alpha  occ. eigenvalues --   -1.21648  -1.16749  -0.96294  -0.91446  -0.86022
 Alpha  occ. eigenvalues --   -0.81219  -0.77108  -0.74878  -0.70105  -0.69419
 Alpha  occ. eigenvalues --   -0.65257  -0.63726  -0.62484  -0.61746  -0.60834
 Alpha  occ. eigenvalues --   -0.59715  -0.58360  -0.57484  -0.55222  -0.53338
 Alpha  occ. eigenvalues --   -0.53211  -0.51322  -0.49642  -0.47473
 Alpha virt. eigenvalues --   -0.18316  -0.15254  -0.12478  -0.12011  -0.11028
 Alpha virt. eigenvalues --   -0.10193  -0.08655  -0.08156  -0.07391  -0.06622
 Alpha virt. eigenvalues --   -0.06442  -0.06086  -0.04736  -0.03431  -0.03200
 Alpha virt. eigenvalues --   -0.01978  -0.00832  -0.00464   0.00645   0.01168
 Alpha virt. eigenvalues --    0.01926   0.02505   0.02880   0.03694   0.04600
 Alpha virt. eigenvalues --    0.05886   0.06313   0.07351   0.07912   0.08194
 Alpha virt. eigenvalues --    0.08924   0.10170   0.10649   0.10964   0.11702
 Alpha virt. eigenvalues --    0.12511   0.14252   0.14876   0.15145   0.15991
 Alpha virt. eigenvalues --    0.17334   0.18088   0.18772   0.19928   0.20895
 Alpha virt. eigenvalues --    0.21418   0.24366   0.25166   0.25926   0.28074
 Alpha virt. eigenvalues --    0.35073   0.46045   0.48830   0.49807   0.51583
 Alpha virt. eigenvalues --    0.52366   0.53554   0.56267   0.59146   0.59998
 Alpha virt. eigenvalues --    0.62065   0.66111   0.67783   0.75149   0.76840
 Alpha virt. eigenvalues --    0.80376   0.81715   0.83659   0.83775   0.84722
 Alpha virt. eigenvalues --    0.89931   0.90160   0.92539   0.92707   0.93685
 Alpha virt. eigenvalues --    0.97690   0.98282   1.00130   1.02378   1.04252
 Alpha virt. eigenvalues --    1.06035   1.07235   1.07624   1.12395   1.13821
 Alpha virt. eigenvalues --    1.14669   1.16312   1.20248   1.22783   1.24059
 Alpha virt. eigenvalues --    1.29747   1.31205   1.32083   1.37317   1.39576
 Alpha virt. eigenvalues --    1.41813   1.42677   1.45899   1.50892   1.53093
 Alpha virt. eigenvalues --    1.57023   1.59052   1.60377   1.62309   1.64194
 Alpha virt. eigenvalues --    1.66957   1.70599   1.74321   1.82019   1.82833
 Alpha virt. eigenvalues --    1.83978   1.87842   1.92689   1.95004   1.96425
 Alpha virt. eigenvalues --    1.99605   2.01761   2.02536   2.07415   2.11219
 Alpha virt. eigenvalues --    2.14198   2.16666   2.18368   2.20510   2.24913
 Alpha virt. eigenvalues --    2.29356   2.34468   2.35828   2.39982   2.45352
 Alpha virt. eigenvalues --    2.57185   2.62605   2.68340   2.70844   2.73068
 Alpha virt. eigenvalues --    2.82925   3.95177   4.00870   4.02805   4.06873
 Alpha virt. eigenvalues --    4.16255   4.19382   4.28056   4.41681
          Condensed to atoms (all electrons):
              1          2          3          4          5          6
     1  C    6.200676   0.399126   0.374997   0.355032  -0.466253  -0.103158
     2  H    0.399126   0.416466  -0.023382  -0.016706  -0.068743   0.002887
     3  H    0.374997  -0.023382   0.448710  -0.020202  -0.041417  -0.004084
     4  H    0.355032  -0.016706  -0.020202   0.414410  -0.009105   0.005678
     5  C   -0.466253  -0.068743  -0.041417  -0.009105   5.616885   0.074448
     6  O   -0.103158   0.002887  -0.004084   0.005678   0.074448   8.880843
     7  O   -0.094092   0.005191  -0.003586  -0.002920   0.262755  -0.148789
     8  H   -0.015812  -0.000039  -0.000032   0.000348   0.032213   0.007084
     9  O   -0.145195  -0.002426   0.007402  -0.005390   0.352409  -0.097489
    10  H    0.041012  -0.000008  -0.000224  -0.000084  -0.033810  -0.008223
    11  C    0.036839  -0.001288   0.002577  -0.000356  -0.122235   0.019261
    12  H   -0.001126  -0.000008   0.000110  -0.000002   0.006902  -0.031994
    13  H    0.008012   0.000013  -0.001578   0.000017  -0.010139  -0.030181
    14  H   -0.006424   0.000124  -0.000155   0.000006  -0.009162  -0.055318
    15  H    0.003061   0.000068  -0.000080  -0.000076   0.002627   0.023471
    16  C   -0.003525   0.000021  -0.000082   0.000010  -0.006307   0.006315
    17  H    0.000301   0.000000   0.000000   0.000000  -0.000210   0.001315
    18  H   -0.000238   0.000000   0.000000   0.000000  -0.000439  -0.000598
    19  H   -0.000176   0.000000   0.000000   0.000000  -0.002021  -0.000748
    20  O   -0.008007   0.000213  -0.000279   0.000054   0.023191  -0.081023
    21  H    0.004660  -0.000011   0.000012  -0.000003  -0.004090   0.009809
              7          8          9         10         11         12
     1  C   -0.094092  -0.015812  -0.145195   0.041012   0.036839  -0.001126
     2  H    0.005191  -0.000039  -0.002426  -0.000008  -0.001288  -0.000008
     3  H   -0.003586  -0.000032   0.007402  -0.000224   0.002577   0.000110
     4  H   -0.002920   0.000348  -0.005390  -0.000084  -0.000356  -0.000002
     5  C    0.262755   0.032213   0.352409  -0.033810  -0.122235   0.006902
     6  O   -0.148789   0.007084  -0.097489  -0.008223   0.019261  -0.031994
     7  O    8.567114   0.174000  -0.030470  -0.001168   0.014047  -0.000390
     8  H    0.174000   0.295351  -0.004882  -0.000437  -0.002129   0.000004
     9  O   -0.030470  -0.004882   8.252959   0.190564  -0.000369  -0.000006
    10  H   -0.001168  -0.000437   0.190564   0.278020   0.000241   0.000000
    11  C    0.014047  -0.002129  -0.000369   0.000241   5.289209   0.377846
    12  H   -0.000390   0.000004  -0.000006   0.000000   0.377846   0.435983
    13  H   -0.001596   0.000003  -0.000894  -0.000001   0.386846  -0.018305
    14  H    0.012757  -0.000241   0.001004  -0.000016   0.391373  -0.023379
    15  H    0.008975  -0.000093   0.004563   0.001062   0.002205  -0.001161
    16  C   -0.001680  -0.000408   0.002180  -0.000061  -0.003337   0.000411
    17  H   -0.000289   0.000000  -0.000097   0.000007  -0.001928   0.000009
    18  H    0.000149   0.000002   0.000026  -0.000005   0.000691   0.000002
    19  H    0.001091  -0.000014   0.000011   0.000011   0.002184  -0.000004
    20  O   -0.026957   0.001132   0.023198   0.003966  -0.006942  -0.001059
    21  H    0.034786  -0.001794  -0.005789   0.000929  -0.002531   0.000044
             13         14         15         16         17         18
     1  C    0.008012  -0.006424   0.003061  -0.003525   0.000301  -0.000238
     2  H    0.000013   0.000124   0.000068   0.000021   0.000000   0.000000
     3  H   -0.001578  -0.000155  -0.000080  -0.000082   0.000000   0.000000
     4  H    0.000017   0.000006  -0.000076   0.000010   0.000000   0.000000
     5  C   -0.010139  -0.009162   0.002627  -0.006307  -0.000210  -0.000439
     6  O   -0.030181  -0.055318   0.023471   0.006315   0.001315  -0.000598
     7  O   -0.001596   0.012757   0.008975  -0.001680  -0.000289   0.000149
     8  H    0.000003  -0.000241  -0.000093  -0.000408   0.000000   0.000002
     9  O   -0.000894   0.001004   0.004563   0.002180  -0.000097   0.000026
    10  H   -0.000001  -0.000016   0.001062  -0.000061   0.000007  -0.000005
    11  C    0.386846   0.391373   0.002205  -0.003337  -0.001928   0.000691
    12  H   -0.018305  -0.023379  -0.001161   0.000411   0.000009   0.000002
    13  H    0.431564  -0.025497   0.001247   0.000272   0.000002   0.000000
    14  H   -0.025497   0.438119  -0.000258  -0.000168   0.000011  -0.000001
    15  H    0.001247  -0.000258   0.230053  -0.012163  -0.001767   0.001157
    16  C    0.000272  -0.000168  -0.012163   5.139294   0.400305   0.390750
    17  H    0.000002   0.000011  -0.001767   0.400305   0.463946  -0.021396
    18  H    0.000000  -0.000001   0.001157   0.390750  -0.021396   0.459818
    19  H    0.000002   0.000016   0.000471   0.397779  -0.028939  -0.029742
    20  O   -0.000004   0.000787   0.133104   0.075703  -0.048719  -0.037957
    21  H    0.000007   0.000038  -0.013320  -0.017589   0.004060  -0.003094
             19         20         21
     1  C   -0.000176  -0.008007   0.004660
     2  H    0.000000   0.000213  -0.000011
     3  H    0.000000  -0.000279   0.000012
     4  H    0.000000   0.000054  -0.000003
     5  C   -0.002021   0.023191  -0.004090
     6  O   -0.000748  -0.081023   0.009809
     7  O    0.001091  -0.026957   0.034786
     8  H   -0.000014   0.001132  -0.001794
     9  O    0.000011   0.023198  -0.005789
    10  H    0.000011   0.003966   0.000929
    11  C    0.002184  -0.006942  -0.002531
    12  H   -0.000004  -0.001059   0.000044
    13  H    0.000002  -0.000004   0.000007
    14  H    0.000016   0.000787   0.000038
    15  H    0.000471   0.133104  -0.013320
    16  C    0.397779   0.075703  -0.017589
    17  H   -0.028939  -0.048719   0.004060
    18  H   -0.029742  -0.037957  -0.003094
    19  H    0.510252  -0.063605  -0.003786
    20  O   -0.063605   8.667258   0.173613
    21  H   -0.003786   0.173613   0.263611
 Mulliken atomic charges:
              1
     1  C   -0.579711
     2  H    0.288501
     3  H    0.261292
     4  H    0.279289
     5  C    0.402503
     6  O   -0.469509
     7  O   -0.768927
     8  H    0.515744
     9  O   -0.541307
    10  H    0.528227
    11  C   -0.382203
    12  H    0.256122
    13  H    0.260212
    14  H    0.276384
    15  H    0.616853
    16  C   -0.367721
    17  H    0.233387
    18  H    0.240876
    19  H    0.217219
    20  O   -0.827668
    21  H    0.560438
 Sum of Mulliken atomic charges =   1.00000
 Mulliken charges with hydrogens summed into heavy atoms:
              1
     1  C    0.249371
     5  C    0.402503
     6  O    0.147345
     7  O   -0.253183
     9  O   -0.013080
    11  C    0.410514
    16  C    0.323761
    20  O   -0.267230
 Sum of Mulliken charges with hydrogens summed into heavy atoms =   1.00000
 APT atomic charges:
              1
     1  C   -1.510169
     2  H    0.589781
     3  H    0.492217
     4  H    0.659159
     5  C    0.212675
     6  O   -0.114372
     7  O   -1.013885
     8  H    0.812409
     9  O   -0.547117
    10  H    0.619463
    11  C   -1.353919
    12  H    0.558419
    13  H    0.618034
    14  H    0.401500
    15  H    0.513261
    16  C   -1.615786
    17  H    0.528016
    18  H    0.728300
    19  H    0.400905
    20  O   -0.512115
    21  H    0.533226
 Sum of APT charges=   1.00000
 APT Atomic charges with hydrogens summed into heavy atoms:
              1
     1  C    0.230987
     2  H    0.000000
     3  H    0.000000
     4  H    0.000000
     5  C    0.212675
     6  O    0.398888
     7  O   -0.201476
     8  H    0.000000
     9  O    0.072346
    10  H    0.000000
    11  C    0.224033
    12  H    0.000000
    13  H    0.000000
    14  H    0.000000
    15  H    0.000000
    16  C    0.041436
    17  H    0.000000
    18  H    0.000000
    19  H    0.000000
    20  O    0.021111
    21  H    0.000000
 Sum of APT charges=   1.00000
 Electronic spatial extent (au):  <R**2>=           1246.5517
 Charge=              1.0000 electrons
 Dipole moment (field-independent basis, Debye):
    X=              0.1151    Y=              1.1652    Z=              1.9343  Tot=              2.2611
 Quadrupole moment (field-independent basis, Debye-Ang):
   XX=            -26.0475   YY=            -34.8775   ZZ=            -47.9341
   XY=             -0.4200   XZ=             -1.7721   YZ=             -4.1396
 Traceless Quadrupole moment (field-independent basis, Debye-Ang):
   XX=             10.2388   YY=              1.4089   ZZ=            -11.6477
   XY=             -0.4200   XZ=             -1.7721   YZ=             -4.1396
 Octapole moment (field-independent basis, Debye-Ang**2):
  XXX=             19.4956  YYY=             -1.4270  ZZZ=              6.6086  XYY=             -1.1881
  XXY=              3.1940  XXZ=              4.3761  XZZ=              0.2000  YZZ=             -6.5898
  YYZ=              6.0145  XYZ=              2.3921
 Hexadecapole moment (field-independent basis, Debye-Ang**3):
 XXXX=           -770.7588 YYYY=           -300.1772 ZZZZ=           -171.0070 XXXY=            -10.2998
 XXXZ=             -1.3747 YYYX=             -1.8735 YYYZ=             -8.3078 ZZZX=             -7.0442
 ZZZY=            -17.4481 XXYY=           -218.6932 XXZZ=           -188.6965 YYZZ=            -76.0819
 XXYZ=            -17.3187 YYXZ=             -7.3319 ZZXY=              5.0213
 N-N= 4.539173775424D+02 E-N=-1.973349436212D+03  KE= 4.562381718495D+02
  Exact polarizability:   0.000   0.000   0.000   0.000   0.000   0.000
 Approx polarizability:  92.404  -0.641  88.604   5.776  -2.631  89.428
 Calling FoFJK, ICntrl=    100147 FMM=F ISym2X=0 I1Cent= 0 IOpClX= 0 NMat=1 NMatS=1 NMatT=0.
 -------------------------------------------------------------------
 Center     Atomic                   Forces (Hartrees/Bohr)
 Number     Number              X              Y              Z
 -------------------------------------------------------------------
      1        6          -0.002434400    0.001022103    0.012100772
      2        1           0.007299919   -0.005876530    0.005120933
      3        1           0.000106593    0.001121843    0.001537496
      4        1          -0.001044777   -0.000108574   -0.000496293
      5        6           0.041928681   -0.018336198    0.005666378
      6        8          -0.010274244   -0.007151004    0.006987545
      7        8          -0.053487095   -0.000886692   -0.039939146
      8        1           0.004331666    0.018582181   -0.013630441
      9        8          -0.000953420    0.012203072    0.027272689
     10        1           0.003794721   -0.003072318   -0.006066135
     11        6          -0.000383936    0.003854480    0.004945873
     12        1          -0.000239209    0.000134347   -0.000616237
     13        1          -0.000270540    0.000203882   -0.000617133
     14        1          -0.000308996    0.000884029   -0.000945616
     15        1           0.008829669   -0.004431907   -0.000118679
     16        6           0.005859365    0.000659557   -0.000082697
     17        1           0.000323871   -0.001057759   -0.000135244
     18        1          -0.000749047    0.000951169   -0.000723199
     19        1          -0.000093523    0.000156988   -0.000329880
     20        8          -0.013213921   -0.007195472    0.019971560
     21        1           0.010978625    0.008342802   -0.019902548
 -------------------------------------------------------------------
 Cartesian Forces:  Max     0.053487095 RMS     0.012570206
 IRC-IRC-IRC-IRC-IRC-IRC-IRC-IRC-IRC-IRC-IRC-IRC-IRC-IRC-IRC-IRC-IRC-IRC
          ******** Start new reaction path calculation ********
 Supplied step size of   0.1000 bohr.
    Integration on MW PES will use step size of   0.2398 sqrt(amu)*bohr.
 Point Number:   0          Path Number:   1
 Calculating another point on the path.
 IRC-IRC-IRC-IRC-IRC-IRC-IRC-IRC-IRC-IRC-IRC-IRC-IRC-IRC-IRC-IRC-IRC-IRC
                          Input orientation:                          
 ---------------------------------------------------------------------
 Center     Atomic      Atomic             Coordinates (Angstroms)
 Number     Number       Type             X           Y           Z
 ---------------------------------------------------------------------
      1          6           0       -2.546080    0.254728    0.112341
      2          1           0       -2.888932    0.658441   -0.860266
      3          1           0       -2.605493    1.041253    0.863829
      4          1           0       -3.221309   -0.551865    0.408071
      5          6           0       -1.165188   -0.316313    0.004457
      6          8           0       -0.214347    0.742762   -0.563323
      7          8           0       -0.248896   -0.697512    1.353523
      8          1           0       -0.699345   -1.424528    1.877117
      9          8           0       -1.120798   -1.343172   -0.898857
     10          1           0       -0.375065   -1.924239   -0.671511
     11          6           0       -0.123167    2.043170    0.107858
     12          1           0        0.729571    2.546734   -0.346078
     13          1           0       -1.038963    2.590783   -0.100444
     14          1           0        0.028110    1.885679    1.178056
     15          1           0        0.744415    0.287453   -0.546201
     16          6           0        3.199343    0.044965   -0.011070
     17          1           0        3.436398    0.619309   -0.907664
     18          1           0        3.926502   -0.762382    0.115344
     19          1           0        3.209285    0.698727    0.866576
     20          8           0        1.886159   -0.523302   -0.211084
     21          1           0        1.521916   -0.891007    0.654558
 ---------------------------------------------------------------------
                    Distance matrix (angstroms):
                    1          2          3          4          5
     1  C    0.000000
     2  H    1.107473   0.000000
     3  H    1.089443   1.788683   0.000000
     4  H    1.092695   1.784374   1.767759   0.000000
     5  C    1.498195   2.160829   2.157773   2.108559   0.000000
     6  O    2.476223   2.692339   2.800614   3.414892   1.532356
     7  O    2.779271   3.702601   2.969285   3.122553   1.674778
     8  H    3.056920   4.077537   3.277228   3.046299   2.225309
     9  O    2.367960   2.671000   3.316152   2.597379   1.368352
    10  H    3.174213   3.609070   4.015746   3.339164   1.914850
    11  C    3.011486   3.241017   2.781595   4.052508   2.581407
    12  H    4.024093   4.113831   3.853959   5.077353   3.451091
    13  H    2.788159   2.780946   2.405178   3.859722   2.911726
    14  H    3.228344   3.764306   2.783461   4.134395   2.765875
    15  H    3.355906   3.665716   3.711911   4.164380   2.077100
    16  C    5.750575   6.177749   5.954340   6.461940   4.379486
    17  H    6.079751   6.325628   6.310362   6.886790   4.783508
    18  H    6.552010   7.029984   6.817645   7.156899   5.112394
    19  H    5.821531   6.338126   5.824858   6.567096   4.572698
    20  O    4.511615   4.961798   4.876290   5.144939   3.065945
    21  H    4.260903   4.914372   4.562118   4.761718   2.823726
                    6          7          8          9         10
     6  O    0.000000
     7  O    2.397891   0.000000
     8  H    3.299714   1.002799   0.000000
     9  O    2.298991   2.500061   2.808963   0.000000
    10  H    2.674029   2.370979   2.617322   0.972338   0.000000
    11  C    1.466239   3.013109   3.935376   3.670974   4.051074
    12  H    2.047557   3.790933   4.770253   4.342902   4.616896
    13  H    2.075917   3.681183   4.488742   4.014992   4.599163
    14  H    2.097008   2.603920   3.460541   4.007373   4.254283
    15  H    1.061520   2.359189   3.299665   2.502463   2.482039
    16  C    3.527773   3.782028   4.574323   4.623711   4.134047
    17  H    3.669025   4.519776   5.388566   4.961798   4.588317
    18  H    4.457877   4.355599   4.994070   5.180844   4.524658
    19  H    3.710499   3.761065   4.561446   5.102520   4.700343
    20  O    2.477723   2.652697   3.443490   3.191709   2.699584
    21  H    2.677133   1.913574   2.591003   3.098626   2.534673
                   11         12         13         14         15
    11  C    0.000000
    12  H    1.089402   0.000000
    13  H    1.087176   1.786054   0.000000
    14  H    1.092251   1.803337   1.808419   0.000000
    15  H    2.064712   2.268176   2.946942   2.457740   0.000000
    16  C    3.878923   3.531410   4.944939   3.854734   2.524250
    17  H    3.966001   3.370053   4.956528   4.191700   2.736340
    18  H    4.926560   4.624232   5.995508   4.831050   3.415475
    19  H    3.672658   3.321843   4.750012   3.409655   2.870656
    20  O    3.275040   3.283449   4.273886   3.344435   1.439863
    21  H    3.408016   3.667035   4.387595   3.196168   1.853401
                   16         17         18         19         20
    16  C    0.000000
    17  H    1.090846   0.000000
    18  H    1.093868   1.787684   0.000000
    19  H    1.094425   1.790478   1.792648   0.000000
    20  O    1.444779   2.047931   2.080075   2.098896   0.000000
    21  H    2.032945   2.896003   2.467657   2.327964   1.008571
                   21
    21  H    0.000000
 Symmetry turned off by external request.
 Stoichiometry    C4H13O4(1+)
 Framework group  C1[X(C4H13O4)]
 Deg. of freedom    57
 Full point group                 C1      NOp   1
 Rotational constants (GHZ):      2.7082628      1.1966227      1.0244667
 Standard basis: 6-31+G(d) (6D, 7F)
 Integral buffers will be    262144 words long.
 Raffenetti 2 integral format.
 Two-electron integral symmetry is turned off.
   178 basis functions,   308 primitive gaussians,   178 cartesian basis functions
    34 alpha electrons       34 beta electrons
       nuclear repulsion energy       453.8936455691 Hartrees.
 NAtoms=   21 NActive=   21 NUniq=   21 SFac= 7.50D-01 NAtFMM=   80 NAOKFM=F Big=F
 One-electron integrals computed using PRISM.
 NBasis=   178 RedAO= T  NBF=   178
 NBsUse=   178 1.00D-06 NBFU=   178
 Initial guess read from the read-write file.
 B after Tr=     0.000000    0.000000    0.000000
         Rot=    1.000000    0.000000    0.000000    0.000000 Ang=   0.00 deg.
 Harris functional with IExCor= 3102 diagonalized for initial guess.
 ExpMin= 4.38D-02 ExpMax= 5.48D+03 ExpMxC= 8.25D+02 IAcc=2 IRadAn=         0 AccDes= 0.00D+00
 HarFok:  IExCor= 3102 AccDes= 0.00D+00 IRadAn=         0 IDoV= 1
 ScaDFX=  1.000000  1.000000  1.000000  1.000000
 FoFCou: FMM=F IPFlag=           0 FMFlag=      100000 FMFlg1=           0
         NFxFlg=           0 DoJE=T BraDBF=F KetDBF=T FulRan=T
         Omega=  0.000000  0.000000  1.000000  0.000000  0.000000 ICntrl=     500 IOpCl=  0
         NMat0=    1 NMatS0=    1 NMatT0=    0 NMatD0=    1 NMtDS0=    0 NMtDT0=    0
         I1Cent=           4 NGrid=           0.
 Symmetry not used in FoFCou.
 Requested convergence on RMS density matrix=1.00D-08 within 128 cycles.
 Requested convergence on MAX density matrix=1.00D-06.
 Requested convergence on             energy=1.00D-06.
 No special actions if energy rises.
 SCF Done:  E(RX3LYP) =  -460.658500400     A.U. after   10 cycles
             Convg  =    0.6125D-08             -V/T =  2.0097
 Range of M.O.s used for correlation:     1   178
 NBasis=   178 NAE=    34 NBE=    34 NFC=     0 NFV=     0
 NROrb=    178 NOA=    34 NOB=    34 NVA=   144 NVB=   144

 **** Warning!!: The largest alpha MO coefficient is  0.38812004D+02

 Symmetrizing basis deriv contribution to polar:
 IMax=3 JMax=2 DiffMx= 0.00D+00
 Calling FoFJK, ICntrl=      2147 FMM=F ISym2X=0 I1Cent= 0 IOpClX= 0 NMat=1 NMatS=1 NMatT=0.
 -------------------------------------------------------------------
 Center     Atomic                   Forces (Hartrees/Bohr)
 Number     Number              X              Y              Z
 -------------------------------------------------------------------
      1        6          -0.002429725    0.001009486    0.012104053
      2        1           0.007300018   -0.005882652    0.005129722
      3        1           0.000109427    0.001120272    0.001532321
      4        1          -0.001046687   -0.000104605   -0.000494826
      5        6           0.041719235   -0.018294241    0.005487084
      6        8          -0.010524533   -0.006961964    0.006991225
      7        8          -0.053586761   -0.000940993   -0.039828791
      8        1           0.004361315    0.018599689   -0.013618698
      9        8          -0.000905280    0.012161207    0.027354106
     10        1           0.003745236   -0.003044606   -0.006087830
     11        6          -0.000350444    0.003880575    0.004929131
     12        1          -0.000248690    0.000134772   -0.000611905
     13        1          -0.000254278    0.000201124   -0.000608187
     14        1          -0.000302035    0.000886113   -0.000960060
     15        1           0.009071055   -0.004543857   -0.000139661
     16        6           0.005956744    0.000640129   -0.000094808
     17        1           0.000333150   -0.001062217   -0.000135992
     18        1          -0.000744742    0.000950112   -0.000723484
     19        1          -0.000086146    0.000154511   -0.000332819
     20        8          -0.013065796   -0.007201631    0.019927382
     21        1           0.010948937    0.008298773   -0.019817965
 -------------------------------------------------------------------
 Cartesian Forces:  Max     0.053586761 RMS     0.012559784
 IRC-IRC-IRC-IRC-IRC-IRC-IRC-IRC-IRC-IRC-IRC-IRC-IRC-IRC-IRC-IRC-IRC-IRC
 Pt  1 Step number   1 out of a maximum of  20
 CORRECTOR INTEGRATION CONVERGENCE:
   Recorrection delta-x convergence threshold:    0.010000
   Delta-x Convergence NOT Met
 IRC-IRC-IRC-IRC-IRC-IRC-IRC-IRC-IRC-IRC-IRC-IRC-IRC-IRC-IRC-IRC-IRC-IRC
                          Input orientation:                          
 ---------------------------------------------------------------------
 Center     Atomic      Atomic             Coordinates (Angstroms)
 Number     Number       Type             X           Y           Z
 ---------------------------------------------------------------------
      1          6           0       -2.546101    0.256188    0.112842
      2          1           0       -2.878770    0.653714   -0.856002
      3          1           0       -2.604697    1.042827    0.865743
      4          1           0       -3.222034   -0.551423    0.404565
      5          6           0       -1.158995   -0.315699   -0.000154
      6          8           0       -0.214218    0.740100   -0.562720
      7          8           0       -0.245430   -0.698547    1.354698
      8          1           0       -0.690216   -1.406883    1.866818
      9          8           0       -1.121138   -1.341391   -0.897153
     10          1           0       -0.367390   -1.923321   -0.687416
     11          6           0       -0.124397    2.042460    0.107952
     12          1           0        0.729745    2.544777   -0.345118
     13          1           0       -1.039266    2.590446   -0.105244
     14          1           0        0.022960    1.886066    1.177314
     15          1           0        0.762388    0.276908   -0.543218
     16          6           0        3.195620    0.045254   -0.010015
     17          1           0        3.433053    0.618289   -0.906468
     18          1           0        3.920017   -0.762364    0.114941
     19          1           0        3.203951    0.698010    0.867903
     20          8           0        1.880120   -0.523303   -0.209689
     21          1           0        1.527041   -0.881935    0.635424
 ---------------------------------------------------------------------
                    Distance matrix (angstroms):
                    1          2          3          4          5
     1  C    0.000000
     2  H    1.098797   0.000000
     3  H    1.090455   1.786317   0.000000
     4  H    1.092805   1.777417   1.770712   0.000000
     5  C    1.504622   2.151712   2.164585   2.115537   0.000000
     6  O    2.475527   2.682035   2.801168   3.413302   1.524400
     7  O    2.783309   3.694628   2.972810   3.128030   1.678331
     8  H    3.047384   4.055808   3.266262   3.046326   2.212696
     9  O    2.367038   2.659212   3.315606   2.594665   1.363116
    10  H    3.183937   3.602299   4.026895   3.350153   1.919223
    11  C    3.009226   3.231778   2.779461   4.051118   2.577400
    12  H    4.022255   4.105911   3.852343   5.075927   3.445092
    13  H    2.786911   2.774589   2.405933   3.859497   2.910508
    14  H    3.223302   3.751413   2.777177   4.131402   2.762466
    15  H    3.372972   3.673941   3.729486   4.178522   2.082741
    16  C    5.746907   6.163126   5.950276   6.458652   4.369559
    17  H    6.076215   6.312124   6.306773   6.883111   4.772906
    18  H    6.545849   7.012240   6.811337   7.151033   5.099913
    19  H    5.816220   6.322444   5.818874   6.562701   4.562501
    20  O    4.505892   4.944706   4.870616   5.139073   3.053395
    21  H    4.261326   4.898340   4.563882   4.766156   2.817688
                    6          7          8          9         10
     6  O    0.000000
     7  O    2.397326   0.000000
     8  H    3.277005   0.980734   0.000000
     9  O    2.294985   2.500189   2.798128   0.000000
    10  H    2.670735   2.384361   2.625841   0.975073   0.000000
    11  C    1.467654   3.013660   3.913020   3.667993   4.052045
    12  H    2.048237   3.789392   4.746005   4.339679   4.613542
    13  H    2.076961   3.684981   4.470962   4.011629   4.600482
    14  H    2.096953   2.604558   3.439120   4.003605   4.259228
    15  H    1.081058   2.359936   3.279250   2.508352   2.477539
    16  C    3.523533   3.775779   4.553122   4.619978   4.126645
    17  H    3.665458   4.514218   5.365983   4.957932   4.577240
    18  H    4.450676   4.346495   4.973804   5.174249   4.513697
    19  H    3.705716   3.753075   4.537944   5.097153   4.695196
    20  O    2.471248   2.644992   3.420412   3.185816   2.690645
    21  H    2.664306   1.921624   2.590005   3.093984   2.534415
                   11         12         13         14         15
    11  C    0.000000
    12  H    1.089566   0.000000
    13  H    1.087533   1.785785   0.000000
    14  H    1.090738   1.803121   1.808157   0.000000
    15  H    2.080284   2.276739   2.964834   2.469084   0.000000
    16  C    3.876243   3.527101   4.941794   3.855400   2.501717
    17  H    3.963932   3.366652   4.953080   4.192629   2.716789
    18  H    4.921826   4.618080   5.990351   4.830100   3.388788
    19  H    3.669192   3.317176   4.746917   3.409679   2.851284
    20  O    3.271410   3.279454   4.269562   3.343334   1.414533
    21  H    3.399641   3.652328   4.380862   3.196519   1.821211
                   16         17         18         19         20
    16  C    0.000000
    17  H    1.090124   0.000000
    18  H    1.092068   1.785108   0.000000
    19  H    1.094029   1.790875   1.792315   0.000000
    20  O    1.446951   2.049472   2.079355   2.098890   0.000000
    21  H    2.015050   2.874193   2.451843   2.315665   0.983615
                   21
    21  H    0.000000
 Symmetry turned off by external request.
 Stoichiometry    C4H13O4(1+)
 Framework group  C1[X(C4H13O4)]
 Deg. of freedom    57
 Full point group                 C1      NOp   1
 Rotational constants (GHZ):      2.7127425      1.1996075      1.0269892
 Standard basis: 6-31+G(d) (6D, 7F)
 Integral buffers will be    262144 words long.
 Raffenetti 2 integral format.
 Two-electron integral symmetry is turned off.
   178 basis functions,   308 primitive gaussians,   178 cartesian basis functions
    34 alpha electrons       34 beta electrons
       nuclear repulsion energy       454.4554068872 Hartrees.
 NAtoms=   21 NActive=   21 NUniq=   21 SFac= 7.50D-01 NAtFMM=   80 NAOKFM=F Big=F
 One-electron integrals computed using PRISM.
 NBasis=   178 RedAO= T  NBF=   178
 NBsUse=   178 1.00D-06 NBFU=   178
 Initial guess read from the read-write file.
 B after Tr=     0.000000    0.000000    0.000000
         Rot=    1.000000    0.000000    0.000000    0.000000 Ang=   0.00 deg.
 Harris functional with IExCor= 3102 diagonalized for initial guess.
 ExpMin= 4.38D-02 ExpMax= 5.48D+03 ExpMxC= 8.25D+02 IAcc=2 IRadAn=         0 AccDes= 0.00D+00
 HarFok:  IExCor= 3102 AccDes= 0.00D+00 IRadAn=         0 IDoV= 1
 ScaDFX=  1.000000  1.000000  1.000000  1.000000
 FoFCou: FMM=F IPFlag=           0 FMFlag=      100000 FMFlg1=           0
         NFxFlg=           0 DoJE=T BraDBF=F KetDBF=T FulRan=T
         Omega=  0.000000  0.000000  1.000000  0.000000  0.000000 ICntrl=     500 IOpCl=  0
         NMat0=    1 NMatS0=    1 NMatT0=    0 NMatD0=    1 NMtDS0=    0 NMtDT0=    0
         I1Cent=           4 NGrid=           0.
 Symmetry not used in FoFCou.
 Requested convergence on RMS density matrix=1.00D-08 within 128 cycles.
 Requested convergence on MAX density matrix=1.00D-06.
 Requested convergence on             energy=1.00D-06.
 No special actions if energy rises.
 SCF Done:  E(RX3LYP) =  -460.660593235     A.U. after   10 cycles
             Convg  =    0.9069D-08             -V/T =  2.0095
 Range of M.O.s used for correlation:     1   178
 NBasis=   178 NAE=    34 NBE=    34 NFC=     0 NFV=     0
 NROrb=    178 NOA=    34 NOB=    34 NVA=   144 NVB=   144

 **** Warning!!: The largest alpha MO coefficient is  0.37916229D+02

 Symmetrizing basis deriv contribution to polar:
 IMax=3 JMax=2 DiffMx= 0.00D+00
 Calling FoFJK, ICntrl=      2147 FMM=F ISym2X=0 I1Cent= 0 IOpClX= 0 NMat=1 NMatS=1 NMatT=0.
 -------------------------------------------------------------------
 Center     Atomic                   Forces (Hartrees/Bohr)
 Number     Number              X              Y              Z
 -------------------------------------------------------------------
      1        6           0.001870293   -0.002017047    0.015628787
      2        1           0.005044753   -0.003376974    0.000823123
      3        1           0.000125456    0.000547989    0.000876028
      4        1          -0.000749556    0.000000054   -0.000253749
      5        6           0.037666138   -0.014677719    0.009674745
      6        8          -0.004696710   -0.008556449    0.006653307
      7        8          -0.044611077    0.012147689   -0.049547420
      8        1          -0.003772551    0.005307347   -0.004057387
      9        8           0.001268433    0.007954186    0.024851966
     10        1           0.001575277   -0.000999578   -0.006061518
     11        6          -0.000954812    0.003229052    0.003366452
     12        1          -0.000291419    0.000044806   -0.000495605
     13        1          -0.000104031    0.000159128   -0.000403247
     14        1          -0.000175146    0.000784059    0.000010883
     15        1           0.004783857   -0.002459883    0.000099249
     16        6           0.005117588    0.001351931   -0.000582843
     17        1           0.000280820   -0.000766498   -0.000360565
     18        1          -0.000253731    0.000045352   -0.000470631
     19        1          -0.000118934    0.000175598   -0.000256261
     20        8          -0.005582766    0.000526732    0.002995944
     21        1           0.003578115    0.000580225   -0.002491259
 -------------------------------------------------------------------
 Cartesian Forces:  Max     0.049547420 RMS     0.011037265
 IRC-IRC-IRC-IRC-IRC-IRC-IRC-IRC-IRC-IRC-IRC-IRC-IRC-IRC-IRC-IRC-IRC-IRC
 Error in corrector energy =          -0.0000582157
 Magnitude of corrector gradient =     0.0878057479
 Magnitude of analytic gradient =      0.0876055721
 Magnitude of difference =             0.0035570379
 Angle between gradients (degrees)=    2.3202
 Pt  1 Step number   2 out of a maximum of  20
 CORRECTOR INTEGRATION CONVERGENCE:
   Recorrection delta-x convergence threshold:    0.010000
   Delta-x Convergence NOT Met
 IRC-IRC-IRC-IRC-IRC-IRC-IRC-IRC-IRC-IRC-IRC-IRC-IRC-IRC-IRC-IRC-IRC-IRC
                          Input orientation:                          
 ---------------------------------------------------------------------
 Center     Atomic      Atomic             Coordinates (Angstroms)
 Number     Number       Type             X           Y           Z
 ---------------------------------------------------------------------
      1          6           0       -2.545962    0.256285    0.112545
      2          1           0       -2.880769    0.655813   -0.857621
      3          1           0       -2.604635    1.042569    0.865317
      4          1           0       -3.221628   -0.551347    0.404340
      5          6           0       -1.159591   -0.315037   -0.000744
      6          8           0       -0.213921    0.739948   -0.562805
      7          8           0       -0.243884   -0.698609    1.355641
      8          1           0       -0.690687   -1.412609    1.871465
      9          8           0       -1.121160   -1.341490   -0.897589
     10          1           0       -0.367738   -1.921886   -0.686680
     11          6           0       -0.124532    2.042253    0.107805
     12          1           0        0.729910    2.544421   -0.344681
     13          1           0       -1.039201    2.590298   -0.105651
     14          1           0        0.022352    1.885726    1.177612
     15          1           0        0.760567    0.277628   -0.542656
     16          6           0        3.195020    0.045269   -0.009902
     17          1           0        3.432447    0.618689   -0.906257
     18          1           0        3.919443   -0.762808    0.115252
     19          1           0        3.203262    0.697843    0.868243
     20          8           0        1.879771   -0.523111   -0.210039
     21          1           0        1.522468   -0.884560    0.642026
 ---------------------------------------------------------------------
                    Distance matrix (angstroms):
                    1          2          3          4          5
     1  C    0.000000
     2  H    1.101336   0.000000
     3  H    1.090115   1.787273   0.000000
     4  H    1.092675   1.779317   1.770240   0.000000
     5  C    1.503751   2.153890   2.163633   2.114695   0.000000
     6  O    2.475569   2.684413   2.801183   3.413080   1.524204
     7  O    2.785080   3.699481   2.974100   3.129477   1.680901
     8  H    3.053039   4.064817   3.271609   3.049572   2.220293
     9  O    2.367132   2.662150   3.315460   2.594477   1.363603
    10  H    3.182427   3.604036   4.024971   3.348640   1.918203
    11  C    3.008825   3.232817   2.779227   4.050519   2.576809
    12  H    4.021935   4.106939   3.852122   5.075379   3.444562
    13  H    2.786674   2.774718   2.405998   3.859146   2.909720
    14  H    3.222683   3.752729   2.776600   4.130458   2.762041
    15  H    3.370886   3.674446   3.727212   4.176348   2.081328
    16  C    5.746163   6.164950   5.949505   6.457625   4.369501
    17  H    6.075415   6.313513   6.305911   6.882105   4.772695
    18  H    6.545228   7.014403   6.810696   7.150048   5.100053
    19  H    5.815464   6.324224   5.818120   6.561623   4.562406
    20  O    4.505400   4.946915   4.870077   5.138340   3.053657
    21  H    4.258403   4.900019   4.560336   4.761720   2.816194
                    6          7          8          9         10
     6  O    0.000000
     7  O    2.398079   0.000000
     8  H    3.284277   0.987675   0.000000
     9  O    2.295114   2.501991   2.803217   0.000000
    10  H    2.669150   2.383867   2.628262   0.974159   0.000000
    11  C    1.467551   3.013912   3.920089   3.667943   4.050278
    12  H    2.048052   3.789013   4.752629   4.339640   4.611908
    13  H    2.076986   3.685758   4.478137   4.011588   4.598723
    14  H    2.097066   2.604106   3.445123   4.003624   4.257425
    15  H    1.078783   2.359129   3.284968   2.507671   2.476222
    16  C    3.522664   3.774139   4.556717   4.619578   4.125648
    17  H    3.664514   4.512967   5.370489   4.957592   4.576477
    18  H    4.450026   4.344649   4.975925   5.173819   4.512923
    19  H    3.704971   3.751060   4.541289   5.096829   4.693912
    20  O    2.470488   2.644251   3.425072   3.185602   2.689806
    21  H    2.665650   1.914112   2.586197   3.093214   2.532663
                   11         12         13         14         15
    11  C    0.000000
    12  H    1.089490   0.000000
    13  H    1.087445   1.785775   0.000000
    14  H    1.091129   1.803301   1.808336   0.000000
    15  H    2.078558   2.275629   2.962867   2.467846   0.000000
    16  C    3.875722   3.526274   4.941150   3.855294   2.502874
    17  H    3.963201   3.365638   4.952156   4.192450   2.717991
    18  H    4.921601   4.617621   5.990014   4.830182   3.390258
    19  H    3.668776   3.316400   4.746404   3.409540   2.852013
    20  O    3.270986   3.278729   4.269030   3.343363   1.415781
    21  H    3.400623   3.655085   4.381302   3.195573   1.826101
                   16         17         18         19         20
    16  C    0.000000
    17  H    1.090245   0.000000
    18  H    1.092447   1.785827   0.000000
    19  H    1.094101   1.790989   1.792599   0.000000
    20  O    1.446717   2.049202   2.079309   2.098820   0.000000
    21  H    2.021638   2.881832   2.457194   2.319535   0.992131
                   21
    21  H    0.000000
 Symmetry turned off by external request.
 Stoichiometry    C4H13O4(1+)
 Framework group  C1[X(C4H13O4)]
 Deg. of freedom    57
 Full point group                 C1      NOp   1
 Rotational constants (GHZ):      2.7115443      1.1996310      1.0271848
 Standard basis: 6-31+G(d) (6D, 7F)
 Integral buffers will be    262144 words long.
 Raffenetti 2 integral format.
 Two-electron integral symmetry is turned off.
   178 basis functions,   308 primitive gaussians,   178 cartesian basis functions
    34 alpha electrons       34 beta electrons
       nuclear repulsion energy       454.3603300735 Hartrees.
 NAtoms=   21 NActive=   21 NUniq=   21 SFac= 7.50D-01 NAtFMM=   80 NAOKFM=F Big=F
 One-electron integrals computed using PRISM.
 NBasis=   178 RedAO= T  NBF=   178
 NBsUse=   178 1.00D-06 NBFU=   178
 Initial guess read from the read-write file.
 B after Tr=     0.000000    0.000000    0.000000
         Rot=    1.000000    0.000000    0.000000    0.000000 Ang=   0.00 deg.
 Harris functional with IExCor= 3102 diagonalized for initial guess.
 ExpMin= 4.38D-02 ExpMax= 5.48D+03 ExpMxC= 8.25D+02 IAcc=2 IRadAn=         0 AccDes= 0.00D+00
 HarFok:  IExCor= 3102 AccDes= 0.00D+00 IRadAn=         0 IDoV= 1
 ScaDFX=  1.000000  1.000000  1.000000  1.000000
 FoFCou: FMM=F IPFlag=           0 FMFlag=      100000 FMFlg1=           0
         NFxFlg=           0 DoJE=T BraDBF=F KetDBF=T FulRan=T
         Omega=  0.000000  0.000000  1.000000  0.000000  0.000000 ICntrl=     500 IOpCl=  0
         NMat0=    1 NMatS0=    1 NMatT0=    0 NMatD0=    1 NMtDS0=    0 NMtDT0=    0
         I1Cent=           4 NGrid=           0.
 Symmetry not used in FoFCou.
 Requested convergence on RMS density matrix=1.00D-08 within 128 cycles.
 Requested convergence on MAX density matrix=1.00D-06.
 Requested convergence on             energy=1.00D-06.
 No special actions if energy rises.
 SCF Done:  E(RX3LYP) =  -460.659933671     A.U. after    9 cycles
             Convg  =    0.8766D-08             -V/T =  2.0096
 Range of M.O.s used for correlation:     1   178
 NBasis=   178 NAE=    34 NBE=    34 NFC=     0 NFV=     0
 NROrb=    178 NOA=    34 NOB=    34 NVA=   144 NVB=   144

 **** Warning!!: The largest alpha MO coefficient is  0.38215291D+02

 Symmetrizing basis deriv contribution to polar:
 IMax=3 JMax=2 DiffMx= 0.00D+00
 Calling FoFJK, ICntrl=      2147 FMM=F ISym2X=0 I1Cent= 0 IOpClX= 0 NMat=1 NMatS=1 NMatT=0.
 -------------------------------------------------------------------
 Center     Atomic                   Forces (Hartrees/Bohr)
 Number     Number              X              Y              Z
 -------------------------------------------------------------------
      1        6           0.001118948   -0.001329265    0.014313892
      2        1           0.005615795   -0.004039630    0.002145559
      3        1           0.000119690    0.000706676    0.001065918
      4        1          -0.000814891   -0.000057524   -0.000275523
      5        6           0.038046385   -0.015215954    0.009106102
      6        8          -0.005704610   -0.008177294    0.006715529
      7        8          -0.047407992    0.007770868   -0.046208321
      8        1          -0.001044157    0.009706174   -0.007292755
      9        8           0.000611023    0.008805346    0.025066327
     10        1           0.002261758   -0.001583021   -0.005975155
     11        6          -0.000851643    0.003269802    0.003710934
     12        1          -0.000259191    0.000071221   -0.000518593
     13        1          -0.000149771    0.000169012   -0.000443156
     14        1          -0.000205660    0.000819953   -0.000248483
     15        1           0.005637253   -0.002832875    0.000052356
     16        6           0.005181787    0.001151836   -0.000443473
     17        1           0.000317722   -0.000812423   -0.000321736
     18        1          -0.000348159    0.000277035   -0.000522389
     19        1          -0.000068238    0.000172269   -0.000289512
     20        8          -0.008086345   -0.002125783    0.008882108
     21        1           0.006030296    0.003253575   -0.008519630
 -------------------------------------------------------------------
 Cartesian Forces:  Max     0.047407992 RMS     0.011180278
 IRC-IRC-IRC-IRC-IRC-IRC-IRC-IRC-IRC-IRC-IRC-IRC-IRC-IRC-IRC-IRC-IRC-IRC
 Error in corrector energy =          -0.0000853829
 Magnitude of corrector gradient =     0.0867929791
 Magnitude of analytic gradient =      0.0887407040
 Magnitude of difference =             0.0096528518
 Angle between gradients (degrees)=    6.1753
 Pt  1 Step number   3 out of a maximum of  20
 CORRECTOR INTEGRATION CONVERGENCE:
   Recorrection delta-x convergence threshold:    0.010000
   Delta-x Convergence NOT Met
 IRC-IRC-IRC-IRC-IRC-IRC-IRC-IRC-IRC-IRC-IRC-IRC-IRC-IRC-IRC-IRC-IRC-IRC
                          Input orientation:                          
 ---------------------------------------------------------------------
 Center     Atomic      Atomic             Coordinates (Angstroms)
 Number     Number       Type             X           Y           Z
 ---------------------------------------------------------------------
      1          6           0       -2.546039    0.256536    0.111944
      2          1           0       -2.881948    0.656792   -0.857528
      3          1           0       -2.604613    1.042494    0.865127
      4          1           0       -3.221371   -0.551304    0.404107
      5          6           0       -1.160485   -0.314334   -0.001681
      6          8           0       -0.213748    0.739911   -0.562949
      7          8           0       -0.242028   -0.699093    1.357344
      8          1           0       -0.688224   -1.413245    1.872317
      9          8           0       -1.121239   -1.341545   -0.898194
     10          1           0       -0.367656   -1.921373   -0.685556
     11          6           0       -0.124634    2.042032    0.107671
     12          1           0        0.730055    2.544211   -0.344375
     13          1           0       -1.039193    2.590196   -0.105951
     14          1           0        0.021927    1.885425    1.177520
     15          1           0        0.760264    0.277651   -0.542394
     16          6           0        3.194368    0.045245   -0.009757
     17          1           0        3.432002    0.618918   -0.905976
     18          1           0        3.918915   -0.762806    0.115416
     19          1           0        3.202798    0.697700    0.868483
     20          8           0        1.879268   -0.523105   -0.210022
     21          1           0        1.521329   -0.884031    0.641478
 ---------------------------------------------------------------------
                    Distance matrix (angstroms):
                    1          2          3          4          5
     1  C    0.000000
     2  H    1.101324   0.000000
     3  H    1.090159   1.786959   0.000000
     4  H    1.092720   1.779445   1.770062   0.000000
     5  C    1.502852   2.153832   2.162832   2.113781   0.000000
     6  O    2.475624   2.685699   2.801284   3.412950   1.524062
     7  O    2.787959   3.703141   2.976106   3.131610   1.684800
     8  H    3.055906   4.068111   3.273779   3.052117   2.223175
     9  O    2.367340   2.663663   3.315621   2.594422   1.363979
    10  H    3.181925   3.605298   4.024066   3.347857   1.918030
    11  C    3.008524   3.233153   2.779049   4.050067   2.576316
    12  H    4.021750   4.107583   3.852020   5.075057   3.444250
    13  H    2.786401   2.774646   2.406016   3.858896   2.908930
    14  H    3.222294   3.752792   2.776119   4.129745   2.761802
    15  H    3.370496   3.675427   3.726727   4.175697   2.081368
    16  C    5.745584   6.165576   5.948791   6.456691   4.369680
    17  H    6.074904   6.314250   6.305311   6.881360   4.772803
    18  H    6.544822   7.015241   6.810109   7.149248   5.100504
    19  H    5.815162   6.324944   5.817638   6.560914   4.562854
    20  O    4.504980   4.947788   4.869521   5.137555   3.054029
    21  H    4.257321   4.900000   4.559047   4.760279   2.816085
                    6          7          8          9         10
     6  O    0.000000
     7  O    2.399803   0.000000
     8  H    3.285077   0.987067   0.000000
     9  O    2.295297   2.504637   2.805062   0.000000
    10  H    2.668549   2.383945   2.627484   0.974322   0.000000
    11  C    1.467375   3.014835   3.920529   3.667912   4.049302
    12  H    2.047934   3.789434   4.752546   4.339712   4.611162
    13  H    2.076959   3.687292   4.479315   4.011604   4.597951
    14  H    2.096897   2.604178   3.445037   4.003592   4.256118
    15  H    1.078335   2.359581   3.284521   2.507676   2.475562
    16  C    3.521908   3.772509   4.554549   4.619196   4.124598
    17  H    3.663851   4.512014   5.368879   4.957366   4.575923
    18  H    4.449409   4.342797   4.973479   5.173537   4.512042
    19  H    3.704533   3.749245   4.539143   5.096760   4.692837
    20  O    2.469916   2.643389   3.423522   3.185352   2.688857
    21  H    2.664268   1.912091   2.584019   3.092422   2.530882
                   11         12         13         14         15
    11  C    0.000000
    12  H    1.089506   0.000000
    13  H    1.087444   1.785833   0.000000
    14  H    1.091138   1.803221   1.808307   0.000000
    15  H    2.078141   2.275394   2.962497   2.467424   0.000000
    16  C    3.875142   3.525569   4.940553   3.854903   2.502515
    17  H    3.962625   3.364917   4.951521   4.192089   2.717875
    18  H    4.921124   4.616989   5.989528   4.829876   3.390035
    19  H    3.668497   3.315883   4.746109   3.409419   2.851840
    20  O    3.270548   3.278287   4.268593   3.343054   1.415575
    21  H    3.399410   3.653883   4.380088   3.194594   1.824905
                   16         17         18         19         20
    16  C    0.000000
    17  H    1.090311   0.000000
    18  H    1.092512   1.785913   0.000000
    19  H    1.094109   1.790934   1.792487   0.000000
    20  O    1.446588   2.049281   2.079308   2.098873   0.000000
    21  H    2.021564   2.881691   2.457611   2.319642   0.991686
                   21
    21  H    0.000000
 Symmetry turned off by external request.
 Stoichiometry    C4H13O4(1+)
 Framework group  C1[X(C4H13O4)]
 Deg. of freedom    57
 Full point group                 C1      NOp   1
 Rotational constants (GHZ):      2.7102908      1.1995852      1.0273539
 Standard basis: 6-31+G(d) (6D, 7F)
 Integral buffers will be    262144 words long.
 Raffenetti 2 integral format.
 Two-electron integral symmetry is turned off.
   178 basis functions,   308 primitive gaussians,   178 cartesian basis functions
    34 alpha electrons       34 beta electrons
       nuclear repulsion energy       454.3194874553 Hartrees.
 NAtoms=   21 NActive=   21 NUniq=   21 SFac= 7.50D-01 NAtFMM=   80 NAOKFM=F Big=F
 One-electron integrals computed using PRISM.
 NBasis=   178 RedAO= T  NBF=   178
 NBsUse=   178 1.00D-06 NBFU=   178
 Initial guess read from the read-write file.
 B after Tr=     0.000000    0.000000    0.000000
         Rot=    1.000000    0.000000    0.000000    0.000000 Ang=   0.00 deg.
 Harris functional with IExCor= 3102 diagonalized for initial guess.
 ExpMin= 4.38D-02 ExpMax= 5.48D+03 ExpMxC= 8.25D+02 IAcc=2 IRadAn=         0 AccDes= 0.00D+00
 HarFok:  IExCor= 3102 AccDes= 0.00D+00 IRadAn=         0 IDoV= 1
 ScaDFX=  1.000000  1.000000  1.000000  1.000000
 FoFCou: FMM=F IPFlag=           0 FMFlag=      100000 FMFlg1=           0
         NFxFlg=           0 DoJE=T BraDBF=F KetDBF=T FulRan=T
         Omega=  0.000000  0.000000  1.000000  0.000000  0.000000 ICntrl=     500 IOpCl=  0
         NMat0=    1 NMatS0=    1 NMatT0=    0 NMatD0=    1 NMtDS0=    0 NMtDT0=    0
         I1Cent=           4 NGrid=           0.
 Symmetry not used in FoFCou.
 Requested convergence on RMS density matrix=1.00D-08 within 128 cycles.
 Requested convergence on MAX density matrix=1.00D-06.
 Requested convergence on             energy=1.00D-06.
 No special actions if energy rises.
 SCF Done:  E(RX3LYP) =  -460.659390392     A.U. after    8 cycles
             Convg  =    0.6281D-08             -V/T =  2.0096
 Range of M.O.s used for correlation:     1   178
 NBasis=   178 NAE=    34 NBE=    34 NFC=     0 NFV=     0
 NROrb=    178 NOA=    34 NOB=    34 NVA=   144 NVB=   144

 **** Warning!!: The largest alpha MO coefficient is  0.38411483D+02

 Symmetrizing basis deriv contribution to polar:
 IMax=3 JMax=2 DiffMx= 0.00D+00
 Calling FoFJK, ICntrl=      2147 FMM=F ISym2X=0 I1Cent= 0 IOpClX= 0 NMat=1 NMatS=1 NMatT=0.
 -------------------------------------------------------------------
 Center     Atomic                   Forces (Hartrees/Bohr)
 Number     Number              X              Y              Z
 -------------------------------------------------------------------
      1        6           0.000773644   -0.001190780    0.014551672
      2        1           0.005668489   -0.004077517    0.002072894
      3        1           0.000121041    0.000697201    0.001060855
      4        1          -0.000823339   -0.000033319   -0.000310086
      5        6           0.038650361   -0.015618820    0.008707300
      6        8          -0.006137358   -0.008150681    0.006748690
      7        8          -0.047291801    0.008205333   -0.046601263
      8        1          -0.001297922    0.009328005   -0.007001780
      9        8           0.000693122    0.009033816    0.025444012
     10        1           0.002162209   -0.001548410   -0.006062578
     11        6          -0.000809745    0.003376584    0.003777618
     12        1          -0.000274478    0.000071119   -0.000526086
     13        1          -0.000146611    0.000169061   -0.000458325
     14        1          -0.000210609    0.000813210   -0.000250354
     15        1           0.005865426   -0.002969292    0.000027114
     16        6           0.005284467    0.001152912   -0.000430948
     17        1           0.000297391   -0.000846757   -0.000297954
     18        1          -0.000379109    0.000298909   -0.000539492
     19        1          -0.000097387    0.000170066   -0.000282653
     20        8          -0.007986314   -0.001965421    0.008485219
     21        1           0.005938523    0.003084782   -0.008113852
 -------------------------------------------------------------------
 Cartesian Forces:  Max     0.047291801 RMS     0.011248429
 IRC-IRC-IRC-IRC-IRC-IRC-IRC-IRC-IRC-IRC-IRC-IRC-IRC-IRC-IRC-IRC-IRC-IRC
 Error in corrector energy =           0.0000027690
 Magnitude of corrector gradient =     0.0891217492
 Magnitude of analytic gradient =      0.0892816396
 Magnitude of difference =             0.0016946190
 Angle between gradients (degrees)=    1.0836
 Pt  1 Step number   4 out of a maximum of  20
 CORRECTOR INTEGRATION CONVERGENCE:
   Recorrection delta-x convergence threshold:    0.010000
   Delta-x Convergence NOT Met
 IRC-IRC-IRC-IRC-IRC-IRC-IRC-IRC-IRC-IRC-IRC-IRC-IRC-IRC-IRC-IRC-IRC-IRC
                          Input orientation:                          
 ---------------------------------------------------------------------
 Center     Atomic      Atomic             Coordinates (Angstroms)
 Number     Number       Type             X           Y           Z
 ---------------------------------------------------------------------
      1          6           0       -2.546091    0.256736    0.111466
      2          1           0       -2.883154    0.657859   -0.857839
      3          1           0       -2.604590    1.042381    0.864901
      4          1           0       -3.221124   -0.551243    0.403891
      5          6           0       -1.161233   -0.313728   -0.002479
      6          8           0       -0.213587    0.739868   -0.563071
      7          8           0       -0.240407   -0.699437    1.358741
      8          1           0       -0.686693   -1.414942    1.873885
      9          8           0       -1.121296   -1.341598   -0.898704
     10          1           0       -0.367757   -1.920757   -0.684634
     11          6           0       -0.124725    2.041843    0.107550
     12          1           0        0.730171    2.544010   -0.344094
     13          1           0       -1.039171    2.590100   -0.106216
     14          1           0        0.021543    1.885144    1.177511
     15          1           0        0.759785    0.277755   -0.542149
     16          6           0        3.193810    0.045230   -0.009636
     17          1           0        3.431581    0.619132   -0.905733
     18          1           0        3.918446   -0.762874    0.115575
     19          1           0        3.202348    0.697571    0.868714
     20          8           0        1.878867   -0.523063   -0.210089
     21          1           0        1.519705   -0.884200    0.642437
 ---------------------------------------------------------------------
                    Distance matrix (angstroms):
                    1          2          3          4          5
     1  C    0.000000
     2  H    1.101845   0.000000
     3  H    1.090103   1.786977   0.000000
     4  H    1.092709   1.779919   1.769825   0.000000
     5  C    1.502080   2.154213   2.162096   2.112984   0.000000
     6  O    2.475680   2.687044   2.801342   3.412809   1.523931
     7  O    2.790366   3.706696   2.977779   3.133429   1.688080
     8  H    3.059083   4.072254   3.276402   3.054537   2.226791
     9  O    2.367522   2.665267   3.315693   2.594359   1.364307
    10  H    3.181256   3.606450   4.023017   3.346963   1.917676
    11  C    3.008261   3.233623   2.778891   4.049642   2.575883
    12  H    4.021573   4.108238   3.851907   5.074722   3.443948
    13  H    2.786176   2.774665   2.406043   3.858648   2.908243
    14  H    3.221942   3.753151   2.775707   4.129087   2.761590
    15  H    3.369936   3.676295   3.726051   4.174909   2.081203
    16  C    5.745073   6.166381   5.948156   6.455863   4.369817
    17  H    6.074420   6.315035   6.304731   6.880652   4.772844
    18  H    6.544452   7.016251   6.809584   7.148523   5.100864
    19  H    5.814835   6.325812   5.817167   6.560228   4.563173
    20  O    4.504635   4.948839   4.869046   5.136894   3.054363
    21  H    4.256097   4.900402   4.557523   4.758490   2.815810
                    6          7          8          9         10
     6  O    0.000000
     7  O    2.401184   0.000000
     8  H    3.287216   0.988175   0.000000
     9  O    2.295450   2.506870   2.807403   0.000000
    10  H    2.667860   2.383951   2.627468   0.974203   0.000000
    11  C    1.467231   3.015540   3.922386   3.667885   4.048311
    12  H    2.047817   3.789672   4.753970   4.339755   4.610375
    13  H    2.076936   3.688520   4.481674   4.011612   4.597086
    14  H    2.096800   2.604136   3.446317   4.003576   4.254882
    15  H    1.077701   2.359803   3.285535   2.507569   2.474896
    16  C    3.521244   3.771051   4.553905   4.618860   4.123771
    17  H    3.663228   4.511093   5.368790   4.957136   4.575466
    18  H    4.448875   4.341145   4.972338   5.173266   4.511382
    19  H    3.704107   3.747575   4.538471   5.096653   4.691927
    20  O    2.469404   2.642661   3.423521   3.185148   2.688134
    21  H    2.663672   1.909247   2.581926   3.091798   2.529442
                   11         12         13         14         15
    11  C    0.000000
    12  H    1.089496   0.000000
    13  H    1.087425   1.785856   0.000000
    14  H    1.091223   1.803203   1.808324   0.000000
    15  H    2.077613   2.275085   2.961962   2.466968   0.000000
    16  C    3.874644   3.524950   4.940022   3.854592   2.502422
    17  H    3.962090   3.364254   4.950915   4.191783   2.717945
    18  H    4.920745   4.616478   5.989123   4.829654   3.390081
    19  H    3.668222   3.315402   4.745802   3.409282   2.851823
    20  O    3.270171   3.277864   4.268199   3.342836   1.415598
    21  H    3.398821   3.653660   4.379394   3.193754   1.825065
                   16         17         18         19         20
    16  C    0.000000
    17  H    1.090362   0.000000
    18  H    1.092615   1.786071   0.000000
    19  H    1.094129   1.790910   1.792460   0.000000
    20  O    1.446448   2.049256   2.079290   2.098896   0.000000
    21  H    2.022787   2.883072   2.458915   2.320450   0.993085
                   21
    21  H    0.000000
 Symmetry turned off by external request.
 Stoichiometry    C4H13O4(1+)
 Framework group  C1[X(C4H13O4)]
 Deg. of freedom    57
 Full point group                 C1      NOp   1
 Rotational constants (GHZ):      2.7091424      1.1995391      1.0274984
 Standard basis: 6-31+G(d) (6D, 7F)
 Integral buffers will be    262144 words long.
 Raffenetti 2 integral format.
 Two-electron integral symmetry is turned off.
   178 basis functions,   308 primitive gaussians,   178 cartesian basis functions
    34 alpha electrons       34 beta electrons
       nuclear repulsion energy       454.2690744986 Hartrees.
 NAtoms=   21 NActive=   21 NUniq=   21 SFac= 7.50D-01 NAtFMM=   80 NAOKFM=F Big=F
 One-electron integrals computed using PRISM.
 NBasis=   178 RedAO= T  NBF=   178
 NBsUse=   178 1.00D-06 NBFU=   178
 Initial guess read from the read-write file.
 B after Tr=     0.000000    0.000000    0.000000
         Rot=    1.000000    0.000000    0.000000    0.000000 Ang=   0.00 deg.
 Harris functional with IExCor= 3102 diagonalized for initial guess.
 ExpMin= 4.38D-02 ExpMax= 5.48D+03 ExpMxC= 8.25D+02 IAcc=2 IRadAn=         0 AccDes= 0.00D+00
 HarFok:  IExCor= 3102 AccDes= 0.00D+00 IRadAn=         0 IDoV= 1
 ScaDFX=  1.000000  1.000000  1.000000  1.000000
 FoFCou: FMM=F IPFlag=           0 FMFlag=      100000 FMFlg1=           0
         NFxFlg=           0 DoJE=T BraDBF=F KetDBF=T FulRan=T
         Omega=  0.000000  0.000000  1.000000  0.000000  0.000000 ICntrl=     500 IOpCl=  0
         NMat0=    1 NMatS0=    1 NMatT0=    0 NMatD0=    1 NMtDS0=    0 NMtDT0=    0
         I1Cent=           4 NGrid=           0.
 Symmetry not used in FoFCou.
 Requested convergence on RMS density matrix=1.00D-08 within 128 cycles.
 Requested convergence on MAX density matrix=1.00D-06.
 Requested convergence on             energy=1.00D-06.
 No special actions if energy rises.
 SCF Done:  E(RX3LYP) =  -460.658851578     A.U. after    8 cycles
             Convg  =    0.9421D-08             -V/T =  2.0096
 Range of M.O.s used for correlation:     1   178
 NBasis=   178 NAE=    34 NBE=    34 NFC=     0 NFV=     0
 NROrb=    178 NOA=    34 NOB=    34 NVA=   144 NVB=   144

 **** Warning!!: The largest alpha MO coefficient is  0.38594337D+02

 Symmetrizing basis deriv contribution to polar:
 IMax=3 JMax=2 DiffMx= 0.00D+00
[...]
     10          1           0       -0.365572   -1.915851   -0.685398
     11          6           0       -0.125124    2.040625    0.105686
     12          1           0        0.730071    2.542414   -0.342356
     13          1           0       -1.039400    2.589230   -0.108745
     14          1           0        0.018465    1.883678    1.177836
     15          1           0        0.761749    0.275848   -0.540439
     16          6           0        3.189875    0.045835   -0.010421
     17          1           0        3.428153    0.619675   -0.903289
     18          1           0        3.914726   -0.763361    0.116245
     19          1           0        3.198728    0.697109    0.870782
     20          8           0        1.876630   -0.522048   -0.212105
     21          1           0        1.510726   -0.884445    0.645680
 ---------------------------------------------------------------------
                    Distance matrix (angstroms):
                    1          2          3          4          5
     1  C    0.000000
     2  H    1.102550   0.000000
     3  H    1.090839   1.787204   0.000000
     4  H    1.093240   1.781725   1.769241   0.000000
     5  C    1.493486   2.149326   2.155041   2.105734   0.000000
     6  O    2.474993   2.691914   2.801253   3.411623   1.522895
     7  O    2.809999   3.730261   2.991255   3.150221   1.716389
     8  H    3.075071   4.090927   3.288963   3.067146   2.247291
     9  O    2.368683   2.671822   3.317512   2.593682   1.368943
    10  H    3.179088   3.610274   4.019823   3.345153   1.920266
    11  C    3.006165   3.233868   2.777879   4.047266   2.572755
    12  H    4.018946   4.108974   3.849918   5.071829   3.441336
    13  H    2.784045   2.772944   2.405794   3.856901   2.902169
    14  H    3.219125   3.752687   2.771977   4.124905   2.760481
    15  H    3.370323   3.682802   3.726483   4.174054   2.085731
    16  C    5.740609   6.166593   5.943440   6.450352   4.372701
    17  H    6.069508   6.315243   6.299758   6.875053   4.774021
    18  H    6.540545   7.017504   6.805185   7.143139   5.105028
    19  H    5.811403   6.326807   5.812866   6.555302   4.566812
    20  O    4.501852   4.950971   4.866106   5.133119   3.059386
    21  H    4.248284   4.898595   4.548482   4.748251   2.817351
                    6          7          8          9         10
     6  O    0.000000
     7  O    2.411497   0.000000
     8  H    3.295571   0.992207   0.000000
     9  O    2.298334   2.527866   2.819819   0.000000
    10  H    2.662288   2.393506   2.631844   0.973428   0.000000
    11  C    1.465736   3.020873   3.930450   3.669487   4.041947
    12  H    2.046561   3.790424   4.758501   4.341437   4.603720
    13  H    2.076751   3.697889   4.492428   4.013105   4.591550
    14  H    2.096050   2.602740   3.450849   4.005735   4.249182
    15  H    1.078933   2.363242   3.289102   2.510934   2.468888
    16  C    3.515859   3.759692   4.548610   4.617792   4.116432
    17  H    3.658343   4.502322   5.364559   4.956219   4.568229
    18  H    4.444306   4.327340   4.963632   5.171964   4.504644
    19  H    3.700389   3.732622   4.531912   5.097382   4.685455
    20  O    2.465306   2.638445   3.422736   3.185452   2.682194
    21  H    2.658202   1.891375   2.569784   3.089043   2.521123
                   11         12         13         14         15
    11  C    0.000000
    12  H    1.088068   0.000000
    13  H    1.087589   1.785439   0.000000
    14  H    1.093049   1.803136   1.808915   0.000000
    15  H    2.078090   2.275425   2.963483   2.467804   0.000000
    16  C    3.870645   3.520472   4.936122   3.853242   2.495922
    17  H    3.957639   3.360241   4.946663   4.189840   2.712856
    18  H    4.917605   4.613078   5.986138   4.828524   3.384148
    19  H    3.665842   3.312268   4.743556   3.408270   2.847433
    20  O    3.267309   3.274522   4.265439   3.342490   1.409753
    21  H    3.394648   3.650890   4.374782   3.189442   1.820474
                   16         17         18         19         20
    16  C    0.000000
    17  H    1.087788   0.000000
    18  H    1.093732   1.785775   0.000000
    19  H    1.095790   1.790519   1.793028   0.000000
    20  O    1.444915   2.046580   2.078432   2.099269   0.000000
    21  H    2.028652   2.887596   2.464585   2.324077   1.000506
                   21
    21  H    0.000000
 Symmetry turned off by external request.
 Stoichiometry    C4H13O4(1+)
 Framework group  C1[X(C4H13O4)]
 Deg. of freedom    57
 Full point group                 C1      NOp   1
 Rotational constants (GHZ):      2.6993715      1.1987827      1.0284712
 Standard basis: 6-31+G(d) (6D, 7F)
 Integral buffers will be    262144 words long.
 Raffenetti 2 integral format.
 Two-electron integral symmetry is turned off.
   178 basis functions,   308 primitive gaussians,   178 cartesian basis functions
    34 alpha electrons       34 beta electrons
       nuclear repulsion energy       453.8559397583 Hartrees.
 NAtoms=   21 NActive=   21 NUniq=   21 SFac= 7.50D-01 NAtFMM=   80 NAOKFM=F Big=F
 One-electron integrals computed using PRISM.
 NBasis=   178 RedAO= T  NBF=   178
 NBsUse=   178 1.00D-06 NBFU=   178
 Initial guess read from the read-write file.
 B after Tr=     0.000000    0.000000    0.000000
         Rot=    1.000000    0.000000    0.000000    0.000000 Ang=   0.00 deg.
 Harris functional with IExCor= 3102 diagonalized for initial guess.
 ExpMin= 4.38D-02 ExpMax= 5.48D+03 ExpMxC= 8.25D+02 IAcc=2 IRadAn=         0 AccDes= 0.00D+00
 HarFok:  IExCor= 3102 AccDes= 0.00D+00 IRadAn=         0 IDoV= 1
 ScaDFX=  1.000000  1.000000  1.000000  1.000000
 FoFCou: FMM=F IPFlag=           0 FMFlag=      100000 FMFlg1=           0
         NFxFlg=           0 DoJE=T BraDBF=F KetDBF=T FulRan=T
         Omega=  0.000000  0.000000  1.000000  0.000000  0.000000 ICntrl=     500 IOpCl=  0
         NMat0=    1 NMatS0=    1 NMatT0=    0 NMatD0=    1 NMtDS0=    0 NMtDT0=    0
         I1Cent=           4 NGrid=           0.
 Symmetry not used in FoFCou.
 Requested convergence on RMS density matrix=1.00D-08 within 128 cycles.
 Requested convergence on MAX density matrix=1.00D-06.
 Requested convergence on             energy=1.00D-06.
 No special actions if energy rises.
 SCF Done:  E(RX3LYP) =  -460.654608240     A.U. after    9 cycles
             Convg  =    0.8637D-08             -V/T =  2.0096
 Range of M.O.s used for correlation:     1   178
 NBasis=   178 NAE=    34 NBE=    34 NFC=     0 NFV=     0
 NROrb=    178 NOA=    34 NOB=    34 NVA=   144 NVB=   144

 **** Warning!!: The largest alpha MO coefficient is  0.39729633D+02

 Symmetrizing basis deriv contribution to polar:
 IMax=3 JMax=2 DiffMx= 0.00D+00
 Calling FoFJK, ICntrl=      2147 FMM=F ISym2X=0 I1Cent= 0 IOpClX= 0 NMat=1 NMatS=1 NMatT=0.
 -------------------------------------------------------------------
 Center     Atomic                   Forces (Hartrees/Bohr)
 Number     Number              X              Y              Z
 -------------------------------------------------------------------
      1        6          -0.003055399    0.000449348    0.015654026
      2        1           0.005970506   -0.004466055    0.002426347
      3        1           0.000103813    0.000528733    0.000733128
      4        1          -0.000832234    0.000240048   -0.000630080
      5        6           0.045740655   -0.019700275    0.004426794
      6        8          -0.008859794   -0.008387174    0.006447920
      7        8          -0.050893621    0.004730522   -0.044873759
      8        1           0.001248588    0.012416956   -0.008683692
      9        8          -0.000697482    0.013065422    0.028349131
     10        1           0.002935262   -0.002099636   -0.005878782
     11        6          -0.001464654    0.003403769    0.006078948
     12        1           0.000442535    0.000473967   -0.001040191
     13        1          -0.000031809    0.000177251   -0.000604655
     14        1          -0.000315492    0.001039372   -0.001419413
     15        1           0.006981681   -0.003819367    0.000159485
     16        6           0.006075753    0.000431160    0.002359250
     17        1           0.000754888    0.000021903   -0.001708510
     18        1          -0.000801094    0.000909722   -0.000796055
     19        1          -0.000164773   -0.000330186   -0.001160730
     20        8          -0.011291401   -0.004470289    0.013447176
     21        1           0.008154073    0.005384809   -0.013286338
 -------------------------------------------------------------------
 Cartesian Forces:  Max     0.050893621 RMS     0.012381083
 IRC-IRC-IRC-IRC-IRC-IRC-IRC-IRC-IRC-IRC-IRC-IRC-IRC-IRC-IRC-IRC-IRC-IRC
 Error in corrector energy =          -0.0014424601
 Magnitude of corrector gradient =     0.0803994647
 Magnitude of analytic gradient =      0.0982718007
 Magnitude of difference =             0.1627450368
 Angle between gradients (degrees)=  130.9879
 Pt 12 Step number  19 out of a maximum of  20
 CORRECTOR INTEGRATION CONVERGENCE:
   Recorrection delta-x convergence threshold:    0.010000
   Delta-x Convergence NOT Met
 IRC-IRC-IRC-IRC-IRC-IRC-IRC-IRC-IRC-IRC-IRC-IRC-IRC-IRC-IRC-IRC-IRC-IRC
                          Input orientation:                          
 ---------------------------------------------------------------------
 Center     Atomic      Atomic             Coordinates (Angstroms)
 Number     Number       Type             X           Y           Z
 ---------------------------------------------------------------------
      1          6           0       -2.546369    0.257934    0.107837
      2          1           0       -2.885937    0.662843   -0.860476
      3          1           0       -2.604384    1.042033    0.863987
      4          1           0       -3.220544   -0.550372    0.401263
      5          6           0       -1.169482   -0.308142   -0.008027
      6          8           0       -0.210977    0.740217   -0.565344
      7          8           0       -0.226573   -0.701849    1.367750
      8          1           0       -0.680376   -1.421385    1.882126
      9          8           0       -1.120653   -1.341784   -0.904620
     10          1           0       -0.366110   -1.916825   -0.686978
     11          6           0       -0.125587    2.039936    0.106698
     12          1           0        0.731674    2.542302   -0.342317
     13          1           0       -1.038620    2.589743   -0.109715
     14          1           0        0.017236    1.884206    1.177184
     15          1           0        0.761656    0.275356   -0.538936
     16          6           0        3.188989    0.044602   -0.007659
     17          1           0        3.428705    0.620420   -0.905327
     18          1           0        3.913548   -0.763850    0.116259
     19          1           0        3.197826    0.696362    0.869686
     20          8           0        1.877164   -0.522102   -0.212398
     21          1           0        1.510845   -0.884966    0.647226
 ---------------------------------------------------------------------
                    Distance matrix (angstroms):
                    1          2          3          4          5
     1  C    0.000000
     2  H    1.103126   0.000000
     3  H    1.090844   1.787968   0.000000
     4  H    1.092689   1.782087   1.769045   0.000000
     5  C    1.493213   2.148418   2.154606   2.105481   0.000000
     6  O    2.477867   2.692304   2.804012   3.414300   1.525907
     7  O    2.808917   3.728215   2.991469   3.149747   1.713722
     8  H    3.074108   4.090277   3.287376   3.066606   2.247490
     9  O    2.369986   2.671461   3.318435   2.596383   1.369189
    10  H    3.180383   3.610307   4.021220   3.346529   1.922041
    11  C    3.005947   3.232854   2.777361   4.046631   2.572226
    12  H    4.020764   4.109497   3.851657   5.073221   3.442553
    13  H    2.785313   2.772935   2.407305   3.857747   2.902619
    14  H    3.218747   3.751293   2.771324   4.124614   2.760329
    15  H    3.370705   3.682183   3.726422   4.174173   2.086056
    16  C    5.740486   6.165570   5.942879   6.450064   4.372722
    17  H    6.071195   6.314944   6.301301   6.876805   4.776055
    18  H    6.540232   7.015872   6.804686   7.142973   5.104930
    19  H    5.811059   6.325090   5.812501   6.555092   4.566485
    20  O    4.503182   4.950882   4.867176   5.134589   3.060980
    21  H    4.249488   4.899038   4.549222   4.749578   2.818906
                    6          7          8          9         10
     6  O    0.000000
     7  O    2.411773   0.000000
     8  H    3.298934   0.994108   0.000000
     9  O    2.297248   2.524393   2.822433   0.000000
    10  H    2.664345   2.391139   2.635245   0.973332   0.000000
    11  C    1.465674   3.019575   3.929462   3.667281   4.042737
    12  H    2.045933   3.790393   4.759500   4.339749   4.605185
    13  H    2.076857   3.698229   4.492762   4.011920   4.592891
    14  H    2.096950   2.604503   3.451164   4.004461   4.250870
    15  H    1.078336   2.359444   3.289365   2.508377   2.469702
    16  C    3.514920   3.756994   4.548888   4.615151   4.116722
    17  H    3.657489   4.502925   5.368743   4.954483   4.570111
    18  H    4.442804   4.325584   4.965357   5.169079   4.504444
    19  H    3.698807   3.732234   4.533247   5.094258   4.685466
    20  O    2.465432   2.637211   3.425893   3.184015   2.683795
    21  H    2.660116   1.889790   2.571803   3.088962   2.523448
                   11         12         13         14         15
    11  C    0.000000
    12  H    1.090359   0.000000
    13  H    1.087544   1.786140   0.000000
    14  H    1.091142   1.803440   1.807961   0.000000
    15  H    2.077928   2.275654   2.963378   2.467312   0.000000
    16  C    3.870510   3.519787   4.935670   3.853313   2.495485
    17  H    3.958814   3.359254   4.946536   4.191913   2.714123
    18  H    4.916901   4.611427   5.985116   4.828976   3.382847
    19  H    3.665025   3.310340   4.742530   3.409059   2.845415
    20  O    3.267548   3.274080   4.265667   3.343739   1.409583
    21  H    3.394868   3.651366   4.375652   3.190617   1.820608
                   16         17         18         19         20
    16  C    0.000000
    17  H    1.093087   0.000000
    18  H    1.092673   1.787433   0.000000
    19  H    1.092980   1.791576   1.792241   0.000000
    20  O    1.443592   2.047630   2.076853   2.097549   0.000000
    21  H    2.027101   2.890467   2.463651   2.322928   1.002404
                   21
    21  H    0.000000
 Symmetry turned off by external request.
 Stoichiometry    C4H13O4(1+)
 Framework group  C1[X(C4H13O4)]
 Deg. of freedom    57
 Full point group                 C1      NOp   1
 Rotational constants (GHZ):      2.7009436      1.1990541      1.0286518
 Standard basis: 6-31+G(d) (6D, 7F)
 Integral buffers will be    262144 words long.
 Raffenetti 2 integral format.
 Two-electron integral symmetry is turned off.
   178 basis functions,   308 primitive gaussians,   178 cartesian basis functions
    34 alpha electrons       34 beta electrons
       nuclear repulsion energy       453.8752599699 Hartrees.
 NAtoms=   21 NActive=   21 NUniq=   21 SFac= 7.50D-01 NAtFMM=   80 NAOKFM=F Big=F
 One-electron integrals computed using PRISM.
 NBasis=   178 RedAO= T  NBF=   178
 NBsUse=   178 1.00D-06 NBFU=   178
 Initial guess read from the read-write file.
 B after Tr=     0.000000    0.000000    0.000000
         Rot=    1.000000    0.000000    0.000000    0.000000 Ang=   0.00 deg.
 Harris functional with IExCor= 3102 diagonalized for initial guess.
 ExpMin= 4.38D-02 ExpMax= 5.48D+03 ExpMxC= 8.25D+02 IAcc=2 IRadAn=         0 AccDes= 0.00D+00
 HarFok:  IExCor= 3102 AccDes= 0.00D+00 IRadAn=         0 IDoV= 1
 ScaDFX=  1.000000  1.000000  1.000000  1.000000
 FoFCou: FMM=F IPFlag=           0 FMFlag=      100000 FMFlg1=           0
         NFxFlg=           0 DoJE=T BraDBF=F KetDBF=T FulRan=T
         Omega=  0.000000  0.000000  1.000000  0.000000  0.000000 ICntrl=     500 IOpCl=  0
         NMat0=    1 NMatS0=    1 NMatT0=    0 NMatD0=    1 NMtDS0=    0 NMtDT0=    0
         I1Cent=           4 NGrid=           0.
 Symmetry not used in FoFCou.
 Requested convergence on RMS density matrix=1.00D-08 within 128 cycles.
 Requested convergence on MAX density matrix=1.00D-06.
 Requested convergence on             energy=1.00D-06.
 No special actions if energy rises.
 SCF Done:  E(RX3LYP) =  -460.654698824     A.U. after    9 cycles
             Convg  =    0.6350D-08             -V/T =  2.0096
 Range of M.O.s used for correlation:     1   178
 NBasis=   178 NAE=    34 NBE=    34 NFC=     0 NFV=     0
 NROrb=    178 NOA=    34 NOB=    34 NVA=   144 NVB=   144

 **** Warning!!: The largest alpha MO coefficient is  0.39800969D+02

 Symmetrizing basis deriv contribution to polar:
 IMax=3 JMax=2 DiffMx= 0.00D+00
 Calling FoFJK, ICntrl=      2147 FMM=F ISym2X=0 I1Cent= 0 IOpClX= 0 NMat=1 NMatS=1 NMatT=0.
 -------------------------------------------------------------------
 Center     Atomic                   Forces (Hartrees/Bohr)
 Number     Number              X              Y              Z
 -------------------------------------------------------------------
      1        6          -0.002777655    0.000942046    0.015051167
      2        1           0.005951860   -0.004572362    0.002806874
      3        1           0.000069733    0.000540809    0.000705494
      4        1          -0.001033585   -0.000055851   -0.000555358
      5        6           0.047119457   -0.020437492    0.003648765
      6        8          -0.009984289   -0.008423876    0.007715424
      7        8          -0.051765106    0.003961121   -0.043634305
      8        1           0.001939533    0.013500689   -0.009640172
      9        8          -0.001562069    0.012974243    0.028210595
     10        1           0.002990004   -0.001918522   -0.005621848
     11        6           0.000102161    0.004572603    0.003493795
     12        1          -0.000720843    0.000012115   -0.000196417
     13        1          -0.000128981    0.000116972   -0.000547505
     14        1          -0.000188833    0.000604220   -0.000254121
     15        1           0.007170690   -0.003626942   -0.000104635
     16        6           0.007007396    0.002189449   -0.002832994
     17        1           0.000167147   -0.001678746    0.001196383
     18        1          -0.000347399    0.000437213   -0.000436445
     19        1          -0.000167871    0.000536227    0.000404077
     20        8          -0.012307171   -0.005414293    0.015307541
     21        1           0.008465819    0.005740377   -0.014716316
 -------------------------------------------------------------------
 Cartesian Forces:  Max     0.051765106 RMS     0.012582777
 IRC-IRC-IRC-IRC-IRC-IRC-IRC-IRC-IRC-IRC-IRC-IRC-IRC-IRC-IRC-IRC-IRC-IRC
 Error in corrector energy =          -0.0012081100
 Magnitude of corrector gradient =     0.0733479650
 Magnitude of analytic gradient =      0.0998726953
 Magnitude of difference =             0.1570056367
 Angle between gradients (degrees)=  129.3843
 Pt 12 Step number  20 out of a maximum of  20
 CORRECTOR INTEGRATION CONVERGENCE:
   Recorrection delta-x convergence threshold:    0.010000
   Delta-x Convergence NOT Met
 Maximum number of corrector steps exceded.
 Error termination via Lnk1e in C:\G09W\l123.exe at Fri Oct 02 17:26:13 2015.
 Job cpu time:  0 days  2 hours 36 minutes 49.0 seconds.
 File lengths (MBytes):  RWF=     81 Int=      0 D2E=      0 Chk=      5 Scr=      1
