 Entering Link 1 = C:\G09W\l1.exe PID=      5592.
  
 Copyright (c) 1988,1990,1992,1993,1995,1998,2003,2009, Gaussian, Inc.
                  All Rights Reserved.
  
 This is part of the Gaussian(R) 09 program.  It is based on
 the Gaussian(R) 03 system (copyright 2003, Gaussian, Inc.),
 the Gaussian(R) 98 system (copyright 1998, Gaussian, Inc.),
 the Gaussian(R) 94 system (copyright 1995, Gaussian, Inc.),
 the Gaussian 92(TM) system (copyright 1992, Gaussian, Inc.),
 the Gaussian 90(TM) system (copyright 1990, Gaussian, Inc.),
 the Gaussian 88(TM) system (copyright 1988, Gaussian, Inc.),
 the Gaussian 86(TM) system (copyright 1986, Carnegie Mellon
 University), and the Gaussian 82(TM) system (copyright 1983,
 Carnegie Mellon University). Gaussian is a federally registered
 trademark of Gaussian, Inc.
  
 This software contains proprietary and confidential information,
 including trade secrets, belonging to Gaussian, Inc.
  
 This software is provided under written license and may be
 used, copied, transmitted, or stored only in accord with that
 written license.
  
 The following legend is applicable only to US Government
 contracts under FAR:
  
                    RESTRICTED RIGHTS LEGEND
  
 Use, reproduction and disclosure by the US Government is
 subject to restrictions as set forth in subparagraphs (a)
 and (c) of the Commercial Computer Software - Restricted
 Rights clause in FAR 52.227-19.
  
 Gaussian, Inc.
 340 Quinnipiac St., Bldg. 40, Wallingford CT 06492
  
  
 ---------------------------------------------------------------
 Warning -- This program may not be used in any manner that
 competes with the business of Gaussian, Inc. or will provide
 assistance to any competitor of Gaussian, Inc.  The licensee
 of this program is prohibited from giving any competitor of
 Gaussian, Inc. access to this program.  By using this program,
 the user acknowledges that Gaussian, Inc. is engaged in the
 business of creating and licensing software in the field of
 computational chemistry and represents and warrants to the
 licensee that it is not a competitor of Gaussian, Inc. and that
 it will not use this program in any manner prohibited above.
 ---------------------------------------------------------------
  

 Cite this work as:
 Gaussian 09, Revision A.02,
 M. J. Frisch, G. W. Trucks, H. B. Schlegel, G. E. Scuseria, 
 M. A. Robb, J. R. Cheeseman, G. Scalmani, V. Barone, B. Mennucci, 
 G. A. Petersson, H. Nakatsuji, M. Caricato, X. Li, H. P. Hratchian, 
 A. F. Izmaylov, J. Bloino, G. Zheng, J. L. Sonnenberg, M. Hada, 
 M. Ehara, K. Toyota, R. Fukuda, J. Hasegawa, M. Ishida, T. Nakajima, 
 Y. Honda, O. Kitao, H. Nakai, T. Vreven, J. A. Montgomery, Jr., 
 J. E. Peralta, F. Ogliaro, M. Bearpark, J. J. Heyd, E. Brothers, 
 K. N. Kudin, V. N. Staroverov, R. Kobayashi, J. Normand, 
 K. Raghavachari, A. Rendell, J. C. Burant, S. S. Iyengar, J. Tomasi, 
 M. Cossi, N. Rega, J. M. Millam, M. Klene, J. E. Knox, J. B. Cross, 
 V. Bakken, C. Adamo, J. Jaramillo, R. Gomperts, R. E. Stratmann, 
 O. Yazyev, A. J. Austin, R. Cammi, C. Pomelli, J. W. Ochterski, 
 R. L. Martin, K. Morokuma, V. G. Zakrzewski, G. A. Voth, 
 P. Salvador, J. J. Dannenberg, S. Dapprich, A. D. Daniels, 
 O. Farkas, J. B. Foresman, J. V. Ortiz, J. Cioslowski, 
 and D. J. Fox, Gaussian, Inc., Wallingford CT, 2009.
 
 ******************************************
 Gaussian 09:  IA32W-G09RevA.02 11-Jun-2009
                30-Oct-2015 
 ******************************************
 ----------------------------------------------------------------------
 # opt=(calcfc,ts,noeigentest,maxcycle=50) x3lyp/6-31+g(d) scrf=(cpcm,s
 olvent=methanol) geom=connectivity
 ----------------------------------------------------------------------
 1/5=1,6=50,10=4,11=1,14=-1,18=20,26=3,38=1,57=2/1,3;
 2/9=110,12=2,17=6,18=5,40=1/2;
 3/5=1,6=6,7=11,11=2,16=1,25=1,30=1,70=2101,71=2,72=3,74=-33/1,2,3;
 4//1;
 5/5=2,38=5,53=3/2;
 8/6=4,10=90,11=11/1;
 11/6=1,8=1,9=11,15=111,16=1/1,2,10;
 10/6=1,7=6,13=1/2;
 6/7=2,8=2,9=2,10=2,28=1/1;
 7/10=1,18=20,25=1/1,2,3,16;
 1/5=1,6=50,10=4,11=1,14=-1,18=20/3(2);
 2/9=110/2;
 99//99;
 2/9=110/2;
 3/5=1,6=6,7=11,11=2,16=1,25=1,30=1,70=2105,71=1,72=3,74=-33/1,2,3;
 4/5=5,16=3/1;
 5/5=2,38=5,53=3/2;
 7//1,2,3,16;
 1/5=1,6=50,11=1,14=-1,18=20/3(-5);
 2/9=110/2;
 6/7=2,8=2,9=2,10=2,19=2,28=1/1;
 99/9=1/99;
 ------------
 ts4 cpcm opt
 ------------
 Symbolic Z-matrix:
 Charge =  1 Multiplicity = 1
 C                     1.62025  -1.40344  -0.90812 
 H                     0.99252  -2.3167   -0.87031 
 H                     2.65224  -1.74292  -0.71654 
 H                     1.59433  -1.05313  -1.95967 
 C                     1.15724  -0.34872   0.04028 
 O                     2.02613   0.27713   0.91055 
 H                     2.92028  -0.15777   0.99735 
 O                    -1.94611  -0.53313  -0.37405 
 H                    -1.49474   0.20101  -0.93901 
 O                     0.24602   0.72288  -0.65704 
 H                    -1.07928  -0.69705   0.4934 
 O                     0.16561  -1.01453   0.97271 
 H                     0.22784  -0.62408   1.89305 
 C                    -3.17853   0.00652   0.22398 
 H                    -3.57049  -0.82203   0.83487 
 H                    -2.97602   0.90139   0.81741 
 H                    -3.86707   0.21377  -0.60989 
 C                     0.53731   0.64881  -2.0551 
 H                     1.59602   0.69838  -2.20195 
 H                     0.16549  -0.27418  -2.44848 
 H                     0.06837   1.46679  -2.56096 
 

 GradGradGradGradGradGradGradGradGradGradGradGradGradGradGradGradGradGrad
 Berny optimization.
 Initialization pass.
                           ----------------------------
                           !    Initial Parameters    !
                           ! (Angstroms and Degrees)  !
 --------------------------                            --------------------------
 ! Name  Definition              Value          Derivative Info.                !
 --------------------------------------------------------------------------------
 ! R1    R(1,2)                  1.1088         calculate D2E/DX2 analytically  !
 ! R2    R(1,3)                  1.1032         calculate D2E/DX2 analytically  !
 ! R3    R(1,4)                  1.1087         calculate D2E/DX2 analytically  !
 ! R4    R(1,5)                  1.4921         calculate D2E/DX2 analytically  !
 ! R5    R(5,6)                  1.3799         calculate D2E/DX2 analytically  !
 ! R6    R(5,10)                 1.57           calculate D2E/DX2 analytically  !
 ! R7    R(5,12)                 1.5153         calculate D2E/DX2 analytically  !
 ! R8    R(6,7)                  0.9981         calculate D2E/DX2 analytically  !
 ! R9    R(8,9)                  1.0305         calculate D2E/DX2 analytically  !
 ! R10   R(8,11)                 1.2372         calculate D2E/DX2 analytically  !
 ! R11   R(8,14)                 1.4723         calculate D2E/DX2 analytically  !
 ! R12   R(10,18)                1.43           calculate D2E/DX2 analytically  !
 ! R13   R(11,12)                1.3712         calculate D2E/DX2 analytically  !
 ! R14   R(12,13)                1.0017         calculate D2E/DX2 analytically  !
 ! R15   R(14,15)                1.1015         calculate D2E/DX2 analytically  !
 ! R16   R(14,16)                1.0927         calculate D2E/DX2 analytically  !
 ! R17   R(14,17)                1.1011         calculate D2E/DX2 analytically  !
 ! R18   R(18,19)                1.07           calculate D2E/DX2 analytically  !
 ! R19   R(18,20)                1.07           calculate D2E/DX2 analytically  !
 ! R20   R(18,21)                1.07           calculate D2E/DX2 analytically  !
 ! A1    A(2,1,3)              105.6767         calculate D2E/DX2 analytically  !
 ! A2    A(2,1,4)              106.2212         calculate D2E/DX2 analytically  !
 ! A3    A(2,1,5)              112.635          calculate D2E/DX2 analytically  !
 ! A4    A(3,1,4)              106.4889         calculate D2E/DX2 analytically  !
 ! A5    A(3,1,5)              113.4184         calculate D2E/DX2 analytically  !
 ! A6    A(4,1,5)              111.8556         calculate D2E/DX2 analytically  !
 ! A7    A(1,5,6)              121.742          calculate D2E/DX2 analytically  !
 ! A8    A(1,5,10)             112.3504         calculate D2E/DX2 analytically  !
 ! A9    A(1,5,12)             106.4754         calculate D2E/DX2 analytically  !
 ! A10   A(6,5,10)             109.6346         calculate D2E/DX2 analytically  !
 ! A11   A(6,5,12)             102.9019         calculate D2E/DX2 analytically  !
 ! A12   A(10,5,12)            101.1512         calculate D2E/DX2 analytically  !
 ! A13   A(5,6,7)              114.9191         calculate D2E/DX2 analytically  !
 ! A14   A(9,8,11)              99.8983         calculate D2E/DX2 analytically  !
 ! A15   A(9,8,14)             109.1605         calculate D2E/DX2 analytically  !
 ! A16   A(11,8,14)            110.5021         calculate D2E/DX2 analytically  !
 ! A17   A(5,10,18)            106.299          calculate D2E/DX2 analytically  !
 ! A18   A(8,11,12)            155.7578         calculate D2E/DX2 analytically  !
 ! A19   A(5,12,11)            106.099          calculate D2E/DX2 analytically  !
 ! A20   A(5,12,13)            110.6991         calculate D2E/DX2 analytically  !
 ! A21   A(11,12,13)           106.6972         calculate D2E/DX2 analytically  !
 ! A22   A(8,14,15)            104.3258         calculate D2E/DX2 analytically  !
 ! A23   A(8,14,16)            111.4467         calculate D2E/DX2 analytically  !
 ! A24   A(8,14,17)            106.5482         calculate D2E/DX2 analytically  !
 ! A25   A(15,14,16)           112.3817         calculate D2E/DX2 analytically  !
 ! A26   A(15,14,17)           109.82           calculate D2E/DX2 analytically  !
 ! A27   A(16,14,17)           111.9027         calculate D2E/DX2 analytically  !
 ! A28   A(10,18,19)           109.4712         calculate D2E/DX2 analytically  !
 ! A29   A(10,18,20)           109.4712         calculate D2E/DX2 analytically  !
 ! A30   A(10,18,21)           109.4712         calculate D2E/DX2 analytically  !
 ! A31   A(19,18,20)           109.4713         calculate D2E/DX2 analytically  !
 ! A32   A(19,18,21)           109.4712         calculate D2E/DX2 analytically  !
 ! A33   A(20,18,21)           109.4712         calculate D2E/DX2 analytically  !
 ! D1    D(2,1,5,6)            130.1451         calculate D2E/DX2 analytically  !
 ! D2    D(2,1,5,10)           -96.8887         calculate D2E/DX2 analytically  !
 ! D3    D(2,1,5,12)            12.9675         calculate D2E/DX2 analytically  !
 ! D4    D(3,1,5,6)             10.169          calculate D2E/DX2 analytically  !
 ! D5    D(3,1,5,10)           143.1351         calculate D2E/DX2 analytically  !
 ! D6    D(3,1,5,12)          -107.0087         calculate D2E/DX2 analytically  !
 ! D7    D(4,1,5,6)           -110.2942         calculate D2E/DX2 analytically  !
 ! D8    D(4,1,5,10)            22.672          calculate D2E/DX2 analytically  !
 ! D9    D(4,1,5,12)           132.5281         calculate D2E/DX2 analytically  !
 ! D10   D(1,5,6,7)            -12.696          calculate D2E/DX2 analytically  !
 ! D11   D(10,5,6,7)          -146.7599         calculate D2E/DX2 analytically  !
 ! D12   D(12,5,6,7)           106.2397         calculate D2E/DX2 analytically  !
 ! D13   D(1,5,10,18)          -21.1376         calculate D2E/DX2 analytically  !
 ! D14   D(6,5,10,18)          117.5075         calculate D2E/DX2 analytically  !
 ! D15   D(12,5,10,18)        -134.3156         calculate D2E/DX2 analytically  !
 ! D16   D(1,5,12,11)          -99.0272         calculate D2E/DX2 analytically  !
 ! D17   D(1,5,12,13)          145.5858         calculate D2E/DX2 analytically  !
 ! D18   D(6,5,12,11)          131.8802         calculate D2E/DX2 analytically  !
 ! D19   D(6,5,12,13)           16.4933         calculate D2E/DX2 analytically  !
 ! D20   D(10,5,12,11)          18.52           calculate D2E/DX2 analytically  !
 ! D21   D(10,5,12,13)         -96.8669         calculate D2E/DX2 analytically  !
 ! D22   D(9,8,11,12)          -60.721          calculate D2E/DX2 analytically  !
 ! D23   D(14,8,11,12)        -175.6159         calculate D2E/DX2 analytically  !
 ! D24   D(9,8,14,15)         -177.8762         calculate D2E/DX2 analytically  !
 ! D25   D(9,8,14,16)          -56.3726         calculate D2E/DX2 analytically  !
 ! D26   D(9,8,14,17)           65.9593         calculate D2E/DX2 analytically  !
 ! D27   D(11,8,14,15)         -68.9583         calculate D2E/DX2 analytically  !
 ! D28   D(11,8,14,16)          52.5454         calculate D2E/DX2 analytically  !
 ! D29   D(11,8,14,17)         174.8773         calculate D2E/DX2 analytically  !
 ! D30   D(5,10,18,19)         -50.5294         calculate D2E/DX2 analytically  !
 ! D31   D(5,10,18,20)          69.4707         calculate D2E/DX2 analytically  !
 ! D32   D(5,10,18,21)        -170.5293         calculate D2E/DX2 analytically  !
 ! D33   D(8,11,12,5)           43.9529         calculate D2E/DX2 analytically  !
 ! D34   D(8,11,12,13)         162.0297         calculate D2E/DX2 analytically  !
 --------------------------------------------------------------------------------
 Trust Radius=3.00D-01 FncErr=1.00D-07 GrdErr=1.00D-06
 Number of steps in this run=  50 maximum allowed number of steps= 126.
 Search for a saddle point of order  1.
 GradGradGradGradGradGradGradGradGradGradGradGradGradGradGradGradGradGrad

                          Input orientation:                          
 ---------------------------------------------------------------------
 Center     Atomic      Atomic             Coordinates (Angstroms)
 Number     Number       Type             X           Y           Z
 ---------------------------------------------------------------------
      1          6           0        1.620250   -1.403437   -0.908121
      2          1           0        0.992522   -2.316702   -0.870311
      3          1           0        2.652241   -1.742921   -0.716540
      4          1           0        1.594327   -1.053129   -1.959673
      5          6           0        1.157240   -0.348716    0.040281
      6          8           0        2.026127    0.277130    0.910546
      7          1           0        2.920282   -0.157773    0.997347
      8          8           0       -1.946108   -0.533127   -0.374049
      9          1           0       -1.494744    0.201008   -0.939006
     10          8           0        0.246018    0.722881   -0.657038
     11          1           0       -1.079283   -0.697051    0.493397
     12          8           0        0.165614   -1.014529    0.972706
     13          1           0        0.227839   -0.624082    1.893053
     14          6           0       -3.178526    0.006516    0.223980
     15          1           0       -3.570493   -0.822026    0.834867
     16          1           0       -2.976019    0.901394    0.817411
     17          1           0       -3.867065    0.213770   -0.609888
     18          6           0        0.537308    0.648807   -2.055095
     19          1           0        1.596022    0.698382   -2.201951
     20          1           0        0.165492   -0.274179   -2.448477
     21          1           0        0.068368    1.466792   -2.560956
 ---------------------------------------------------------------------
                    Distance matrix (angstroms):
                    1          2          3          4          5
     1  C    0.000000
     2  H    1.108839   0.000000
     3  H    1.103158   1.762821   0.000000
     4  H    1.108670   1.773554   1.772110   0.000000
     5  C    1.492073   2.174690   2.179820   2.164962   0.000000
     6  O    2.509301   3.311760   2.668339   3.192835   1.379858
     7  H    2.621559   3.444616   2.349883   3.362110   2.015131
     8  O    3.709660   3.473177   4.767149   3.913986   3.136311
     9  H    3.504053   3.539784   4.585394   3.486686   2.879968
    10  O    2.544167   3.137167   3.445813   2.582442   1.570000
    11  H    3.122613   2.962321   4.059810   3.645892   2.308394
    12  O    2.409300   2.403361   3.093125   3.262140   1.515271
    13  H    3.223783   3.329547   3.733564   4.110337   2.091023
    14  C    5.128145   4.898209   6.159785   5.354560   4.354170
    15  H    5.506347   5.095370   6.478991   5.876923   4.817348
    16  H    5.423596   5.380879   6.404898   5.693893   4.387543
    17  H    5.728431   5.485134   6.807449   5.766607   5.097328
    18  C    2.588440   3.225706   3.461941   2.005737   2.402076
    19  H    2.468244   3.350852   3.046638   1.768189   2.513275
    20  H    2.400883   2.710440   3.367600   1.699194   2.680119
    21  H    3.657652   4.245842   4.514480   3.006675   3.353826
                    6          7          8          9         10
     6  O    0.000000
     7  H    0.998092   0.000000
     8  O    4.252687   5.069849   0.000000
     9  H    3.977835   4.834319   1.030466   0.000000
    10  O    2.413463   3.265613   2.542254   1.839052   0.000000
    11  H    3.281252   4.067100   1.237222   1.740947   2.257461
    12  O    2.265779   2.884932   2.550464   2.808730   2.383512
    13  H    2.238603   2.875584   3.142303   3.415937   2.884026
    14  C    5.256711   6.149841   1.472314   2.055599   3.607891
    15  H    5.704036   6.526698   2.045377   2.915812   4.379301
    16  H    5.041809   5.993378   2.130292   2.402023   3.547871
    17  H    6.086497   6.984936   2.074500   2.395076   4.144740
    18  C    3.339125   3.955571   3.223390   2.361232   1.430000
    19  H    3.170186   3.566816   4.171873   3.375685   2.051796
    20  H    3.879296   4.413176   2.971390   2.293619   2.051796
    21  H    4.159260   4.840883   3.583344   2.583844   2.051796
                   11         12         13         14         15
    11  H    0.000000
    12  O    1.371239   0.000000
    13  H    1.916489   1.001678   0.000000
    14  C    2.230339   3.575807   3.845358   0.000000
    15  H    2.517608   3.743601   3.947944   1.101500   0.000000
    16  H    2.501523   3.683033   3.707936   1.092692   1.823151
    17  H    3.133458   4.502868   4.871853   1.101079   1.802261
    18  C    3.304469   3.474540   4.159795   4.406149   5.233475
    19  H    4.045911   3.880539   4.515517   5.400012   6.182781
    20  H    3.222252   3.500373   4.356054   4.289903   5.003805
    21  H    3.915149   4.318933   4.922945   4.520022   5.478286
                   16         17         18         19         20
    16  H    0.000000
    17  H    1.817683   0.000000
    18  C    4.545169   4.655790   0.000000
    19  H    5.482821   5.710940   1.070000   0.000000
    20  H    4.681569   4.458702   1.070000   1.747303   0.000000
    21  H    4.582721   4.567753   1.070000   1.747303   1.747303
                   21
    21  H    0.000000
 Stoichiometry    C4H13O4(1+)
 Framework group  C1[X(C4H13O4)]
 Deg. of freedom    57
 Full point group                 C1      NOp   1
 Largest Abelian subgroup         C1      NOp   1
 Largest concise Abelian subgroup C1      NOp   1
                         Standard orientation:                         
 ---------------------------------------------------------------------
 Center     Atomic      Atomic             Coordinates (Angstroms)
 Number     Number       Type             X           Y           Z
 ---------------------------------------------------------------------
      1          6           0       -1.677174    0.182506    1.237909
      2          1           0       -1.093450   -0.143306    2.122577
      3          1           0       -2.714108   -0.141834    1.429035
      4          1           0       -1.684507    1.290873    1.262766
      5          6           0       -1.118735   -0.340678   -0.042991
      6          8           0       -1.913659   -0.973169   -0.976833
      7          1           0       -2.822714   -1.227179   -0.652354
      8          8           0        1.948669    0.075701    0.461098
      9          1           0        1.507030    0.842104   -0.067525
     10          8           0       -0.190884    0.703120   -0.760261
     11          1           0        1.117313   -0.820595    0.270780
     12          8           0       -0.117226   -1.414324    0.331587
     13          1           0       -0.116401   -2.150302   -0.347894
     14          6           0        3.232986   -0.269627   -0.170554
     15          1           0        3.612974   -1.112803    0.427749
     16          1           0        3.102742   -0.531794   -1.223303
     17          1           0        3.890177    0.604598   -0.043248
     18          6           0       -0.551847    1.985229   -0.239876
     19          1           0       -1.612708    2.109853   -0.302677
     20          1           0       -0.244501    2.054526    0.782688
     21          1           0       -0.068425    2.750648   -0.810259
 ---------------------------------------------------------------------
 Rotational constants (GHZ):      2.6159108      1.1952989      1.0218051
 Standard basis: 6-31+G(d) (6D, 7F)
 There are   178 symmetry adapted basis functions of A   symmetry.
 Integral buffers will be    262144 words long.
 Raffenetti 2 integral format.
 Two-electron integral symmetry is turned on.
   178 basis functions,   308 primitive gaussians,   178 cartesian basis functions
    34 alpha electrons       34 beta electrons
       nuclear repulsion energy       455.7452892476 Hartrees.
 NAtoms=   21 NActive=   21 NUniq=   21 SFac= 7.50D-01 NAtFMM=   80 NAOKFM=F Big=F
 ------------------------------------------------------------------------------
 Polarizable Continuum Model (PCM)
 =================================
 Model                : C-PCM.
 Atomic radii         : UFF (Universal Force Field).
 Polarization charges : Total charges.
 Charge compensation  : None.
 Solution method      : Matrix inversion.
 Cavity type          : Scaled VdW (van der Waals Surface) (Alpha=1.100).
 Cavity algorithm     : GePol (No added spheres)
                        Default sphere list used, NSphG=   21.
                        Lebedev-Laikov grids with approx.  5.0 points / Ang**2.
                        Smoothing algorithm: Karplus/York (Gamma=1.0000).
                        Polarization charges: spherical gaussians, with
                                              point-specific exponents (IZeta= 3).
                        Self-potential: point-specific (ISelfS= 7).
                        Self-field    : sphere-specific E.n sum rule (ISelfD= 2).
 1st derivatives      : Analytical E(r).r(x)/FMM algorithm (CHGder, D1EAlg=3).
                        Cavity 1st derivative terms included.
 2nd derivatives      : Analytical E(r).r(xy)/FMM algorithm (CHGder, D2EAlg=3).
                        Cavity 2nd derivative terms included.
 Solvent              : Methanol, Eps=  32.613000 Eps(inf)=   1.765709
 ------------------------------------------------------------------------------
 One-electron integrals computed using PRISM.
 NBasis=   178 RedAO= T  NBF=   178
 NBsUse=   178 1.00D-06 NBFU=   178
 Harris functional with IExCor= 3102 diagonalized for initial guess.
 ExpMin= 4.38D-02 ExpMax= 5.48D+03 ExpMxC= 8.25D+02 IAcc=2 IRadAn=         0 AccDes= 0.00D+00
 HarFok:  IExCor= 3102 AccDes= 0.00D+00 IRadAn=         0 IDoV= 1
 ScaDFX=  1.000000  1.000000  1.000000  1.000000
 FoFCou: FMM=F IPFlag=           0 FMFlag=      100000 FMFlg1=           0
         NFxFlg=           0 DoJE=T BraDBF=F KetDBF=T FulRan=T
         Omega=  0.000000  0.000000  1.000000  0.000000  0.000000 ICntrl=     500 IOpCl=  0
         NMat0=    1 NMatS0=    1 NMatT0=    0 NMatD0=    1 NMtDS0=    0 NMtDT0=    0
         I1Cent=           4 NGrid=           0.
 Petite list used in FoFCou.
 Initial guess orbital symmetries:
       Occupied  (A) (A) (A) (A) (A) (A) (A) (A) (A) (A) (A) (A)
                 (A) (A) (A) (A) (A) (A) (A) (A) (A) (A) (A) (A)
                 (A) (A) (A) (A) (A) (A) (A) (A) (A) (A)
       Virtual   (A) (A) (A) (A) (A) (A) (A) (A) (A) (A) (A) (A)
                 (A) (A) (A) (A) (A) (A) (A) (A) (A) (A) (A) (A)
                 (A) (A) (A) (A) (A) (A) (A) (A) (A) (A) (A) (A)
                 (A) (A) (A) (A) (A) (A) (A) (A) (A) (A) (A) (A)
                 (A) (A) (A) (A) (A) (A) (A) (A) (A) (A) (A) (A)
                 (A) (A) (A) (A) (A) (A) (A) (A) (A) (A) (A) (A)
                 (A) (A) (A) (A) (A) (A) (A) (A) (A) (A) (A) (A)
                 (A) (A) (A) (A) (A) (A) (A) (A) (A) (A) (A) (A)
                 (A) (A) (A) (A) (A) (A) (A) (A) (A) (A) (A) (A)
                 (A) (A) (A) (A) (A) (A) (A) (A) (A) (A) (A) (A)
                 (A) (A) (A) (A) (A) (A) (A) (A) (A) (A) (A) (A)
                 (A) (A) (A) (A) (A) (A) (A) (A) (A) (A) (A) (A)
 The electronic state of the initial guess is 1-A.
 Requested convergence on RMS density matrix=1.00D-08 within 128 cycles.
 Requested convergence on MAX density matrix=1.00D-06.
 Requested convergence on             energy=1.00D-06.
 No special actions if energy rises.
 Error on total polarization charges =  0.00925
 SCF Done:  E(RX3LYP) =  -460.712341541     A.U. after   13 cycles
             Convg  =    0.3565D-08             -V/T =  2.0097
 Range of M.O.s used for correlation:     1   178
 NBasis=   178 NAE=    34 NBE=    34 NFC=     0 NFV=     0
 NROrb=    178 NOA=    34 NOB=    34 NVA=   144 NVB=   144

 **** Warning!!: The largest alpha MO coefficient is  0.65154164D+02

 Symmetrizing basis deriv contribution to polar:
 IMax=3 JMax=2 DiffMx= 0.00D+00
 G2DrvN: will do    22 centers at a time, making    1 passes doing MaxLOS=2.
 Calling FoFCou, ICntrl=  3107 FMM=F I1Cent=   0 AccDes= 0.00D+00.
 FoFDir/FoFCou used for L=0 through L=2.
 G2PCM: DoFxE=T DoFxN=T DoGrad=T DoPD/DQ/DG=FFF NFrqRd=   0 IEInf=0 DoCFld=F IF1Alg=4.
 End of G2Drv Frequency-dependent properties file   721 does not exist.
 End of G2Drv Frequency-dependent properties file   722 does not exist.
          IDoAtm=111111111111111111111
 NEqPCM:  Using equilibrium solvation (IEInf=0, Eps=  32.6130, EpsInf=   1.7657)
          Differentiating once with respect to nuclear coordinates.
          There are    66 degrees of freedom in the 1st order CPHF.  IDoFFX=5.
     60 vectors produced by pass  0 Test12= 7.42D-11 1.52D-07 XBig12= 1.67D-01 5.97D-02.
 AX will form    60 AO Fock derivatives at one time.
     60 vectors produced by pass  1 Test12= 7.42D-11 1.52D-07 XBig12= 1.97D-02 2.08D-02.
     60 vectors produced by pass  2 Test12= 7.42D-11 1.52D-07 XBig12= 6.61D-05 9.38D-04.
     60 vectors produced by pass  3 Test12= 7.42D-11 1.52D-07 XBig12= 1.44D-07 4.20D-05.
     21 vectors produced by pass  4 Test12= 7.42D-11 1.52D-07 XBig12= 1.76D-10 1.30D-06.
 Inverted reduced A of dimension   261 with in-core refinement.
 End of Minotr Frequency-dependent properties file   721 does not exist.
 End of Minotr Frequency-dependent properties file   722 does not exist.

 **********************************************************************

            Population analysis using the SCF density.

 **********************************************************************

 Orbital symmetries:
       Occupied  (A) (A) (A) (A) (A) (A) (A) (A) (A) (A) (A) (A)
                 (A) (A) (A) (A) (A) (A) (A) (A) (A) (A) (A) (A)
                 (A) (A) (A) (A) (A) (A) (A) (A) (A) (A)
       Virtual   (A) (A) (A) (A) (A) (A) (A) (A) (A) (A) (A) (A)
                 (A) (A) (A) (A) (A) (A) (A) (A) (A) (A) (A) (A)
                 (A) (A) (A) (A) (A) (A) (A) (A) (A) (A) (A) (A)
                 (A) (A) (A) (A) (A) (A) (A) (A) (A) (A) (A) (A)
                 (A) (A) (A) (A) (A) (A) (A) (A) (A) (A) (A) (A)
                 (A) (A) (A) (A) (A) (A) (A) (A) (A) (A) (A) (A)
                 (A) (A) (A) (A) (A) (A) (A) (A) (A) (A) (A) (A)
                 (A) (A) (A) (A) (A) (A) (A) (A) (A) (A) (A) (A)
                 (A) (A) (A) (A) (A) (A) (A) (A) (A) (A) (A) (A)
                 (A) (A) (A) (A) (A) (A) (A) (A) (A) (A) (A) (A)
                 (A) (A) (A) (A) (A) (A) (A) (A) (A) (A) (A) (A)
                 (A) (A) (A) (A) (A) (A) (A) (A) (A) (A) (A) (A)
 The electronic state is 1-A.
 Alpha  occ. eigenvalues --  -19.29473 -19.27938 -19.25940 -19.24820 -10.43547
 Alpha  occ. eigenvalues --  -10.29357 -10.26987 -10.24105  -1.15023  -1.11344
 Alpha  occ. eigenvalues --   -1.06646  -1.06019  -0.80297  -0.74204  -0.74034
 Alpha  occ. eigenvalues --   -0.66373  -0.61210  -0.60231  -0.56530  -0.55415
 Alpha  occ. eigenvalues --   -0.53236  -0.49448  -0.49254  -0.47647  -0.47080
 Alpha  occ. eigenvalues --   -0.44616  -0.42835  -0.41569  -0.41086  -0.40170
 Alpha  occ. eigenvalues --   -0.39036  -0.36151  -0.35768  -0.32542
 Alpha virt. eigenvalues --   -0.02519   0.00305   0.00581   0.01219   0.02141
 Alpha virt. eigenvalues --    0.02992   0.04175   0.04834   0.05419   0.06229
 Alpha virt. eigenvalues --    0.06410   0.07044   0.07849   0.08544   0.09667
 Alpha virt. eigenvalues --    0.10110   0.11242   0.11623   0.12614   0.13728
 Alpha virt. eigenvalues --    0.14696   0.15380   0.16439   0.17068   0.17438
 Alpha virt. eigenvalues --    0.18100   0.18749   0.19382   0.20670   0.21472
 Alpha virt. eigenvalues --    0.23077   0.23406   0.24301   0.25261   0.25399
 Alpha virt. eigenvalues --    0.26606   0.27633   0.28371   0.29154   0.29355
 Alpha virt. eigenvalues --    0.30627   0.31012   0.32054   0.33862   0.34366
 Alpha virt. eigenvalues --    0.36529   0.37463   0.39566   0.41686   0.43697
 Alpha virt. eigenvalues --    0.46227   0.61840   0.62342   0.63875   0.65733
 Alpha virt. eigenvalues --    0.68094   0.70185   0.70551   0.72890   0.75141
 Alpha virt. eigenvalues --    0.76707   0.79257   0.87369   0.89251   0.90831
 Alpha virt. eigenvalues --    0.92596   0.95112   0.96110   0.98442   0.99139
 Alpha virt. eigenvalues --    1.00844   1.04996   1.05554   1.07583   1.10464
 Alpha virt. eigenvalues --    1.12844   1.13292   1.14651   1.15818   1.16333
 Alpha virt. eigenvalues --    1.19358   1.22006   1.23821   1.26230   1.26959
 Alpha virt. eigenvalues --    1.29189   1.32355   1.33711   1.37872   1.41926
 Alpha virt. eigenvalues --    1.43968   1.45602   1.47512   1.50586   1.51310
 Alpha virt. eigenvalues --    1.52519   1.54964   1.58131   1.63566   1.67886
 Alpha virt. eigenvalues --    1.73725   1.74455   1.75915   1.77754   1.80969
 Alpha virt. eigenvalues --    1.82602   1.85081   1.86513   1.95016   1.96094
 Alpha virt. eigenvalues --    2.00549   2.04093   2.08600   2.09857   2.11125
 Alpha virt. eigenvalues --    2.13263   2.18997   2.21732   2.24329   2.28210
 Alpha virt. eigenvalues --    2.28478   2.30192   2.32703   2.36427   2.40950
 Alpha virt. eigenvalues --    2.42450   2.45066   2.48476   2.56924   2.61714
 Alpha virt. eigenvalues --    2.71338   2.78987   2.82269   2.85391   2.94357
 Alpha virt. eigenvalues --    2.98256   4.03999   4.13868   4.16947   4.28521
 Alpha virt. eigenvalues --    4.30070   4.38133   4.40692   4.64102
          Condensed to atoms (all electrons):
              1          2          3          4          5          6
     1  C    6.579317   0.373676   0.421868   0.382398  -0.950291  -0.024684
     2  H    0.373676   0.423278  -0.019427  -0.022048  -0.032187   0.003239
     3  H    0.421868  -0.019427   0.445626  -0.020621  -0.097470  -0.002414
     4  H    0.382398  -0.022048  -0.020621   0.468175  -0.052576   0.003498
     5  C   -0.950291  -0.032187  -0.097470  -0.052576   6.345714   0.261206
     6  O   -0.024684   0.003239  -0.002414   0.003498   0.261206   8.381065
     7  H    0.005734   0.000068   0.003012   0.000068  -0.014040   0.194393
     8  O   -0.010735  -0.000705   0.000141   0.000879  -0.009185   0.000000
     9  H    0.009840   0.000038  -0.000020   0.000082  -0.018082   0.000297
    10  O   -0.039934   0.005082   0.009736  -0.024089   0.064582  -0.028629
    11  H    0.001980  -0.000234  -0.000010  -0.000081  -0.000404   0.002482
    12  O   -0.036337  -0.006763   0.001903   0.005745   0.108430  -0.137854
    13  H   -0.009076   0.000286  -0.000161  -0.000143   0.028294   0.008181
    14  C    0.002384   0.000047  -0.000006   0.000138  -0.009508   0.000760
    15  H    0.000599   0.000001   0.000000   0.000000  -0.002832   0.000006
    16  H   -0.001515   0.000000   0.000000   0.000000   0.003441  -0.000035
    17  H    0.000235   0.000000   0.000000   0.000000  -0.000005   0.000000
    18  C   -0.067131  -0.005199   0.003212   0.010773  -0.072293  -0.012597
    19  H   -0.003768   0.000723  -0.000181  -0.001890  -0.035676   0.005640
    20  H   -0.040059   0.000060   0.000566  -0.003509   0.020479  -0.002086
    21  H    0.007059  -0.000064  -0.000041   0.001395   0.002182  -0.000174
              7          8          9         10         11         12
     1  C    0.005734  -0.010735   0.009840  -0.039934   0.001980  -0.036337
     2  H    0.000068  -0.000705   0.000038   0.005082  -0.000234  -0.006763
     3  H    0.003012   0.000141  -0.000020   0.009736  -0.000010   0.001903
     4  H    0.000068   0.000879   0.000082  -0.024089  -0.000081   0.005745
     5  C   -0.014040  -0.009185  -0.018082   0.064582  -0.000404   0.108430
     6  O    0.194393   0.000000   0.000297  -0.028629   0.002482  -0.137854
     7  H    0.274221   0.000155  -0.000013   0.003570  -0.000083   0.004732
     8  O    0.000155   8.665356   0.155453  -0.072101   0.106415  -0.025458
     9  H   -0.000013   0.155453   0.247918   0.045091  -0.012600   0.000267
    10  O    0.003570  -0.072101   0.045091   8.650475   0.003632  -0.132416
    11  H   -0.000083   0.106415  -0.012600   0.003632   0.234176   0.079522
    12  O    0.004732  -0.025458   0.000267  -0.132416   0.079522   8.758486
    13  H   -0.000793  -0.001836   0.000088  -0.001087  -0.005050   0.170637
    14  C   -0.000002   0.031134  -0.013089   0.014126  -0.013286   0.001798
    15  H    0.000000  -0.039948   0.003426  -0.000314  -0.002427   0.000371
    16  H    0.000000  -0.056430  -0.001381   0.002605  -0.001258   0.000377
    17  H    0.000000  -0.036039  -0.004023   0.000223   0.001917  -0.000572
    18  C   -0.000228   0.013782   0.005176   0.047351  -0.000302  -0.005342
    19  H   -0.000258  -0.000741   0.000492  -0.027369  -0.000028  -0.000198
    20  H    0.000044   0.004409  -0.002895  -0.057431   0.000021   0.001462
    21  H    0.000004  -0.000450  -0.000514  -0.041378   0.000022  -0.000909
             13         14         15         16         17         18
     1  C   -0.009076   0.002384   0.000599  -0.001515   0.000235  -0.067131
     2  H    0.000286   0.000047   0.000001   0.000000   0.000000  -0.005199
     3  H   -0.000161  -0.000006   0.000000   0.000000   0.000000   0.003212
     4  H   -0.000143   0.000138   0.000000   0.000000   0.000000   0.010773
     5  C    0.028294  -0.009508  -0.002832   0.003441  -0.000005  -0.072293
     6  O    0.008181   0.000760   0.000006  -0.000035   0.000000  -0.012597
     7  H   -0.000793  -0.000002   0.000000   0.000000   0.000000  -0.000228
     8  O   -0.001836   0.031134  -0.039948  -0.056430  -0.036039   0.013782
     9  H    0.000088  -0.013089   0.003426  -0.001381  -0.004023   0.005176
    10  O   -0.001087   0.014126  -0.000314   0.002605   0.000223   0.047351
    11  H   -0.005050  -0.013286  -0.002427  -0.001258   0.001917  -0.000302
    12  O    0.170637   0.001798   0.000371   0.000377  -0.000572  -0.005342
    13  H    0.244457  -0.000939  -0.000010   0.000057   0.000005  -0.000090
    14  C   -0.000939   5.177686   0.391347   0.391461   0.387742  -0.006949
    15  H   -0.000010   0.391347   0.452368  -0.024889  -0.021831   0.000805
    16  H    0.000057   0.391461  -0.024889   0.468461  -0.025931  -0.000357
    17  H    0.000005   0.387742  -0.021831  -0.025931   0.456132  -0.000785
    18  C   -0.000090  -0.006949   0.000805  -0.000357  -0.000785   5.365138
    19  H    0.000005   0.000359   0.000000   0.000001   0.000000   0.395565
    20  H   -0.000023  -0.001226   0.000002  -0.000005   0.000003   0.394044
    21  H    0.000006  -0.000417   0.000000  -0.000002   0.000003   0.383563
             19         20         21
     1  C   -0.003768  -0.040059   0.007059
     2  H    0.000723   0.000060  -0.000064
     3  H   -0.000181   0.000566  -0.000041
     4  H   -0.001890  -0.003509   0.001395
     5  C   -0.035676   0.020479   0.002182
     6  O    0.005640  -0.002086  -0.000174
     7  H   -0.000258   0.000044   0.000004
     8  O   -0.000741   0.004409  -0.000450
     9  H    0.000492  -0.002895  -0.000514
    10  O   -0.027369  -0.057431  -0.041378
    11  H   -0.000028   0.000021   0.000022
    12  O   -0.000198   0.001462  -0.000909
    13  H    0.000005  -0.000023   0.000006
    14  C    0.000359  -0.001226  -0.000417
    15  H    0.000000   0.000002   0.000000
    16  H    0.000001  -0.000005  -0.000002
    17  H    0.000000   0.000003   0.000003
    18  C    0.395565   0.394044   0.383563
    19  H    0.493326  -0.044617  -0.020717
    20  H   -0.044617   0.519523  -0.030927
    21  H   -0.020717  -0.030927   0.458349
 Mulliken atomic charges:
              1
     1  C   -0.601561
     2  H    0.280130
     3  H    0.254285
     4  H    0.251805
     5  C    0.460219
     6  O   -0.652295
     7  H    0.529417
     8  O   -0.724093
     9  H    0.584448
    10  O   -0.421725
    11  H    0.605593
    12  O   -0.787883
    13  H    0.567192
    14  C   -0.353560
    15  H    0.243325
    16  H    0.245402
    17  H    0.242927
    18  C   -0.448136
    19  H    0.239332
    20  H    0.242166
    21  H    0.243012
 Sum of Mulliken atomic charges =   1.00000
 Mulliken charges with hydrogens summed into heavy atoms:
              1
     1  C    0.184659
     5  C    0.460219
     6  O   -0.122879
     8  O    0.465949
    10  O   -0.421725
    12  O   -0.220691
    14  C    0.378094
    18  C    0.276375
 Sum of Mulliken charges with hydrogens summed into heavy atoms =   1.00000
 APT atomic charges:
              1
     1  C   -1.460809
     2  H    0.459505
     3  H    0.675440
     4  H    0.442381
     5  C    0.211245
     6  O   -0.885749
     7  H    0.935611
     8  O   -0.332919
     9  H    0.526416
    10  O   -0.230806
    11  H    0.549814
    12  O   -0.817358
    13  H    0.754689
    14  C   -1.613573
    15  H    0.610440
    16  H    0.399093
    17  H    0.677019
    18  C   -1.372982
    19  H    0.491637
    20  H    0.367837
    21  H    0.613070
 Sum of APT charges=   1.00000
 APT Atomic charges with hydrogens summed into heavy atoms:
              1
     1  C    0.116517
     2  H    0.000000
     3  H    0.000000
     4  H    0.000000
     5  C    0.211245
     6  O    0.049861
     7  H    0.000000
     8  O    0.743311
     9  H    0.000000
    10  O   -0.230806
    11  H    0.000000
    12  O   -0.062669
    13  H    0.000000
    14  C    0.072979
    15  H    0.000000
    16  H    0.000000
    17  H    0.000000
    18  C    0.099563
    19  H    0.000000
    20  H    0.000000
    21  H    0.000000
 Sum of APT charges=   1.00000
 Electronic spatial extent (au):  <R**2>=           1252.6038
 Charge=              1.0000 electrons
 Dipole moment (field-independent basis, Debye):
    X=              1.0442    Y=             -0.6394    Z=              0.9879  Tot=              1.5733
 Quadrupole moment (field-independent basis, Debye-Ang):
   XX=            -18.6622   YY=            -35.7386   ZZ=            -51.7763
   XY=              0.8449   XZ=             -5.5783   YZ=              2.0358
 Traceless Quadrupole moment (field-independent basis, Debye-Ang):
   XX=             16.7302   YY=             -0.3462   ZZ=            -16.3839
   XY=              0.8449   XZ=             -5.5783   YZ=              2.0358
 Octapole moment (field-independent basis, Debye-Ang**2):
  XXX=             16.2447  YYY=             -7.2708  ZZZ=              4.9292  XYY=             -1.2523
  XXY=            -16.9512  XXZ=             -3.4815  XZZ=              0.9390  YZZ=             -0.8758
  YYZ=             -7.2244  XYZ=             -2.4163
 Hexadecapole moment (field-independent basis, Debye-Ang**3):
 XXXX=           -650.2342 YYYY=           -318.9543 ZZZZ=           -207.4165 XXXY=             42.4888
 XXXZ=             -0.2355 YYYX=              7.7484 YYYZ=              6.5713 ZZZX=             -8.1219
 ZZZY=              0.7999 XXYY=           -190.0420 XXZZ=           -194.5953 YYZZ=            -98.6547
 XXYZ=              2.4633 YYXZ=              5.2282 ZZXY=             -2.0749
 N-N= 4.557452892476D+02 E-N=-1.977258495514D+03  KE= 4.563033367424D+02
  Exact polarizability:   0.000   0.000   0.000   0.000   0.000   0.000
 Approx polarizability:  93.674   6.380  91.003  -0.689  -0.337  81.317
 D2PCM: C-PCM CHGder 2nd derivatives, FixD1E=F FixD2E=F DoIter=F DoCFld=F I1PDM=0
 Calling FoFJK, ICntrl=    100147 FMM=F ISym2X=0 I1Cent= 0 IOpClX= 0 NMat=1 NMatS=1 NMatT=0.
 ***** Axes restored to original set *****
 -------------------------------------------------------------------
 Center     Atomic                   Forces (Hartrees/Bohr)
 Number     Number              X              Y              Z
 -------------------------------------------------------------------
      1        6           0.017540684   -0.025765346   -0.020439028
      2        1           0.001772708    0.011787142    0.003851928
      3        1          -0.005054851    0.005220619    0.004241127
      4        1           0.010480110   -0.016223721    0.021370249
      5        6          -0.040742810    0.018744445    0.032058158
      6        8           0.011251640   -0.001726540   -0.018102360
      7        1          -0.021479976    0.005752075   -0.008046506
      8        8           0.024246252    0.026346645    0.014411707
      9        1          -0.012954345   -0.026594975    0.025126990
     10        8           0.048221502   -0.033674694    0.018974223
     11        1          -0.004234696   -0.008128816   -0.027565311
     12        8          -0.017411988    0.018566048    0.001966432
     13        1           0.004986739   -0.004553939   -0.020522459
     14        6          -0.010944118   -0.012421093   -0.005804699
     15        1           0.001487123    0.008755253   -0.002372730
     16        1           0.001414159   -0.001954177   -0.001152443
     17        1           0.004194024    0.000162105    0.006749720
     18        6          -0.006298715    0.018781963   -0.001064522
     19        1           0.012738325    0.008984815   -0.008478416
     20        1          -0.010164701   -0.007044948   -0.013215155
     21        1          -0.009047067    0.014987141   -0.001986905
 -------------------------------------------------------------------
 Cartesian Forces:  Max     0.048221502 RMS     0.016469880

 GradGradGradGradGradGradGradGradGradGradGradGradGradGradGradGradGradGrad
 Berny optimization.
 Internal  Forces:  Max     0.140188148 RMS     0.021672967
 Search for a saddle point.
 Step number   1 out of a maximum of   50
 All quantities printed in internal units (Hartrees-Bohrs-Radians)
 Swaping is turned off.
 Second derivative matrix not updated -- analytic derivatives used.
     Eigenvalues ---   -0.04430  -0.02230  -0.00645  -0.00477  -0.00236
     Eigenvalues ---    0.00020   0.00228   0.00705   0.01316   0.02145
     Eigenvalues ---    0.03389   0.04053   0.04341   0.04608   0.06134
     Eigenvalues ---    0.06238   0.06473   0.07352   0.07976   0.09430
     Eigenvalues ---    0.09526   0.10561   0.11135   0.11965   0.12057
     Eigenvalues ---    0.12667   0.13372   0.13658   0.13794   0.14034
     Eigenvalues ---    0.14944   0.15494   0.16036   0.17830   0.18914
     Eigenvalues ---    0.19079   0.19619   0.20410   0.21592   0.30892
     Eigenvalues ---    0.31827   0.32362   0.32990   0.33046   0.33233
     Eigenvalues ---    0.33615   0.33844   0.35232   0.36164   0.38968
     Eigenvalues ---    0.39312   0.40161   0.40436   0.41401   0.41886
     Eigenvalues ---    0.98546   1.393431000.000001000.000001000.00000
     Eigenvalues --- 1000.000001000.000001000.000001000.000001000.00000
     Eigenvalues --- 1000.000001000.000001000.000001000.000001000.00000
     Eigenvalues --- 1000.000001000.000001000.000001000.000001000.00000
     Eigenvalues --- 1000.000001000.000001000.000001000.000001000.00000
     Eigenvalues --- 1000.000001000.000001000.000001000.000001000.00000
     Eigenvalues --- 1000.000001000.00000
 Eigenvectors required to have negative eigenvalues:
                          R13       R10       A18       R6        R7
   1                    0.67173  -0.58914  -0.19875   0.16425  -0.13925
                          D14       A14       D34       D15       D11
   1                   -0.12037  -0.11971  -0.07583  -0.07515   0.07320
 RFO step:  Lambda0=1.602741669D-05 Lambda=-7.25582233D-02.
 Linear search not attempted -- option 19 set.
 Maximum step size (   0.300) exceeded in Quadratic search.
    -- Step size scaled by   0.275
 Iteration  1 RMS(Cart)=  0.08388761 RMS(Int)=  0.00301681
 Iteration  2 RMS(Cart)=  0.00464373 RMS(Int)=  0.00001801
 Iteration  3 RMS(Cart)=  0.00001139 RMS(Int)=  0.00001661
 Iteration  4 RMS(Cart)=  0.00000000 RMS(Int)=  0.00001661
 Variable       Old X    -DE/DX   Delta X   Delta X   Delta X     New X
                                 (Linear)    (Quad)   (Total)
    R1        2.09540  -0.01058   0.00000  -0.00782  -0.00782   2.08758
    R2        2.08467  -0.00560   0.00000  -0.00431  -0.00431   2.08036
    R3        2.09508  -0.02564   0.00000  -0.00888  -0.00888   2.08620
    R4        2.81961   0.01959   0.00000   0.01392   0.01392   2.83353
    R5        2.60755  -0.02110   0.00000  -0.00398  -0.00398   2.60358
    R6        2.96687  -0.01662   0.00000  -0.10358  -0.10358   2.86329
    R7        2.86345   0.00032   0.00000  -0.00289  -0.00289   2.86055
    R8        1.88612  -0.02245   0.00000  -0.01284  -0.01284   1.87328
    R9        1.94730  -0.03840   0.00000  -0.02828  -0.02828   1.91902
   R10        2.33801  -0.03191   0.00000  -0.02937  -0.02937   2.30864
   R11        2.78227   0.00018   0.00000  -0.00055  -0.00055   2.78172
   R12        2.70231   0.01977   0.00000   0.01211   0.01211   2.71442
   R13        2.59127  -0.00942   0.00000  -0.03631  -0.03631   2.55495
   R14        1.89290  -0.02031   0.00000  -0.01155  -0.01155   1.88135
   R15        2.08153  -0.00843   0.00000  -0.00585  -0.00585   2.07569
   R16        2.06489  -0.00196   0.00000  -0.00099  -0.00099   2.06390
   R17        2.08074  -0.00771   0.00000  -0.00547  -0.00547   2.07527
   R18        2.02201   0.01418   0.00000   0.01120   0.01120   2.03321
   R19        2.02201   0.01448   0.00000   0.00873   0.00873   2.03074
   R20        2.02201   0.01636   0.00000   0.00774   0.00774   2.02975
    A1        1.84441   0.00788   0.00000   0.00806   0.00803   1.85244
    A2        1.85391  -0.00156   0.00000   0.00841   0.00840   1.86231
    A3        1.96585  -0.01040   0.00000  -0.00992  -0.00994   1.95591
    A4        1.85858  -0.00495   0.00000   0.00390   0.00389   1.86247
    A5        1.97952  -0.01137   0.00000  -0.00642  -0.00644   1.97308
    A6        1.95225   0.02047   0.00000  -0.00202  -0.00203   1.95022
    A7        2.12480  -0.01621   0.00000  -0.01056  -0.01055   2.11425
    A8        1.96088   0.04601   0.00000   0.01178   0.01179   1.97267
    A9        1.85835  -0.01676   0.00000  -0.00496  -0.00495   1.85339
   A10        1.91348  -0.02854   0.00000  -0.00231  -0.00230   1.91119
   A11        1.79598   0.01476   0.00000   0.00922   0.00920   1.80518
   A12        1.76542   0.00116   0.00000  -0.00234  -0.00233   1.76310
   A13        2.00572  -0.01357   0.00000  -0.01315  -0.01315   1.99257
   A14        1.74355  -0.00649   0.00000   0.00133   0.00131   1.74486
   A15        1.90521   0.00247   0.00000   0.00049   0.00047   1.90568
   A16        1.92863   0.00867   0.00000   0.00992   0.00991   1.93854
   A17        1.85527   0.14019   0.00000   0.03612   0.03612   1.89139
   A18        2.71849   0.03457   0.00000   0.02019   0.02019   2.73868
   A19        1.85178   0.06123   0.00000   0.01006   0.01007   1.86185
   A20        1.93206  -0.01870   0.00000  -0.01376  -0.01378   1.91829
   A21        1.86222  -0.01352   0.00000   0.00979   0.00985   1.87206
   A22        1.82083   0.00543   0.00000   0.00436   0.00435   1.82518
   A23        1.94511  -0.00465   0.00000  -0.00522  -0.00522   1.93990
   A24        1.85962   0.00272   0.00000   0.00323   0.00323   1.86284
   A25        1.96143  -0.00175   0.00000  -0.00266  -0.00266   1.95877
   A26        1.91672  -0.00076   0.00000   0.00168   0.00167   1.91839
   A27        1.95307  -0.00042   0.00000  -0.00076  -0.00075   1.95232
   A28        1.91063   0.01137   0.00000   0.00438   0.00437   1.91500
   A29        1.91063   0.01309   0.00000   0.00936   0.00935   1.91999
   A30        1.91063  -0.01806   0.00000  -0.01503  -0.01502   1.89561
   A31        1.91063   0.00347   0.00000  -0.00122  -0.00125   1.90939
   A32        1.91063  -0.00519   0.00000   0.00581   0.00582   1.91645
   A33        1.91063  -0.00468   0.00000  -0.00331  -0.00330   1.90733
    D1        2.27146  -0.00073   0.00000   0.03478   0.03481   2.30627
    D2       -1.69103  -0.00938   0.00000   0.03345   0.03346  -1.65757
    D3        0.22632   0.00417   0.00000   0.03345   0.03344   0.25977
    D4        0.17748   0.00494   0.00000   0.03624   0.03625   0.21373
    D5        2.49818  -0.00370   0.00000   0.03491   0.03490   2.53308
    D6       -1.86765   0.00985   0.00000   0.03491   0.03489  -1.83277
    D7       -1.92500   0.00447   0.00000   0.03726   0.03728  -1.88771
    D8        0.39570  -0.00417   0.00000   0.03594   0.03593   0.43163
    D9        2.31305   0.00938   0.00000   0.03594   0.03592   2.34897
   D10       -0.22159   0.01485   0.00000  -0.00390  -0.00387  -0.22546
   D11       -2.56144  -0.00690   0.00000  -0.00848  -0.00849  -2.56993
   D12        1.85423  -0.00479   0.00000  -0.00914  -0.00916   1.84508
   D13       -0.36892  -0.01105   0.00000  -0.12326  -0.12326  -0.49218
   D14        2.05089  -0.01800   0.00000  -0.12937  -0.12936   1.92153
   D15       -2.34425  -0.01037   0.00000  -0.12091  -0.12092  -2.46517
   D16       -1.72835  -0.01771   0.00000   0.00994   0.00990  -1.71845
   D17        2.54095  -0.02642   0.00000  -0.00034  -0.00032   2.54063
   D18        2.30174   0.00190   0.00000   0.01974   0.01972   2.32147
   D19        0.28786  -0.00682   0.00000   0.00946   0.00950   0.29736
   D20        0.32324   0.02750   0.00000   0.02011   0.02009   0.34332
   D21       -1.69065   0.01878   0.00000   0.00984   0.00986  -1.68078
   D22       -1.05978  -0.00287   0.00000   0.01786   0.01787  -1.04191
   D23       -3.06508  -0.00563   0.00000   0.01301   0.01300  -3.05208
   D24       -3.10453   0.00248   0.00000  -0.00107  -0.00107  -3.10559
   D25       -0.98389   0.00122   0.00000  -0.00440  -0.00440  -0.98829
   D26        1.15121  -0.00031   0.00000  -0.00635  -0.00636   1.14484
   D27       -1.20355   0.00041   0.00000   0.00567   0.00568  -1.19787
   D28        0.91709  -0.00084   0.00000   0.00234   0.00234   0.91943
   D29        3.05218  -0.00238   0.00000   0.00039   0.00038   3.05257
   D30       -0.88190  -0.00967   0.00000   0.05041   0.05038  -0.83153
   D31        1.21249   0.00956   0.00000   0.05733   0.05737   1.26986
   D32       -2.97630   0.00079   0.00000   0.04981   0.04980  -2.92650
   D33        0.76712  -0.00276   0.00000   0.04650   0.04645   0.81357
   D34        2.82795  -0.00065   0.00000   0.04039   0.04044   2.86839
         Item               Value     Threshold  Converged?
 Maximum Force            0.140188     0.000450     NO 
 RMS     Force            0.021673     0.000300     NO 
 Maximum Displacement     0.280752     0.001800     NO 
 RMS     Displacement     0.084172     0.001200     NO 
 Predicted change in Energy=-1.897622D-02
 GradGradGradGradGradGradGradGradGradGradGradGradGradGradGradGradGradGrad

                          Input orientation:                          
 ---------------------------------------------------------------------
 Center     Atomic      Atomic             Coordinates (Angstroms)
 Number     Number       Type             X           Y           Z
 ---------------------------------------------------------------------
      1          6           0        1.592599   -1.441302   -0.901193
      2          1           0        0.942317   -2.332630   -0.846131
      3          1           0        2.611666   -1.791656   -0.676053
      4          1           0        1.594878   -1.114873   -1.955795
      5          6           0        1.130861   -0.349580    0.017099
      6          8           0        2.013267    0.298792    0.853268
      7          1           0        2.895125   -0.146277    0.936420
      8          8           0       -1.976348   -0.612441   -0.334583
      9          1           0       -1.545326    0.052440   -0.969714
     10          8           0        0.245090    0.668867   -0.671352
     11          1           0       -1.089181   -0.714324    0.499121
     12          8           0        0.146848   -0.989825    0.972722
     13          1           0        0.220714   -0.565333    1.870219
     14          6           0       -3.185192   -0.009279    0.250008
     15          1           0       -3.565108   -0.770006    0.945318
     16          1           0       -2.952077    0.931322    0.753756
     17          1           0       -3.897281    0.133582   -0.573723
     18          6           0        0.603658    0.714409   -2.061542
     19          1           0        1.672844    0.785439   -2.158585
     20          1           0        0.258208   -0.172952   -2.559606
     21          1           0        0.139850    1.574633   -2.507169
 ---------------------------------------------------------------------
                    Distance matrix (angstroms):
                    1          2          3          4          5
     1  C    0.000000
     2  H    1.104701   0.000000
     3  H    1.100878   1.763039   0.000000
     4  H    1.103969   1.772039   1.769077   0.000000
     5  C    1.499440   2.170992   2.180098   2.166402   0.000000
     6  O    2.506597   3.310480   2.658360   3.172434   1.377754
     7  H    2.598170   3.430902   2.321140   3.315679   1.999777
     8  O    3.707484   3.426272   4.749423   3.954038   3.138076
     9  H    3.475994   3.448507   4.557138   3.492256   2.880520
    10  O    2.514244   3.086367   3.413924   2.579428   1.515187
    11  H    3.111482   2.924996   4.029633   3.659402   2.300863
    12  O    2.409478   2.396690   3.071924   3.269348   1.513740
    13  H    3.214050   3.320031   3.701894   4.102280   2.075805
    14  C    5.118911   4.861668   6.134984   5.379310   4.335708
    15  H    5.519255   5.095877   6.467236   5.929657   4.805254
    16  H    5.387233   5.327225   6.357216   5.674802   4.342091
    17  H    5.720689   5.438577   6.788476   5.799360   5.085738
    18  C    2.640361   3.297933   3.497433   2.083260   2.393902
    19  H    2.558486   3.461006   3.117805   1.912691   2.513089
    20  H    2.477830   2.840459   3.421511   1.743126   2.726193
    21  H    3.712884   4.320846   4.560127   3.107179   3.325151
                    6          7          8          9         10
     6  O    0.000000
     7  H    0.991299   0.000000
     8  O    4.261263   5.056085   0.000000
     9  H    4.005937   4.836366   1.015499   0.000000
    10  O    2.363868   3.205008   2.586493   1.916922   0.000000
    11  H    3.282836   4.048283   1.221682   1.718566   2.250223
    12  O    2.271195   2.875051   2.521789   2.778997   2.337497
    13  H    2.234759   2.863575   3.112948   3.400846   2.825496
    14  C    5.242405   6.120473   1.472025   2.044674   3.616023
    15  H    5.680587   6.490279   2.046248   2.902289   4.381961
    16  H    5.006460   5.948475   2.125966   2.392014   3.510226
    17  H    6.082613   6.963880   2.074542   2.386438   4.177954
    18  C    3.264331   3.870320   3.376292   2.499684   1.436410
    19  H    3.069849   3.455592   4.312500   3.508179   2.064929
    20  H    3.866586   4.379068   3.183884   2.414807   2.067447
    21  H    4.053393   4.734065   3.739213   2.742381   2.049807
                   11         12         13         14         15
    11  H    0.000000
    12  O    1.352023   0.000000
    13  H    1.902086   0.995565   0.000000
    14  C    2.225401   3.547714   3.812411   0.000000
    15  H    2.516427   3.718559   3.902535   1.098407   0.000000
    16  H    2.498674   3.652682   3.681449   1.092169   1.818521
    17  H    3.123358   4.473088   4.839340   1.098186   1.798414
    18  C    3.385849   3.509964   4.152485   4.496929   5.350075
    19  H    4.116002   3.909643   4.490493   5.480275   6.284088
    20  H    3.385905   3.627261   4.447327   4.447216   5.220987
    21  H    3.973364   4.322746   4.873142   4.600729   5.580655
                   16         17         18         19         20
    16  H    0.000000
    17  H    1.814387   0.000000
    18  C    4.540507   4.775921   0.000000
    19  H    5.467441   5.827779   1.075929   0.000000
    20  H    4.743808   4.615819   1.074622   1.755143   0.000000
    21  H    4.539547   4.702475   1.074098   1.759093   1.752374
                   21
    21  H    0.000000
 Stoichiometry    C4H13O4(1+)
 Framework group  C1[X(C4H13O4)]
 Deg. of freedom    57
 Full point group                 C1      NOp   1
 Largest Abelian subgroup         C1      NOp   1
 Largest concise Abelian subgroup C1      NOp   1
                         Standard orientation:                         
 ---------------------------------------------------------------------
 Center     Atomic      Atomic             Coordinates (Angstroms)
 Number     Number       Type             X           Y           Z
 ---------------------------------------------------------------------
      1          6           0       -1.649454    0.062687    1.282115
      2          1           0       -1.022410   -0.279682    2.124708
      3          1           0       -2.657751   -0.337963    1.468531
      4          1           0       -1.723447    1.160865    1.367416
      5          6           0       -1.087784   -0.354765   -0.044000
      6          8           0       -1.884629   -0.942471   -1.002042
      7          1           0       -2.769767   -1.238381   -0.667912
      8          8           0        1.974535    0.062480    0.499720
      9          1           0        1.515048    0.871574    0.092931
     10          8           0       -0.228962    0.715082   -0.687150
     11          1           0        1.151474   -0.801762    0.238637
     12          8           0       -0.051854   -1.418028    0.252193
     13          1           0       -0.044513   -2.096495   -0.476353
     14          6           0        3.241321   -0.181721   -0.209135
     15          1           0        3.651775   -1.085264    0.261646
     16          1           0        3.074351   -0.313446   -1.280397
     17          1           0        3.891820    0.677845    0.000652
     18          6           0       -0.691785    1.998248   -0.237089
     19          1           0       -1.762820    2.049502   -0.325854
     20          1           0       -0.410911    2.151303    0.788824
     21          1           0       -0.239352    2.758704   -0.845938
 ---------------------------------------------------------------------
 Rotational constants (GHZ):      2.6135851      1.1894108      1.0215739
 Standard basis: 6-31+G(d) (6D, 7F)
 There are   178 symmetry adapted basis functions of A   symmetry.
 Integral buffers will be    262144 words long.
 Raffenetti 2 integral format.
 Two-electron integral symmetry is turned on.
   178 basis functions,   308 primitive gaussians,   178 cartesian basis functions
    34 alpha electrons       34 beta electrons
       nuclear repulsion energy       456.2224334644 Hartrees.
 NAtoms=   21 NActive=   21 NUniq=   21 SFac= 7.50D-01 NAtFMM=   80 NAOKFM=F Big=F
 ------------------------------------------------------------------------------
 Polarizable Continuum Model (PCM)
 =================================
 Model                : C-PCM.
 Atomic radii         : UFF (Universal Force Field).
 Polarization charges : Total charges.
 Charge compensation  : None.
 Solution method      : Matrix inversion.
 Cavity type          : Scaled VdW (van der Waals Surface) (Alpha=1.100).
 Cavity algorithm     : GePol (No added spheres)
                        Default sphere list used, NSphG=   21.
                        Lebedev-Laikov grids with approx.  5.0 points / Ang**2.
                        Smoothing algorithm: Karplus/York (Gamma=1.0000).
                        Polarization charges: spherical gaussians, with
                                              point-specific exponents (IZeta= 3).
                        Self-potential: point-specific (ISelfS= 7).
                        Self-field    : sphere-specific E.n sum rule (ISelfD= 2).
 1st derivatives      : Analytical E(r).r(x)/FMM algorithm (CHGder, D1EAlg=3).
                        Cavity 1st derivative terms included.
 Solvent              : Methanol, Eps=  32.613000 Eps(inf)=   1.765709
 ------------------------------------------------------------------------------
 One-electron integrals computed using PRISM.
 NBasis=   178 RedAO= T  NBF=   178
 NBsUse=   178 1.00D-06 NBFU=   178
 Initial guess read from the read-write file.
 B after Tr=     0.000000    0.000000    0.000000
         Rot=    1.000000    0.000000    0.000000    0.000000 Ang=   0.00 deg.
 Initial guess orbital symmetries:
       Occupied  (A) (A) (A) (A) (A) (A) (A) (A) (A) (A) (A) (A)
                 (A) (A) (A) (A) (A) (A) (A) (A) (A) (A) (A) (A)
                 (A) (A) (A) (A) (A) (A) (A) (A) (A) (A)
       Virtual   (A) (A) (A) (A) (A) (A) (A) (A) (A) (A) (A) (A)
                 (A) (A) (A) (A) (A) (A) (A) (A) (A) (A) (A) (A)
                 (A) (A) (A) (A) (A) (A) (A) (A) (A) (A) (A) (A)
                 (A) (A) (A) (A) (A) (A) (A) (A) (A) (A) (A) (A)
                 (A) (A) (A) (A) (A) (A) (A) (A) (A) (A) (A) (A)
                 (A) (A) (A) (A) (A) (A) (A) (A) (A) (A) (A) (A)
                 (A) (A) (A) (A) (A) (A) (A) (A) (A) (A) (A) (A)
                 (A) (A) (A) (A) (A) (A) (A) (A) (A) (A) (A) (A)
                 (A) (A) (A) (A) (A) (A) (A) (A) (A) (A) (A) (A)
                 (A) (A) (A) (A) (A) (A) (A) (A) (A) (A) (A) (A)
                 (A) (A) (A) (A) (A) (A) (A) (A) (A) (A) (A) (A)
                 (A) (A) (A) (A) (A) (A) (A) (A) (A) (A) (A) (A)
 Harris functional with IExCor= 3102 diagonalized for initial guess.
 ExpMin= 4.38D-02 ExpMax= 5.48D+03 ExpMxC= 8.25D+02 IAcc=2 IRadAn=         0 AccDes= 0.00D+00
 HarFok:  IExCor= 3102 AccDes= 0.00D+00 IRadAn=         0 IDoV= 1
 ScaDFX=  1.000000  1.000000  1.000000  1.000000
 FoFCou: FMM=F IPFlag=           0 FMFlag=      100000 FMFlg1=           0
         NFxFlg=           0 DoJE=T BraDBF=F KetDBF=T FulRan=T
         Omega=  0.000000  0.000000  1.000000  0.000000  0.000000 ICntrl=     500 IOpCl=  0
         NMat0=    1 NMatS0=    1 NMatT0=    0 NMatD0=    1 NMtDS0=    0 NMtDT0=    0
         I1Cent=           4 NGrid=           0.
 Petite list used in FoFCou.
 Requested convergence on RMS density matrix=1.00D-08 within 128 cycles.
 Requested convergence on MAX density matrix=1.00D-06.
 Requested convergence on             energy=1.00D-06.
 No special actions if energy rises.
 Error on total polarization charges =  0.00929
 SCF Done:  E(RX3LYP) =  -460.731032598     A.U. after   11 cycles
             Convg  =    0.3326D-08             -V/T =  2.0095
 D1PCM: C-PCM CHGder 1st derivatives, ID1Alg=3 FixD1E=F DoIter=F DoCFld=F I1PDM=0.
 Calling FoFJK, ICntrl=      2127 FMM=F ISym2X=0 I1Cent= 0 IOpClX= 0 NMat=1 NMatS=1 NMatT=0.
 ***** Axes restored to original set *****
 -------------------------------------------------------------------
 Center     Atomic                   Forces (Hartrees/Bohr)
 Number     Number              X              Y              Z
 -------------------------------------------------------------------
      1        6           0.015075372   -0.020701422   -0.015643353
      2        1           0.001339590    0.009370234    0.002769437
      3        1          -0.004019016    0.004141515    0.003392459
      4        1           0.007314753   -0.011561547    0.016399062
      5        6          -0.039023023    0.015204082    0.024258210
      6        8           0.010668551   -0.001040003   -0.015273783
      7        1          -0.016665297    0.004045961   -0.005704990
      8        8           0.020605330    0.021756096    0.011359379
      9        1          -0.009437935   -0.018330904    0.020541842
     10        8           0.040332837   -0.028673733    0.012440471
     11        1          -0.004014179   -0.009937883   -0.023317063
     12        8          -0.014043192    0.015528115    0.002292267
     13        1           0.004082782   -0.004205184   -0.015436081
     14        6          -0.009419376   -0.010425930   -0.003617711
     15        1           0.001233262    0.006618538   -0.002299029
     16        1           0.001166277   -0.001620814   -0.000816738
     17        1           0.003472846    0.000696495    0.005003209
     18        6          -0.004226358    0.014984060    0.000020122
     19        1           0.009897329    0.007011652   -0.005349615
     20        1          -0.007737749   -0.004705905   -0.010585233
     21        1          -0.006602804    0.011846576   -0.000432863
 -------------------------------------------------------------------
 Cartesian Forces:  Max     0.040332837 RMS     0.013491978

 GradGradGradGradGradGradGradGradGradGradGradGradGradGradGradGradGradGrad
 Berny optimization.
 Internal  Forces:  Max     0.105233554 RMS     0.016467193
 Search for a saddle point.
 Step number   2 out of a maximum of   50
 All quantities printed in internal units (Hartrees-Bohrs-Radians)
 Swaping is turned off.
 Update second derivatives using D2CorX and points    1    2
     Eigenvalues ---   -0.04420  -0.01863  -0.00649  -0.00498  -0.00230
     Eigenvalues ---    0.00028   0.00229   0.00795   0.01374   0.02154
     Eigenvalues ---    0.03512   0.04053   0.04341   0.04608   0.06183
     Eigenvalues ---    0.06254   0.06473   0.07374   0.07978   0.09437
     Eigenvalues ---    0.09522   0.10561   0.11283   0.11994   0.12057
     Eigenvalues ---    0.12667   0.13415   0.13678   0.13799   0.14042
     Eigenvalues ---    0.14995   0.15498   0.16035   0.17885   0.18929
     Eigenvalues ---    0.19079   0.19620   0.20413   0.21633   0.30903
     Eigenvalues ---    0.31828   0.32369   0.32998   0.33071   0.33250
     Eigenvalues ---    0.33614   0.33845   0.35232   0.36177   0.38967
     Eigenvalues ---    0.39322   0.40223   0.40435   0.41402   0.41887
     Eigenvalues ---    0.98539   1.393501000.000001000.000001000.00000
     Eigenvalues --- 1000.000001000.000001000.000001000.000001000.00000
     Eigenvalues --- 1000.000001000.000001000.000001000.000001000.00000
     Eigenvalues --- 1000.000001000.000001000.000001000.000001000.00000
     Eigenvalues --- 1000.000001000.000001000.000001000.000001000.00000
     Eigenvalues --- 1000.000001000.000001000.000001000.000001000.00000
     Eigenvalues --- 1000.000001000.00000
 Eigenvectors required to have negative eigenvalues:
                          R13       R10       A18       R6        D14
   1                    0.66835  -0.58691  -0.20074   0.15632  -0.14055
                          R7        A14       D15       D13       D11
   1                   -0.13803  -0.11849  -0.09570  -0.07998   0.07091
 RFO step:  Lambda0=6.695549718D-05 Lambda=-5.00468631D-02.
 Linear search not attempted -- option 19 set.
 Maximum step size (   0.300) exceeded in Quadratic search.
    -- Step size scaled by   0.278
 Iteration  1 RMS(Cart)=  0.08072641 RMS(Int)=  0.00636543
 Iteration  2 RMS(Cart)=  0.01072536 RMS(Int)=  0.00012479
 Iteration  3 RMS(Cart)=  0.00017736 RMS(Int)=  0.00005863
 Iteration  4 RMS(Cart)=  0.00000003 RMS(Int)=  0.00005863
 Variable       Old X    -DE/DX   Delta X   Delta X   Delta X     New X
                                 (Linear)    (Quad)   (Total)
    R1        2.08758  -0.00821   0.00000  -0.00656  -0.00656   2.08102
    R2        2.08036  -0.00435   0.00000  -0.00373  -0.00373   2.07663
    R3        2.08620  -0.01906   0.00000  -0.00750  -0.00750   2.07869
    R4        2.83353   0.01550   0.00000   0.01535   0.01535   2.84888
    R5        2.60358  -0.01517   0.00000   0.00547   0.00547   2.60905
    R6        2.86329  -0.01643   0.00000  -0.10651  -0.10651   2.75678
    R7        2.86055   0.00012   0.00000  -0.00976  -0.00976   2.85080
    R8        1.87328  -0.01711   0.00000  -0.01152  -0.01152   1.86176
    R9        1.91902  -0.02885   0.00000  -0.02447  -0.02447   1.89454
   R10        2.30864  -0.02622   0.00000  -0.07643  -0.07643   2.23222
   R11        2.78172   0.00029   0.00000   0.00371   0.00371   2.78544
   R12        2.71442   0.01456   0.00000   0.00515   0.00515   2.71958
   R13        2.55495  -0.00797   0.00000   0.01098   0.01098   2.56593
   R14        1.88135  -0.01542   0.00000  -0.01029  -0.01029   1.87105
   R15        2.07569  -0.00647   0.00000  -0.00551  -0.00551   2.07018
   R16        2.06390  -0.00152   0.00000  -0.00165  -0.00165   2.06225
   R17        2.07527  -0.00591   0.00000  -0.00533  -0.00533   2.06994
   R18        2.03321   0.01079   0.00000   0.00696   0.00696   2.04017
   R19        2.03074   0.01127   0.00000   0.00877   0.00877   2.03951
   R20        2.02975   0.01252   0.00000   0.00697   0.00697   2.03672
    A1        1.85244   0.00618   0.00000   0.00697   0.00690   1.85934
    A2        1.86231  -0.00072   0.00000   0.00588   0.00589   1.86821
    A3        1.95591  -0.00825   0.00000  -0.00845  -0.00848   1.94743
    A4        1.86247  -0.00326   0.00000   0.00234   0.00235   1.86482
    A5        1.97308  -0.00884   0.00000  -0.01041  -0.01043   1.96265
    A6        1.95022   0.01505   0.00000   0.00504   0.00505   1.95527
    A7        2.11425  -0.01330   0.00000  -0.02707  -0.02702   2.08723
    A8        1.97267   0.03459   0.00000   0.02444   0.02437   1.99704
    A9        1.85339  -0.01230   0.00000  -0.00277  -0.00295   1.85045
   A10        1.91119  -0.02093   0.00000  -0.00841  -0.00836   1.90282
   A11        1.80518   0.01151   0.00000   0.00952   0.00945   1.81463
   A12        1.76310   0.00119   0.00000   0.01013   0.01004   1.77314
   A13        1.99257  -0.01075   0.00000  -0.01372  -0.01372   1.97885
   A14        1.74486  -0.00483   0.00000   0.02295   0.02279   1.76766
   A15        1.90568   0.00193   0.00000   0.00808   0.00791   1.91360
   A16        1.93854   0.00746   0.00000   0.00571   0.00562   1.94415
   A17        1.89139   0.10523   0.00000   0.05066   0.05066   1.94205
   A18        2.73868   0.02777   0.00000   0.08472   0.08472   2.82340
   A19        1.86185   0.04569   0.00000   0.00473   0.00473   1.86658
   A20        1.91829  -0.01422   0.00000  -0.00379  -0.00379   1.91450
   A21        1.87206  -0.00954   0.00000  -0.00075  -0.00074   1.87132
   A22        1.82518   0.00430   0.00000   0.00301   0.00301   1.82819
   A23        1.93990  -0.00386   0.00000  -0.00685  -0.00685   1.93304
   A24        1.86284   0.00210   0.00000  -0.00072  -0.00073   1.86212
   A25        1.95877  -0.00136   0.00000  -0.00003  -0.00003   1.95874
   A26        1.91839  -0.00045   0.00000   0.00309   0.00309   1.92148
   A27        1.95232  -0.00031   0.00000   0.00152   0.00151   1.95383
   A28        1.91500   0.00864   0.00000   0.00684   0.00682   1.92182
   A29        1.91999   0.00925   0.00000   0.00525   0.00524   1.92523
   A30        1.89561  -0.01388   0.00000  -0.01528  -0.01528   1.88033
   A31        1.90939   0.00279   0.00000   0.00171   0.00167   1.91106
   A32        1.91645  -0.00389   0.00000  -0.00451  -0.00452   1.91193
   A33        1.90733  -0.00305   0.00000   0.00588   0.00589   1.91322
    D1        2.30627  -0.00003   0.00000  -0.01248  -0.01238   2.29389
    D2       -1.65757  -0.00723   0.00000  -0.02731  -0.02736  -1.68493
    D3        0.25977   0.00332   0.00000  -0.00559  -0.00559   0.25418
    D4        0.21373   0.00420   0.00000  -0.00800  -0.00794   0.20580
    D5        2.53308  -0.00299   0.00000  -0.02283  -0.02292   2.51016
    D6       -1.83277   0.00756   0.00000  -0.00111  -0.00115  -1.83392
    D7       -1.88771   0.00379   0.00000  -0.00729  -0.00721  -1.89492
    D8        0.43163  -0.00340   0.00000  -0.02212  -0.02218   0.40945
    D9        2.34897   0.00715   0.00000  -0.00040  -0.00042   2.34855
   D10       -0.22546   0.01067   0.00000  -0.01079  -0.01062  -0.23608
   D11       -2.56993  -0.00513   0.00000  -0.01038  -0.01055  -2.58048
   D12        1.84508  -0.00407   0.00000  -0.02293  -0.02293   1.82214
   D13       -0.49218  -0.00980   0.00000   0.10146   0.10159  -0.39059
   D14        1.92153  -0.01630   0.00000   0.07727   0.07728   1.99882
   D15       -2.46517  -0.00981   0.00000   0.08955   0.08940  -2.37576
   D16       -1.71845  -0.01381   0.00000  -0.02478  -0.02479  -1.74324
   D17        2.54063  -0.02039   0.00000  -0.02456  -0.02457   2.51606
   D18        2.32147   0.00191   0.00000   0.00307   0.00313   2.32460
   D19        0.29736  -0.00467   0.00000   0.00329   0.00335   0.30071
   D20        0.34332   0.02038   0.00000   0.00563   0.00557   0.34890
   D21       -1.68078   0.01380   0.00000   0.00585   0.00580  -1.67499
   D22       -1.04191  -0.00209   0.00000   0.00088   0.00099  -1.04093
   D23       -3.05208  -0.00463   0.00000  -0.02210  -0.02221  -3.07428
   D24       -3.10559   0.00170   0.00000  -0.01386  -0.01388  -3.11948
   D25       -0.98829   0.00061   0.00000  -0.01575  -0.01579  -1.00408
   D26        1.14484  -0.00072   0.00000  -0.01845  -0.01847   1.12637
   D27       -1.19787   0.00077   0.00000   0.02048   0.02051  -1.17736
   D28        0.91943  -0.00032   0.00000   0.01859   0.01861   0.93804
   D29        3.05257  -0.00165   0.00000   0.01589   0.01592   3.06849
   D30       -0.83153  -0.00656   0.00000  -0.05641  -0.05643  -0.88796
   D31        1.26986   0.00817   0.00000  -0.04666  -0.04662   1.22324
   D32       -2.92650   0.00148   0.00000  -0.04569  -0.04570  -2.97219
   D33        0.81357  -0.00261   0.00000  -0.09893  -0.09893   0.71464
   D34        2.86839  -0.00067   0.00000  -0.10131  -0.10130   2.76708
         Item               Value     Threshold  Converged?
 Maximum Force            0.105234     0.000450     NO 
 RMS     Force            0.016467     0.000300     NO 
 Maximum Displacement     0.330348     0.001800     NO 
 RMS     Displacement     0.089002     0.001200     NO 
 Predicted change in Energy=-1.329398D-02
 GradGradGradGradGradGradGradGradGradGradGradGradGradGradGradGradGradGrad

                          Input orientation:                          
 ---------------------------------------------------------------------
 Center     Atomic      Atomic             Coordinates (Angstroms)
 Number     Number       Type             X           Y           Z
 ---------------------------------------------------------------------
      1          6           0        1.645512   -1.447687   -0.883114
      2          1           0        0.994892   -2.335025   -0.838084
      3          1           0        2.651918   -1.782974   -0.596203
      4          1           0        1.700271   -1.141328   -1.938169
      5          6           0        1.133824   -0.339486    0.001656
      6          8           0        2.000690    0.296858    0.867566
      7          1           0        2.856455   -0.177497    0.982803
      8          8           0       -1.991468   -0.505729   -0.374977
      9          1           0       -1.611059    0.227253   -0.943423
     10          8           0        0.331762    0.663359   -0.690562
     11          1           0       -1.111762   -0.682509    0.393263
     12          8           0        0.109666   -0.971925    0.911011
     13          1           0        0.154992   -0.552934    1.806962
     14          6           0       -3.209027   -0.025660    0.303055
     15          1           0       -3.540893   -0.872834    0.913185
     16          1           0       -2.993021    0.857860    0.906101
     17          1           0       -3.944156    0.183897   -0.481477
     18          6           0        0.619231    0.679468   -2.100605
     19          1           0        1.684503    0.749144   -2.261527
     20          1           0        0.241850   -0.216075   -2.570067
     21          1           0        0.133230    1.542830   -2.524910
 ---------------------------------------------------------------------
                    Distance matrix (angstroms):
                    1          2          3          4          5
     1  C    0.000000
     2  H    1.101228   0.000000
     3  H    1.098903   1.763236   0.000000
     4  H    1.099997   1.769932   1.765846   0.000000
     5  C    1.507565   2.169480   2.178464   2.174105   0.000000
     6  O    2.496891   3.293582   2.625341   3.167140   1.380648
     7  H    2.561525   3.381712   2.261118   3.286002   1.989057
     8  O    3.791188   3.532582   4.820925   4.059124   3.152290
     9  H    3.662555   3.656138   4.725944   3.718527   2.957828
    10  O    2.493898   3.074380   3.372917   2.585776   1.458824
    11  H    3.133240   2.947035   4.044175   3.681524   2.305141
    12  O    2.409160   2.387677   3.064725   3.267498   1.508576
    13  H    3.202926   3.298113   3.677341   4.093910   2.064655
    14  C    5.195739   4.930345   6.184456   5.510808   4.364594
    15  H    5.518690   5.077233   6.438751   5.972613   4.792528
    16  H    5.480221   5.398161   6.410636   5.840686   4.391185
    17  H    5.836759   5.555748   6.884034   5.978104   5.127692
    18  C    2.657127   3.289719   3.529683   2.123754   2.392190
    19  H    2.593764   3.466101   3.181323   1.917993   2.571062
    20  H    2.516534   2.838448   3.487081   1.839125   2.724814
    21  H    3.731713   4.315739   4.596158   3.163003   3.305728
                    6          7          8          9         10
     6  O    0.000000
     7  H    0.985203   0.000000
     8  O    4.257391   5.045162   0.000000
     9  H    4.040947   4.881890   1.002549   0.000000
    10  O    2.312446   3.143448   2.619877   2.007157   0.000000
[...]
      9          1           0       -1.957307    0.090352   -0.934099
     10          8           0        0.319074    0.462656   -1.018286
     11          1           0       -1.249132   -0.677915    0.304973
     12          8           0        0.065097   -0.760702    0.840829
     13          1           0        0.154654   -0.115095    1.568542
     14          6           0       -3.324918   -0.175770    0.590327
     15          1           0       -3.316435   -0.849755    1.443695
     16          1           0       -3.216734    0.863837    0.896074
     17          1           0       -4.207293   -0.331991   -0.025698
     18          6           0        1.004757    0.945846   -2.188332
     19          1           0        1.985660    1.346310   -1.918914
     20          1           0        1.106824    0.152099   -2.934290
     21          1           0        0.376370    1.742383   -2.586897
 ---------------------------------------------------------------------
                    Distance matrix (angstroms):
                    1          2          3          4          5
     1  C    0.000000
     2  H    1.092812   0.000000
     3  H    1.093582   1.776353   0.000000
     4  H    1.092637   1.778872   1.779481   0.000000
     5  C    1.519354   2.154549   2.152294   2.157168   0.000000
     6  O    2.444778   3.367060   2.745153   2.711434   1.389610
     7  H    2.450667   3.503758   2.409351   2.616121   1.956006
     8  O    3.889239   3.445449   4.466759   4.733575   3.208066
     9  H    3.897296   3.498971   4.667459   4.563734   3.128444
    10  O    2.460013   2.684618   3.375791   2.808985   1.399950
    11  H    3.153923   2.940372   3.612582   4.082570   2.356544
    12  O    2.402039   2.667767   2.620377   3.360576   1.457826
    13  H    3.178039   3.599982   3.300809   4.035426   1.980304
    14  C    5.264770   4.870463   5.725736   6.151931   4.437634
    15  H    5.406613   5.041871   5.665050   6.395885   4.671051
    16  H    5.644580   5.420771   6.146522   6.467144   4.567831
    17  H    5.933377   5.381998   6.459072   6.771153   5.249647
    18  C    2.995760   3.256456   4.021262   2.794203   2.415665
    19  H    3.248097   3.806421   4.131482   2.845171   2.637329
    20  H    2.812259   2.860293   3.882675   2.412978   2.808804
    21  H    4.007551   4.127715   5.045055   3.863226   3.287395
                    6          7          8          9         10
     6  O    0.000000
     7  H    0.972178   0.000000
     8  O    4.359157   5.049156   0.000000
     9  H    4.239328   5.025258   0.980684   0.000000
    10  O    2.259742   3.077600   2.798977   2.308161   0.000000
    11  H    3.453017   4.082099   1.067808   1.620816   2.347592
    12  O    2.304295   2.781973   2.482343   2.822194   2.239960
    13  H    2.255609   2.788614   2.971507   3.281128   2.655657
    14  C    5.400517   6.118429   1.477284   2.065201   4.034092
    15  H    5.587656   6.187663   2.056246   2.895675   4.582651
    16  H    5.312152   6.113852   2.105417   2.352439   4.040749
    17  H    6.308312   7.035307   2.067781   2.462926   4.701563
    18  C    2.884113   3.576064   4.017229   3.328482   1.439667
    19  H    2.557549   3.143788   4.868979   4.253737   2.090331
    20  H    3.499082   4.000936   4.300711   3.659710   2.094771
    21  H    3.724882   4.515786   4.160506   3.302574   2.025222
                   11         12         13         14         15
    11  H    0.000000
    12  O    1.421687   0.000000
    13  H    1.970784   0.976932   0.000000
    14  C    2.154637   3.449217   3.614970   0.000000
    15  H    2.366423   3.436005   3.550179   1.087457   0.000000
    16  H    2.568629   3.662321   3.574462   1.089022   1.801729
    17  H    2.996619   4.380409   4.649218   1.087418   1.794665
    18  C    3.732718   3.601539   3.995294   5.265458   5.923554
    19  H    4.416677   3.967901   4.201266   6.067557   6.651469
    20  H    4.090511   4.021185   4.610154   5.671927   6.303624
    21  H    4.106460   4.255777   4.557089   5.241526   6.049930
                   16         17         18         19         20
    16  H    0.000000
    17  H    1.805790   0.000000
    18  C    5.228888   5.785786   0.000000
    19  H    5.934799   6.689815   1.093219   0.000000
    20  H    5.819915   6.077343   1.094032   1.797075   0.000000
    21  H    5.080681   5.645595   1.090044   1.786866   1.784166
                   21
    21  H    0.000000
 Stoichiometry    C4H13O4(1+)
 Framework group  C1[X(C4H13O4)]
 Deg. of freedom    57
 Full point group                 C1      NOp   1
 Largest Abelian subgroup         C1      NOp   1
 Largest concise Abelian subgroup C1      NOp   1
                         Standard orientation:                         
 ---------------------------------------------------------------------
 Center     Atomic      Atomic             Coordinates (Angstroms)
 Number     Number       Type             X           Y           Z
 ---------------------------------------------------------------------
      1          6           0       -1.520703   -0.712348    1.340469
      2          1           0       -0.808223   -0.399762    2.107867
      3          1           0       -1.710547   -1.783289    1.454342
      4          1           0       -2.457579   -0.168458    1.482961
      5          6           0       -0.954409   -0.433029   -0.041460
      6          8           0       -1.814355   -0.748857   -1.086334
      7          1           0       -2.452912   -1.427864   -0.810065
      8          8           0        2.143972    0.238020    0.449886
      9          1           0        1.747698    1.114626    0.259438
     10          8           0       -0.494392    0.875119   -0.233791
     11          1           0        1.393321   -0.463834    0.159820
     12          8           0        0.252859   -1.236119   -0.192479
     13          1           0        0.316142   -1.488089   -1.134234
     14          6           0        3.453969    0.048329   -0.206080
     15          1           0        3.680355   -1.010560   -0.105740
     16          1           0        3.380702    0.348141   -1.250453
     17          1           0        4.166190    0.657004    0.345946
     18          6           0       -1.462616    1.928363   -0.072983
     19          1           0       -2.364419    1.710667   -0.651333
     20          1           0       -1.709993    2.070691    0.983167
     21          1           0       -0.982844    2.827536   -0.459638
 ---------------------------------------------------------------------
 Rotational constants (GHZ):      2.7277555      1.0716659      0.9402550

 **********************************************************************

            Population analysis using the SCF density.

 **********************************************************************

 Orbital symmetries:
       Occupied  (A) (A) (A) (A) (A) (A) (A) (A) (A) (A) (A) (A)
                 (A) (A) (A) (A) (A) (A) (A) (A) (A) (A) (A) (A)
                 (A) (A) (A) (A) (A) (A) (A) (A) (A) (A)
       Virtual   (A) (A) (A) (A) (A) (A) (A) (A) (A) (A) (A) (A)
                 (A) (A) (A) (A) (A) (A) (A) (A) (A) (A) (A) (A)
                 (A) (A) (A) (A) (A) (A) (A) (A) (A) (A) (A) (A)
                 (A) (A) (A) (A) (A) (A) (A) (A) (A) (A) (A) (A)
                 (A) (A) (A) (A) (A) (A) (A) (A) (A) (A) (A) (A)
                 (A) (A) (A) (A) (A) (A) (A) (A) (A) (A) (A) (A)
                 (A) (A) (A) (A) (A) (A) (A) (A) (A) (A) (A) (A)
                 (A) (A) (A) (A) (A) (A) (A) (A) (A) (A) (A) (A)
                 (A) (A) (A) (A) (A) (A) (A) (A) (A) (A) (A) (A)
                 (A) (A) (A) (A) (A) (A) (A) (A) (A) (A) (A) (A)
                 (A) (A) (A) (A) (A) (A) (A) (A) (A) (A) (A) (A)
                 (A) (A) (A) (A) (A) (A) (A) (A) (A) (A) (A) (A)
 The electronic state is 1-A.
 Alpha  occ. eigenvalues --  -19.31591 -19.26191 -19.23733 -19.23198 -10.40981
 Alpha  occ. eigenvalues --  -10.30347 -10.27011 -10.22951  -1.16525  -1.14826
 Alpha  occ. eigenvalues --   -1.06636  -1.05815  -0.78831  -0.76589  -0.73575
 Alpha  occ. eigenvalues --   -0.65676  -0.63972  -0.61058  -0.57462  -0.54901
 Alpha  occ. eigenvalues --   -0.52327  -0.50927  -0.49244  -0.46897  -0.45911
 Alpha  occ. eigenvalues --   -0.44250  -0.43570  -0.42446  -0.40612  -0.39419
 Alpha  occ. eigenvalues --   -0.37832  -0.36703  -0.35130  -0.31506
 Alpha virt. eigenvalues --   -0.02164   0.00476   0.01262   0.01967   0.02659
 Alpha virt. eigenvalues --    0.03252   0.04400   0.05575   0.06156   0.06428
 Alpha virt. eigenvalues --    0.07117   0.07706   0.08401   0.09838   0.10301
 Alpha virt. eigenvalues --    0.11688   0.12266   0.13182   0.14868   0.15030
 Alpha virt. eigenvalues --    0.15848   0.15998   0.16486   0.17385   0.18548
 Alpha virt. eigenvalues --    0.19301   0.19733   0.19895   0.21901   0.23048
 Alpha virt. eigenvalues --    0.23270   0.23520   0.24070   0.24562   0.26130
 Alpha virt. eigenvalues --    0.26884   0.27643   0.28002   0.29348   0.29720
 Alpha virt. eigenvalues --    0.29993   0.31675   0.33264   0.34529   0.35418
 Alpha virt. eigenvalues --    0.36447   0.37263   0.37498   0.41193   0.43307
 Alpha virt. eigenvalues --    0.44730   0.60522   0.62640   0.63945   0.65119
 Alpha virt. eigenvalues --    0.67318   0.68073   0.70533   0.73511   0.76245
 Alpha virt. eigenvalues --    0.76945   0.79101   0.85214   0.87674   0.91650
 Alpha virt. eigenvalues --    0.92359   0.94274   0.98425   0.99188   1.03370
 Alpha virt. eigenvalues --    1.03650   1.04888   1.05546   1.06582   1.08264
 Alpha virt. eigenvalues --    1.10276   1.11798   1.13064   1.13406   1.14617
 Alpha virt. eigenvalues --    1.18235   1.19957   1.23519   1.26682   1.28023
 Alpha virt. eigenvalues --    1.30100   1.32100   1.33156   1.37851   1.41299
 Alpha virt. eigenvalues --    1.45328   1.46336   1.48643   1.50447   1.51352
 Alpha virt. eigenvalues --    1.52739   1.55182   1.60368   1.65642   1.71387
 Alpha virt. eigenvalues --    1.73030   1.76284   1.78070   1.79729   1.82010
 Alpha virt. eigenvalues --    1.87871   1.88818   1.94116   1.95556   1.98786
 Alpha virt. eigenvalues --    2.03979   2.05173   2.07512   2.09957   2.15090
 Alpha virt. eigenvalues --    2.19202   2.22375   2.24818   2.26377   2.26805
 Alpha virt. eigenvalues --    2.27062   2.27777   2.34624   2.37801   2.39374
 Alpha virt. eigenvalues --    2.48862   2.53660   2.60654   2.62018   2.72172
 Alpha virt. eigenvalues --    2.75911   2.78714   2.83795   2.89370   2.98294
 Alpha virt. eigenvalues --    3.01918   4.07992   4.17888   4.22029   4.25832
 Alpha virt. eigenvalues --    4.28614   4.35290   4.48857   4.62117
          Condensed to atoms (all electrons):
              1          2          3          4          5          6
     1  C    6.130775   0.400247   0.410829   0.377498  -0.570391  -0.106908
     2  H    0.400247   0.450419  -0.021589  -0.023219  -0.065799   0.008057
     3  H    0.410829  -0.021589   0.456194  -0.023497  -0.075524  -0.004290
     4  H    0.377498  -0.023219  -0.023497   0.458103  -0.035627  -0.002552
     5  C   -0.570391  -0.065799  -0.075524  -0.035627   6.097078   0.290418
     6  O   -0.106908   0.008057  -0.004290  -0.002552   0.290418   8.451666
     7  H    0.011309   0.000139   0.001288  -0.000761  -0.010933   0.186504
     8  O    0.040941   0.000851   0.000118   0.000061  -0.129744   0.003200
     9  H   -0.005701  -0.000046  -0.000004   0.000003   0.012942  -0.000037
    10  O   -0.158313  -0.000385   0.009232  -0.005045   0.272075  -0.088338
    11  H   -0.014500  -0.000373   0.000033  -0.000001   0.022265   0.000851
    12  O    0.019423  -0.001280  -0.000327   0.005459   0.016063  -0.086919
    13  H   -0.013694  -0.000042  -0.000074  -0.000128   0.039197   0.004850
    14  C   -0.006302  -0.000157   0.000078   0.000001   0.008005  -0.000160
    15  H   -0.000165   0.000000   0.000000   0.000000  -0.000830   0.000010
    16  H   -0.001325   0.000000   0.000000   0.000000   0.003190  -0.000025
    17  H    0.000726   0.000000   0.000000   0.000000  -0.001692   0.000001
    18  C    0.046873   0.000639   0.001189  -0.000097  -0.217469  -0.006162
    19  H    0.002557   0.000075   0.000021   0.000080  -0.037244   0.017804
    20  H    0.004267   0.000248  -0.000062  -0.000847  -0.003763  -0.003949
    21  H   -0.005001  -0.000031   0.000001   0.000091   0.015606  -0.000424
              7          8          9         10         11         12
     1  C    0.011309   0.040941  -0.005701  -0.158313  -0.014500   0.019423
     2  H    0.000139   0.000851  -0.000046  -0.000385  -0.000373  -0.001280
     3  H    0.001288   0.000118  -0.000004   0.009232   0.000033  -0.000327
     4  H   -0.000761   0.000061   0.000003  -0.005045  -0.000001   0.005459
     5  C   -0.010933  -0.129744   0.012942   0.272075   0.022265   0.016063
     6  O    0.186504   0.003200  -0.000037  -0.088338   0.000851  -0.086919
     7  H    0.291624   0.000109  -0.000004   0.008963  -0.000063  -0.000878
     8  O    0.000109   8.654550   0.186255  -0.008791   0.045850   0.000980
     9  H   -0.000004   0.186255   0.212894   0.016299  -0.001788  -0.005061
    10  O    0.008963  -0.008791   0.016299   8.536105   0.006309  -0.170379
    11  H   -0.000063   0.045850  -0.001788   0.006309   0.196438   0.097731
    12  O   -0.000878   0.000980  -0.005061  -0.170379   0.097731   8.734118
    13  H   -0.000702  -0.001808   0.000132  -0.007187  -0.005926   0.187342
    14  C    0.000038   0.046321  -0.010566   0.001853  -0.002316  -0.000336
    15  H    0.000000  -0.035935   0.002959   0.000146  -0.001536   0.000581
    16  H    0.000000  -0.049900  -0.001842   0.000193  -0.000234  -0.000440
    17  H    0.000000  -0.033194  -0.002178   0.000132   0.001602  -0.000166
    18  C   -0.000599   0.014154  -0.001390   0.108907  -0.001435   0.012761
    19  H   -0.001012  -0.000202   0.000030  -0.047590   0.000018  -0.000819
    20  H    0.000141   0.000412  -0.000005  -0.043582  -0.000060   0.000551
    21  H    0.000010  -0.000177  -0.000013  -0.051140   0.000020  -0.001196
             13         14         15         16         17         18
     1  C   -0.013694  -0.006302  -0.000165  -0.001325   0.000726   0.046873
     2  H   -0.000042  -0.000157   0.000000   0.000000   0.000000   0.000639
     3  H   -0.000074   0.000078   0.000000   0.000000   0.000000   0.001189
     4  H   -0.000128   0.000001   0.000000   0.000000   0.000000  -0.000097
     5  C    0.039197   0.008005  -0.000830   0.003190  -0.001692  -0.217469
     6  O    0.004850  -0.000160   0.000010  -0.000025   0.000001  -0.006162
     7  H   -0.000702   0.000038   0.000000   0.000000   0.000000  -0.000599
     8  O   -0.001808   0.046321  -0.035935  -0.049900  -0.033194   0.014154
     9  H    0.000132  -0.010566   0.002959  -0.001842  -0.002178  -0.001390
    10  O   -0.007187   0.001853   0.000146   0.000193   0.000132   0.108907
    11  H   -0.005926  -0.002316  -0.001536  -0.000234   0.001602  -0.001435
    12  O    0.187342  -0.000336   0.000581  -0.000440  -0.000166   0.012761
    13  H    0.231842  -0.000918   0.000002   0.000109  -0.000001  -0.001670
    14  C   -0.000918   5.160354   0.389771   0.391360   0.387764  -0.002248
    15  H    0.000002   0.389771   0.434137  -0.023764  -0.020496   0.000092
    16  H    0.000109   0.391360  -0.023764   0.452175  -0.025300  -0.000243
    17  H   -0.000001   0.387764  -0.020496  -0.025300   0.437883   0.000098
    18  C   -0.001670  -0.002248   0.000092  -0.000243   0.000098   5.248150
    19  H    0.000007   0.000081   0.000000   0.000000   0.000000   0.409647
    20  H   -0.000007  -0.000035   0.000000   0.000000   0.000000   0.386864
    21  H    0.000008  -0.000186   0.000000   0.000000   0.000000   0.392961
             19         20         21
     1  C    0.002557   0.004267  -0.005001
     2  H    0.000075   0.000248  -0.000031
     3  H    0.000021  -0.000062   0.000001
     4  H    0.000080  -0.000847   0.000091
     5  C   -0.037244  -0.003763   0.015606
     6  O    0.017804  -0.003949  -0.000424
     7  H   -0.001012   0.000141   0.000010
     8  O   -0.000202   0.000412  -0.000177
     9  H    0.000030  -0.000005  -0.000013
    10  O   -0.047590  -0.043582  -0.051140
    11  H    0.000018  -0.000060   0.000020
    12  O   -0.000819   0.000551  -0.001196
    13  H    0.000007  -0.000007   0.000008
    14  C    0.000081  -0.000035  -0.000186
    15  H    0.000000   0.000000   0.000000
    16  H    0.000000   0.000000   0.000000
    17  H    0.000000   0.000000   0.000000
    18  C    0.409647   0.386864   0.392961
    19  H    0.484798  -0.035769  -0.023030
    20  H   -0.035769   0.502257  -0.027787
    21  H   -0.023030  -0.027787   0.475968
 Mulliken atomic charges:
              1
     1  C   -0.563146
     2  H    0.252244
     3  H    0.246384
     4  H    0.250480
     5  C    0.372175
     6  O   -0.663599
     7  H    0.514829
     8  O   -0.734051
     9  H    0.597122
    10  O   -0.379465
    11  H    0.657115
    12  O   -0.807211
    13  H    0.568667
    14  C   -0.362404
    15  H    0.255028
    16  H    0.256043
    17  H    0.254820
    18  C   -0.391023
    19  H    0.230549
    20  H    0.221125
    21  H    0.224317
 Sum of Mulliken atomic charges =   1.00000
 Mulliken charges with hydrogens summed into heavy atoms:
              1
     1  C    0.185962
     5  C    0.372175
     6  O   -0.148770
     8  O    0.520187
    10  O   -0.379465
    12  O   -0.238544
    14  C    0.403487
    18  C    0.284968
 Sum of Mulliken charges with hydrogens summed into heavy atoms =   1.00000
 Electronic spatial extent (au):  <R**2>=           1341.7778
 Charge=              1.0000 electrons
 Dipole moment (field-independent basis, Debye):
    X=              4.2823    Y=             -0.0326    Z=              0.1374  Tot=              4.2846
 Quadrupole moment (field-independent basis, Debye-Ang):
   XX=            -15.5480   YY=            -38.1843   ZZ=            -48.3514
   XY=              3.9964   XZ=             -5.5487   YZ=              2.7459
 Traceless Quadrupole moment (field-independent basis, Debye-Ang):
   XX=             18.4799   YY=             -4.1564   ZZ=            -14.3235
   XY=              3.9964   XZ=             -5.5487   YZ=              2.7459
 Octapole moment (field-independent basis, Debye-Ang**2):
  XXX=             66.9477  YYY=              3.5968  ZZZ=             -1.3490  XYY=             -4.9844
  XXY=             -5.0804  XXZ=             -4.7628  XZZ=              4.9293  YZZ=             -4.2326
  YYZ=             -6.5569  XYZ=              0.8800
 Hexadecapole moment (field-independent basis, Debye-Ang**3):
 XXXX=           -740.2748 YYYY=           -332.7074 ZZZZ=           -209.5013 XXXY=             45.3414
 XXXZ=             -3.2655 YYYX=             13.4785 YYYZ=             11.2667 ZZZX=             -6.8148
 ZZZY=              7.9653 XXYY=           -192.9864 XXZZ=           -215.3455 YYZZ=            -89.4742
 XXYZ=             10.2897 YYXZ=              6.6572 ZZXY=              2.4376
 N-N= 4.526645620696D+02 E-N=-1.971579242129D+03  KE= 4.566472310733D+02


 I DON'T EXACTLY UNDERSTAND WHAT YOU ARE SAYING,
 BUT YOU ARE ABSOLUTELY RIGHT.
     M.S.GORDON, IN A NDSU FACULTY MEETING
 Error termination request processed by link 9999.
 Error termination via Lnk1e in C:\G09W\l9999.exe at Fri Oct 30 13:41:17 2015.
 Job cpu time:  0 days  2 hours 46 minutes 26.0 seconds.
 File lengths (MBytes):  RWF=    107 Int=      0 D2E=      0 Chk=      8 Scr=      1
