 Entering Link 1 = C:\G09W\l1.exe PID=      3424.
  
 Copyright (c) 1988,1990,1992,1993,1995,1998,2003,2009, Gaussian, Inc.
                  All Rights Reserved.
  
 This is part of the Gaussian(R) 09 program.  It is based on
 the Gaussian(R) 03 system (copyright 2003, Gaussian, Inc.),
 the Gaussian(R) 98 system (copyright 1998, Gaussian, Inc.),
 the Gaussian(R) 94 system (copyright 1995, Gaussian, Inc.),
 the Gaussian 92(TM) system (copyright 1992, Gaussian, Inc.),
 the Gaussian 90(TM) system (copyright 1990, Gaussian, Inc.),
 the Gaussian 88(TM) system (copyright 1988, Gaussian, Inc.),
 the Gaussian 86(TM) system (copyright 1986, Carnegie Mellon
 University), and the Gaussian 82(TM) system (copyright 1983,
 Carnegie Mellon University). Gaussian is a federally registered
 trademark of Gaussian, Inc.
  
 This software contains proprietary and confidential information,
 including trade secrets, belonging to Gaussian, Inc.
  
 This software is provided under written license and may be
 used, copied, transmitted, or stored only in accord with that
 written license.
  
 The following legend is applicable only to US Government
 contracts under FAR:
  
                    RESTRICTED RIGHTS LEGEND
  
 Use, reproduction and disclosure by the US Government is
 subject to restrictions as set forth in subparagraphs (a)
 and (c) of the Commercial Computer Software - Restricted
 Rights clause in FAR 52.227-19.
  
 Gaussian, Inc.
 340 Quinnipiac St., Bldg. 40, Wallingford CT 06492
  
  
 ---------------------------------------------------------------
 Warning -- This program may not be used in any manner that
 competes with the business of Gaussian, Inc. or will provide
 assistance to any competitor of Gaussian, Inc.  The licensee
 of this program is prohibited from giving any competitor of
 Gaussian, Inc. access to this program.  By using this program,
 the user acknowledges that Gaussian, Inc. is engaged in the
 business of creating and licensing software in the field of
 computational chemistry and represents and warrants to the
 licensee that it is not a competitor of Gaussian, Inc. and that
 it will not use this program in any manner prohibited above.
 ---------------------------------------------------------------
  

 Cite this work as:
 Gaussian 09, Revision A.02,
 M. J. Frisch, G. W. Trucks, H. B. Schlegel, G. E. Scuseria, 
 M. A. Robb, J. R. Cheeseman, G. Scalmani, V. Barone, B. Mennucci, 
 G. A. Petersson, H. Nakatsuji, M. Caricato, X. Li, H. P. Hratchian, 
 A. F. Izmaylov, J. Bloino, G. Zheng, J. L. Sonnenberg, M. Hada, 
 M. Ehara, K. Toyota, R. Fukuda, J. Hasegawa, M. Ishida, T. Nakajima, 
 Y. Honda, O. Kitao, H. Nakai, T. Vreven, J. A. Montgomery, Jr., 
 J. E. Peralta, F. Ogliaro, M. Bearpark, J. J. Heyd, E. Brothers, 
 K. N. Kudin, V. N. Staroverov, R. Kobayashi, J. Normand, 
 K. Raghavachari, A. Rendell, J. C. Burant, S. S. Iyengar, J. Tomasi, 
 M. Cossi, N. Rega, J. M. Millam, M. Klene, J. E. Knox, J. B. Cross, 
 V. Bakken, C. Adamo, J. Jaramillo, R. Gomperts, R. E. Stratmann, 
 O. Yazyev, A. J. Austin, R. Cammi, C. Pomelli, J. W. Ochterski, 
 R. L. Martin, K. Morokuma, V. G. Zakrzewski, G. A. Voth, 
 P. Salvador, J. J. Dannenberg, S. Dapprich, A. D. Daniels, 
 O. Farkas, J. B. Foresman, J. V. Ortiz, J. Cioslowski, 
 and D. J. Fox, Gaussian, Inc., Wallingford CT, 2009.
 
 ******************************************
 Gaussian 09:  IA32W-G09RevA.02 11-Jun-2009
                30-Sep-2015 
 ******************************************
 %chk=C:\Users\214584429\Google Drive\214584429 MONSURAT\Silva-2014remix\TSB-4smd
 opt.chk
 ----------------------------------------------------------------------
 # opt=(calcfc,ts,noeigentest,maxcycle=20) x3lyp/6-31+g(d) scrf=(solven
 t=methanol,smd) geom=connectivity
 ----------------------------------------------------------------------
 1/5=1,6=20,10=4,11=1,14=-1,18=20,26=3,38=1,57=2/1,3;
 2/9=110,12=2,17=6,18=5,40=1/2;
 3/5=1,6=6,7=11,11=2,16=1,25=1,30=1,70=32201,71=2,72=3,74=-33/1,2,3;
 4//1;
 5/5=2,38=5,53=3/2;
 8/6=4,10=90,11=11/1;
 11/6=1,8=1,9=11,15=111,16=1/1,2,10;
 10/6=1,7=6,13=1/2;
 6/7=2,8=2,9=2,10=2,28=1/1;
 7/10=1,18=20,25=1/1,2,3,16;
 1/5=1,6=20,10=4,11=1,14=-1,18=20/3(2);
 2/9=110/2;
 99//99;
 2/9=110/2;
 3/5=1,6=6,7=11,11=2,16=1,25=1,30=1,70=32205,71=1,72=3,74=-33/1,2,3;
 4/5=5,16=3/1;
 5/5=2,38=5,53=3/2;
 7//1,2,3,16;
 1/5=1,6=20,11=1,14=-1,18=20/3(-5);
 2/9=110/2;
 6/7=2,8=2,9=2,10=2,19=2,28=1/1;
 99/9=1/99;
 --------
 tsb-4smd
 --------
 Symbolic Z-matrix:
 Charge =  1 Multiplicity = 1
 C                     0.6347    2.08334  -0.16158 
 H                     1.69152   2.34509  -0.20607 
 H                     0.26539   2.19515   0.86309 
 H                     0.06426   2.71711  -0.84075 
 C                     1.39853  -1.42303  -0.96286 
 H                     0.49973  -1.74656  -1.49431 
 H                     1.81416  -2.28888  -0.43928 
 H                     2.11551  -1.04548  -1.69661 
 C                     1.0649   -0.32316   0.02334 
 O                     2.11727   0.1487    0.77315 
 H                     2.86206  -0.4746    0.76724 
 O                    -1.97727  -0.40889  -0.31376 
 H                    -1.4714    0.27501  -0.8221 
 O                     0.43006   0.73218  -0.6512 
 H                    -1.2501   -0.68782   0.41402 
 O                     0.07244  -0.88048   0.98171 
 H                     0.27836  -0.54333   1.87324 
 C                    -3.30054   0.02862   0.17424 
 H                    -3.7138   -0.82543   0.7072 
 H                    -3.18553   0.8966    0.82455 
 H                    -3.89572   0.25639  -0.70822 
 

 GradGradGradGradGradGradGradGradGradGradGradGradGradGradGradGradGradGrad
 Berny optimization.
 Initialization pass.
                           ----------------------------
                           !    Initial Parameters    !
                           ! (Angstroms and Degrees)  !
 --------------------------                            --------------------------
 ! Name  Definition              Value          Derivative Info.                !
 --------------------------------------------------------------------------------
 ! R1    R(1,2)                  1.0897         calculate D2E/DX2 analytically  !
 ! R2    R(1,3)                  1.0949         calculate D2E/DX2 analytically  !
 ! R3    R(1,4)                  1.0901         calculate D2E/DX2 analytically  !
 ! R4    R(1,14)                 1.4516         calculate D2E/DX2 analytically  !
 ! R5    R(5,6)                  1.0931         calculate D2E/DX2 analytically  !
 ! R6    R(5,7)                  1.0939         calculate D2E/DX2 analytically  !
 ! R7    R(5,8)                  1.0932         calculate D2E/DX2 analytically  !
 ! R8    R(5,9)                  1.5145         calculate D2E/DX2 analytically  !
 ! R9    R(9,10)                 1.3756         calculate D2E/DX2 analytically  !
 ! R10   R(9,14)                 1.4042         calculate D2E/DX2 analytically  !
 ! R11   R(9,16)                 1.488          calculate D2E/DX2 analytically  !
 ! R12   R(10,11)                0.9712         calculate D2E/DX2 analytically  !
 ! R13   R(12,13)                0.991          calculate D2E/DX2 analytically  !
 ! R14   R(12,15)                1.0659         calculate D2E/DX2 analytically  !
 ! R15   R(12,18)                1.4767         calculate D2E/DX2 analytically  !
 ! R16   R(15,16)                1.4521         calculate D2E/DX2 analytically  !
 ! R17   R(16,17)                0.9751         calculate D2E/DX2 analytically  !
 ! R18   R(18,19)                1.0882         calculate D2E/DX2 analytically  !
 ! R19   R(18,20)                1.0907         calculate D2E/DX2 analytically  !
 ! R20   R(18,21)                1.0885         calculate D2E/DX2 analytically  !
 ! A1    A(2,1,3)              109.9262         calculate D2E/DX2 analytically  !
 ! A2    A(2,1,4)              110.0253         calculate D2E/DX2 analytically  !
 ! A3    A(2,1,14)             110.2758         calculate D2E/DX2 analytically  !
 ! A4    A(3,1,4)              110.3149         calculate D2E/DX2 analytically  !
 ! A5    A(3,1,14)             111.2933         calculate D2E/DX2 analytically  !
 ! A6    A(4,1,14)             104.9059         calculate D2E/DX2 analytically  !
 ! A7    A(6,5,7)              108.1099         calculate D2E/DX2 analytically  !
 ! A8    A(6,5,8)              108.3707         calculate D2E/DX2 analytically  !
 ! A9    A(6,5,9)              110.5117         calculate D2E/DX2 analytically  !
 ! A10   A(7,5,8)              110.2085         calculate D2E/DX2 analytically  !
 ! A11   A(7,5,9)              110.2961         calculate D2E/DX2 analytically  !
 ! A12   A(8,5,9)              109.3148         calculate D2E/DX2 analytically  !
 ! A13   A(5,9,10)             115.8183         calculate D2E/DX2 analytically  !
 ! A14   A(5,9,14)             109.4268         calculate D2E/DX2 analytically  !
 ! A15   A(5,9,16)             107.1178         calculate D2E/DX2 analytically  !
 ! A16   A(10,9,14)            110.4815         calculate D2E/DX2 analytically  !
 ! A17   A(10,9,16)            106.718          calculate D2E/DX2 analytically  !
 ! A18   A(14,9,16)            106.819          calculate D2E/DX2 analytically  !
 ! A19   A(9,10,11)            111.2977         calculate D2E/DX2 analytically  !
 ! A20   A(13,12,15)           100.5204         calculate D2E/DX2 analytically  !
 ! A21   A(13,12,18)           114.9925         calculate D2E/DX2 analytically  !
 ! A22   A(15,12,18)           117.5946         calculate D2E/DX2 analytically  !
 ! A23   A(1,14,9)             118.2806         calculate D2E/DX2 analytically  !
 ! A24   A(12,15,16)           157.3645         calculate D2E/DX2 analytically  !
 ! A25   A(9,16,15)            107.8182         calculate D2E/DX2 analytically  !
 ! A26   A(9,16,17)            108.5731         calculate D2E/DX2 analytically  !
 ! A27   A(15,16,17)           120.2579         calculate D2E/DX2 analytically  !
 ! A28   A(12,18,19)           105.6425         calculate D2E/DX2 analytically  !
 ! A29   A(12,18,20)           109.776          calculate D2E/DX2 analytically  !
 ! A30   A(12,18,21)           106.5029         calculate D2E/DX2 analytically  !
 ! A31   A(19,18,20)           111.8759         calculate D2E/DX2 analytically  !
 ! A32   A(19,18,21)           110.7088         calculate D2E/DX2 analytically  !
 ! A33   A(20,18,21)           111.9947         calculate D2E/DX2 analytically  !
 ! D1    D(2,1,14,9)            60.8386         calculate D2E/DX2 analytically  !
 ! D2    D(3,1,14,9)           -61.4327         calculate D2E/DX2 analytically  !
 ! D3    D(4,1,14,9)           179.2701         calculate D2E/DX2 analytically  !
 ! D4    D(6,5,9,10)           178.7795         calculate D2E/DX2 analytically  !
 ! D5    D(6,5,9,14)           -55.5725         calculate D2E/DX2 analytically  !
 ! D6    D(6,5,9,16)            59.8733         calculate D2E/DX2 analytically  !
 ! D7    D(7,5,9,10)            59.2934         calculate D2E/DX2 analytically  !
 ! D8    D(7,5,9,14)          -175.0587         calculate D2E/DX2 analytically  !
 ! D9    D(7,5,9,16)           -59.6128         calculate D2E/DX2 analytically  !
 ! D10   D(8,5,9,10)           -62.0316         calculate D2E/DX2 analytically  !
 ! D11   D(8,5,9,14)            63.6163         calculate D2E/DX2 analytically  !
 ! D12   D(8,5,9,16)           179.0622         calculate D2E/DX2 analytically  !
 ! D13   D(5,9,10,11)          -18.1063         calculate D2E/DX2 analytically  !
 ! D14   D(14,9,10,11)        -143.215          calculate D2E/DX2 analytically  !
 ! D15   D(16,9,10,11)         101.0191         calculate D2E/DX2 analytically  !
 ! D16   D(5,9,14,1)          -148.349          calculate D2E/DX2 analytically  !
 ! D17   D(10,9,14,1)          -19.6883         calculate D2E/DX2 analytically  !
 ! D18   D(16,9,14,1)           96.0144         calculate D2E/DX2 analytically  !
 ! D19   D(5,9,16,15)          -86.9981         calculate D2E/DX2 analytically  !
 ! D20   D(5,9,16,17)          141.215          calculate D2E/DX2 analytically  !
 ! D21   D(10,9,16,15)         148.3687         calculate D2E/DX2 analytically  !
 ! D22   D(10,9,16,17)          16.5818         calculate D2E/DX2 analytically  !
 ! D23   D(14,9,16,15)          30.1742         calculate D2E/DX2 analytically  !
 ! D24   D(14,9,16,17)        -101.6127         calculate D2E/DX2 analytically  !
 ! D25   D(13,12,15,16)        -25.563          calculate D2E/DX2 analytically  !
 ! D26   D(18,12,15,16)       -151.1504         calculate D2E/DX2 analytically  !
 ! D27   D(13,12,18,19)       -179.7206         calculate D2E/DX2 analytically  !
 ! D28   D(13,12,18,20)        -58.9332         calculate D2E/DX2 analytically  !
 ! D29   D(13,12,18,21)         62.5075         calculate D2E/DX2 analytically  !
 ! D30   D(15,12,18,19)        -61.6249         calculate D2E/DX2 analytically  !
 ! D31   D(15,12,18,20)         59.1625         calculate D2E/DX2 analytically  !
 ! D32   D(15,12,18,21)       -179.3968         calculate D2E/DX2 analytically  !
 ! D33   D(12,15,16,9)           4.6948         calculate D2E/DX2 analytically  !
 ! D34   D(12,15,16,17)        129.7826         calculate D2E/DX2 analytically  !
 --------------------------------------------------------------------------------
 Trust Radius=3.00D-01 FncErr=1.00D-07 GrdErr=1.00D-06
 Number of steps in this run=  20 maximum allowed number of steps= 126.
 Search for a saddle point of order  1.
 GradGradGradGradGradGradGradGradGradGradGradGradGradGradGradGradGradGrad

                          Input orientation:                          
 ---------------------------------------------------------------------
 Center     Atomic      Atomic             Coordinates (Angstroms)
 Number     Number       Type             X           Y           Z
 ---------------------------------------------------------------------
      1          6           0        0.634704    2.083342   -0.161584
      2          1           0        1.691516    2.345086   -0.206066
      3          1           0        0.265387    2.195151    0.863086
      4          1           0        0.064262    2.717105   -0.840747
      5          6           0        1.398527   -1.423025   -0.962861
      6          1           0        0.499728   -1.746559   -1.494313
      7          1           0        1.814164   -2.288883   -0.439284
      8          1           0        2.115505   -1.045482   -1.696614
      9          6           0        1.064896   -0.323158    0.023336
     10          8           0        2.117274    0.148697    0.773152
     11          1           0        2.862062   -0.474597    0.767241
     12          8           0       -1.977270   -0.408889   -0.313755
     13          1           0       -1.471395    0.275007   -0.822104
     14          8           0        0.430062    0.732181   -0.651197
     15          1           0       -1.250104   -0.687824    0.414018
     16          8           0        0.072438   -0.880475    0.981705
     17          1           0        0.278357   -0.543333    1.873237
     18          6           0       -3.300536    0.028618    0.174239
     19          1           0       -3.713799   -0.825425    0.707202
     20          1           0       -3.185534    0.896597    0.824552
     21          1           0       -3.895720    0.256386   -0.708223
 ---------------------------------------------------------------------
                    Distance matrix (angstroms):
                    1          2          3          4          5
     1  C    0.000000
     2  H    1.089651   0.000000
     3  H    1.094918   1.788690   0.000000
     4  H    1.090102   1.785826   1.793303   0.000000
     5  C    3.676966   3.854509   4.208240   4.351534   0.000000
     6  H    4.057404   4.452134   4.598839   4.532226   1.093140
     7  H    4.537025   4.641455   4.919496   5.318199   1.093891
     8  H    3.786638   3.727929   4.525119   4.370031   1.093156
     9  C    2.451633   2.750419   2.772413   3.315284   1.514464
    10  O    2.610478   2.442184   2.761439   3.662820   2.449622
    11  H    3.516659   3.204390   3.725515   4.538752   2.456563
    12  O    3.613417   4.588678   3.632560   3.770598   3.584106
    13  H    2.853422   3.829979   3.089212   2.884863   3.337601
    14  O    1.451632   2.095440   2.111978   2.027230   2.383269
    15  H    3.400468   4.270384   3.287844   3.859473   3.074339
    16  O    3.226060   3.799534   3.083954   4.032863   2.415411
    17  H    3.341691   3.829293   2.918881   4.247588   3.173656
    18  C    4.452054   5.516452   4.228969   4.424932   5.047916
    19  H    5.303319   6.332743   4.998210   5.405498   5.411295
    20  H    4.120078   5.190945   3.687354   4.080275   5.439587
    21  H    4.915417   5.985987   4.852075   4.664135   5.560064
                    6          7          8          9         10
     6  H    0.000000
     7  H    1.770577   0.000000
     8  H    1.772899   1.793804   0.000000
     9  C    2.156095   2.153949   2.140972   0.000000
    10  O    3.368954   2.739283   2.743321   1.375635   0.000000
    11  H    3.509008   2.417732   2.637013   1.950932   0.971205
    12  O    3.052638   4.233805   4.366733   3.061985   4.272887
    13  H    2.902399   4.185090   3.921009   2.739588   3.929293
    14  O    2.619132   3.329786   2.663400   1.404190   2.283836
    15  H    2.797241   3.561075   3.988735   2.375887   3.488263
    16  O    2.657695   2.652627   3.372646   1.487967   2.298705
    17  H    3.582897   3.279238   4.046122   2.022190   2.251823
    18  C    4.514125   5.648662   5.829861   4.382181   5.452135
    19  H    4.842413   5.832196   6.309322   4.853439   5.912248
    20  H    5.093581   6.061480   6.182957   4.493985   5.355536
    21  H    4.893842   6.257276   6.229495   5.047649   6.193720
                   11         12         13         14         15
    11  H    0.000000
    12  O    4.959033   0.000000
    13  H    4.676192   0.990980   0.000000
    14  O    3.063153   2.685359   1.963099   0.000000
    15  H    4.132813   1.065940   1.582407   2.444188   0.000000
    16  O    2.827142   2.470205   2.640509   2.322697   1.452068
    17  H    2.811313   3.144656   3.316048   2.832440   2.118110
    18  C    6.211481   1.476680   2.097418   3.885062   2.185190
    19  H    6.585487   2.057034   2.928840   4.630655   2.484891
    20  H    6.201361   2.111857   2.456852   3.908632   2.534722
    21  H    6.955498   2.068489   2.427070   4.352243   3.024937
                   16         17         18         19         20
    16  O    0.000000
    17  H    0.975139   0.000000
    18  C    3.585443   4.002774   0.000000
    19  H    3.796574   4.168516   1.088221   0.000000
    20  H    3.714440   3.895084   1.090651   1.805047   0.000000
    21  H    4.460335   4.972565   1.088513   1.790765   1.806553
                   21
    21  H    0.000000
 Stoichiometry    C4H13O4(1+)
 Framework group  C1[X(C4H13O4)]
 Deg. of freedom    57
 Full point group                 C1      NOp   1
 Largest Abelian subgroup         C1      NOp   1
 Largest concise Abelian subgroup C1      NOp   1
                         Standard orientation:                         
 ---------------------------------------------------------------------
 Center     Atomic      Atomic             Coordinates (Angstroms)
 Number     Number       Type             X           Y           Z
 ---------------------------------------------------------------------
      1          6           0        0.634704    2.083342   -0.161584
      2          1           0        1.691516    2.345086   -0.206066
      3          1           0        0.265387    2.195151    0.863086
      4          1           0        0.064262    2.717105   -0.840747
      5          6           0        1.398527   -1.423025   -0.962861
      6          1           0        0.499728   -1.746559   -1.494313
      7          1           0        1.814164   -2.288883   -0.439284
      8          1           0        2.115505   -1.045482   -1.696614
      9          6           0        1.064896   -0.323158    0.023336
     10          8           0        2.117274    0.148697    0.773152
     11          1           0        2.862062   -0.474597    0.767241
     12          8           0       -1.977270   -0.408889   -0.313755
     13          1           0       -1.471395    0.275007   -0.822104
     14          8           0        0.430062    0.732181   -0.651197
     15          1           0       -1.250104   -0.687824    0.414018
     16          8           0        0.072438   -0.880475    0.981705
     17          1           0        0.278357   -0.543333    1.873237
     18          6           0       -3.300536    0.028618    0.174239
     19          1           0       -3.713799   -0.825425    0.707202
     20          1           0       -3.185534    0.896597    0.824552
     21          1           0       -3.895720    0.256386   -0.708223
 ---------------------------------------------------------------------
 Rotational constants (GHZ):      2.6583803      1.1725858      1.0025896
 Standard basis: 6-31+G(d) (6D, 7F)
 There are   178 symmetry adapted basis functions of A   symmetry.
 Integral buffers will be    262144 words long.
 Raffenetti 2 integral format.
 Two-electron integral symmetry is turned on.
   178 basis functions,   308 primitive gaussians,   178 cartesian basis functions
    34 alpha electrons       34 beta electrons
       nuclear repulsion energy       457.4268905335 Hartrees.
 NAtoms=   21 NActive=   21 NUniq=   21 SFac= 7.50D-01 NAtFMM=   80 NAOKFM=F Big=F
 ------------------------------------------------------------------------------
 Polarizable Continuum Model (PCM)
 =================================
 Model                : PCM.
 Atomic radii         : SMD-Coulomb.
 Polarization charges : Total charges.
 Charge compensation  : None.
 Solution method      : Matrix inversion.
 Cavity type          : VdW (van der Waals Surface) (Alpha=1.000).
 Cavity algorithm     : GePol (No added spheres)
                        Default sphere list used, NSphG=   21.
                        Lebedev-Laikov grids with approx.  5.0 points / Ang**2.
                        Smoothing algorithm: Karplus/York (Gamma=1.0000).
                        Polarization charges: spherical gaussians, with
                                              point-specific exponents (IZeta= 3).
                        Self-potential: point-specific (ISelfS= 7).
                        Self-field    : sphere-specific E.n sum rule (ISelfD= 2).
 1st derivatives      : Analytical E(r).r(x)/FMM algorithm (CHGder, D1EAlg=3).
                        Cavity 1st derivative terms included.
 2nd derivatives      : Analytical E(r).r(xy)/FMM algorithm (CHGder, D2EAlg=3).
                        Cavity 2nd derivative terms included.
 Solvent              : Methanol, Eps=  32.613000 Eps(inf)=   1.765709
 ------------------------------------------------------------------------------
 ------------------------------------------------------------------------------
 Atomic radii for non-electrostatic terms: SMD-CDS.
 ------------------------------------------------------------------------------
 Nuclear repulsion after PCM non-electrostatic terms =      457.4309874801 Hartrees.
 One-electron integrals computed using PRISM.
 NBasis=   178 RedAO= T  NBF=   178
 NBsUse=   178 1.00D-06 NBFU=   178
 Harris functional with IExCor= 3102 diagonalized for initial guess.
 ExpMin= 4.38D-02 ExpMax= 5.48D+03 ExpMxC= 8.25D+02 IAcc=2 IRadAn=         0 AccDes= 0.00D+00
 HarFok:  IExCor= 3102 AccDes= 0.00D+00 IRadAn=         0 IDoV= 1
 ScaDFX=  1.000000  1.000000  1.000000  1.000000
 FoFCou: FMM=F IPFlag=           0 FMFlag=      100000 FMFlg1=           0
         NFxFlg=           0 DoJE=T BraDBF=F KetDBF=T FulRan=T
         Omega=  0.000000  0.000000  1.000000  0.000000  0.000000 ICntrl=     500 IOpCl=  0
         NMat0=    1 NMatS0=    1 NMatT0=    0 NMatD0=    1 NMtDS0=    0 NMtDT0=    0
         I1Cent=           4 NGrid=           0.
 Petite list used in FoFCou.
 Initial guess orbital symmetries:
       Occupied  (A) (A) (A) (A) (A) (A) (A) (A) (A) (A) (A) (A)
                 (A) (A) (A) (A) (A) (A) (A) (A) (A) (A) (A) (A)
                 (A) (A) (A) (A) (A) (A) (A) (A) (A) (A)
       Virtual   (A) (A) (A) (A) (A) (A) (A) (A) (A) (A) (A) (A)
                 (A) (A) (A) (A) (A) (A) (A) (A) (A) (A) (A) (A)
                 (A) (A) (A) (A) (A) (A) (A) (A) (A) (A) (A) (A)
                 (A) (A) (A) (A) (A) (A) (A) (A) (A) (A) (A) (A)
                 (A) (A) (A) (A) (A) (A) (A) (A) (A) (A) (A) (A)
                 (A) (A) (A) (A) (A) (A) (A) (A) (A) (A) (A) (A)
                 (A) (A) (A) (A) (A) (A) (A) (A) (A) (A) (A) (A)
                 (A) (A) (A) (A) (A) (A) (A) (A) (A) (A) (A) (A)
                 (A) (A) (A) (A) (A) (A) (A) (A) (A) (A) (A) (A)
                 (A) (A) (A) (A) (A) (A) (A) (A) (A) (A) (A) (A)
                 (A) (A) (A) (A) (A) (A) (A) (A) (A) (A) (A) (A)
                 (A) (A) (A) (A) (A) (A) (A) (A) (A) (A) (A) (A)
 The electronic state of the initial guess is 1-A.
 Requested convergence on RMS density matrix=1.00D-08 within 128 cycles.
 Requested convergence on MAX density matrix=1.00D-06.
 Requested convergence on             energy=1.00D-06.
 No special actions if energy rises.
 Error on total polarization charges =  0.04499
 SCF Done:  E(RX3LYP) =  -460.793149940     A.U. after   12 cycles
             Convg  =    0.6583D-08             -V/T =  2.0093
 SMD-CDS (non-electrostatic) energy             (kcal/mol) =       2.57
 (included in total energy above)
 Range of M.O.s used for correlation:     1   178
 NBasis=   178 NAE=    34 NBE=    34 NFC=     0 NFV=     0
 NROrb=    178 NOA=    34 NOB=    34 NVA=   144 NVB=   144

 **** Warning!!: The largest alpha MO coefficient is  0.47166706D+02

 Symmetrizing basis deriv contribution to polar:
 IMax=3 JMax=2 DiffMx= 0.00D+00
 G2DrvN: will do    22 centers at a time, making    1 passes doing MaxLOS=2.
 Calling FoFCou, ICntrl=  3107 FMM=F I1Cent=   0 AccDes= 0.00D+00.
 FoFDir/FoFCou used for L=0 through L=2.
 G2PCM: DoFxE=T DoFxN=T DoGrad=T DoPD/DQ/DG=FFF NFrqRd=   0 IEInf=0 DoCFld=F IF1Alg=4.
 End of G2Drv Frequency-dependent properties file   721 does not exist.
 End of G2Drv Frequency-dependent properties file   722 does not exist.
          IDoAtm=111111111111111111111
 NEqPCM:  Using equilibrium solvation (IEInf=0, Eps=  32.6130, EpsInf=   1.7657)
          Differentiating once with respect to nuclear coordinates.
          There are    66 degrees of freedom in the 1st order CPHF.  IDoFFX=5.
     60 vectors produced by pass  0 Test12= 7.42D-11 1.52D-07 XBig12= 1.58D-01 5.87D-02.
 AX will form    60 AO Fock derivatives at one time.
     60 vectors produced by pass  1 Test12= 7.42D-11 1.52D-07 XBig12= 1.47D-02 1.46D-02.
     60 vectors produced by pass  2 Test12= 7.42D-11 1.52D-07 XBig12= 1.14D-04 1.58D-03.
     60 vectors produced by pass  3 Test12= 7.42D-11 1.52D-07 XBig12= 3.35D-07 6.51D-05.
     19 vectors produced by pass  4 Test12= 7.42D-11 1.52D-07 XBig12= 3.67D-10 1.97D-06.
 Inverted reduced A of dimension   259 with in-core refinement.
 End of Minotr Frequency-dependent properties file   721 does not exist.
 End of Minotr Frequency-dependent properties file   722 does not exist.

 **********************************************************************

            Population analysis using the SCF density.

 **********************************************************************

 Orbital symmetries:
       Occupied  (A) (A) (A) (A) (A) (A) (A) (A) (A) (A) (A) (A)
                 (A) (A) (A) (A) (A) (A) (A) (A) (A) (A) (A) (A)
                 (A) (A) (A) (A) (A) (A) (A) (A) (A) (A)
       Virtual   (A) (A) (A) (A) (A) (A) (A) (A) (A) (A) (A) (A)
                 (A) (A) (A) (A) (A) (A) (A) (A) (A) (A) (A) (A)
                 (A) (A) (A) (A) (A) (A) (A) (A) (A) (A) (A) (A)
                 (A) (A) (A) (A) (A) (A) (A) (A) (A) (A) (A) (A)
                 (A) (A) (A) (A) (A) (A) (A) (A) (A) (A) (A) (A)
                 (A) (A) (A) (A) (A) (A) (A) (A) (A) (A) (A) (A)
                 (A) (A) (A) (A) (A) (A) (A) (A) (A) (A) (A) (A)
                 (A) (A) (A) (A) (A) (A) (A) (A) (A) (A) (A) (A)
                 (A) (A) (A) (A) (A) (A) (A) (A) (A) (A) (A) (A)
                 (A) (A) (A) (A) (A) (A) (A) (A) (A) (A) (A) (A)
                 (A) (A) (A) (A) (A) (A) (A) (A) (A) (A) (A) (A)
                 (A) (A) (A) (A) (A) (A) (A) (A) (A) (A) (A) (A)
 The electronic state is 1-A.
 Alpha  occ. eigenvalues --  -19.28646 -19.23046 -19.22657 -19.22277 -10.39500
 Alpha  occ. eigenvalues --  -10.28093 -10.25803 -10.21300  -1.14099  -1.12100
 Alpha  occ. eigenvalues --   -1.04569  -1.03898  -0.78128  -0.74337  -0.70578
 Alpha  occ. eigenvalues --   -0.64423  -0.61010  -0.58669  -0.55090  -0.53714
 Alpha  occ. eigenvalues --   -0.50781  -0.48461  -0.47158  -0.45052  -0.44229
 Alpha  occ. eigenvalues --   -0.41876  -0.41384  -0.40429  -0.38545  -0.37988
 Alpha  occ. eigenvalues --   -0.36778  -0.34675  -0.33253  -0.30572
 Alpha virt. eigenvalues --   -0.00584   0.02008   0.02202   0.02872   0.03482
 Alpha virt. eigenvalues --    0.04725   0.05198   0.05618   0.06978   0.07151
 Alpha virt. eigenvalues --    0.08054   0.08886   0.09870   0.10455   0.12532
 Alpha virt. eigenvalues --    0.12988   0.14108   0.14740   0.15556   0.16079
 Alpha virt. eigenvalues --    0.16860   0.18081   0.18718   0.18848   0.19339
 Alpha virt. eigenvalues --    0.20294   0.20944   0.21345   0.22255   0.23591
 Alpha virt. eigenvalues --    0.23836   0.24810   0.25679   0.26826   0.27377
 Alpha virt. eigenvalues --    0.27473   0.28656   0.29044   0.30393   0.30915
 Alpha virt. eigenvalues --    0.32478   0.33762   0.34408   0.34715   0.35592
 Alpha virt. eigenvalues --    0.36684   0.39464   0.40193   0.42962   0.44023
 Alpha virt. eigenvalues --    0.46243   0.63264   0.64380   0.64754   0.66783
 Alpha virt. eigenvalues --    0.69596   0.72112   0.72972   0.76610   0.78144
 Alpha virt. eigenvalues --    0.79732   0.80347   0.84387   0.90947   0.92478
 Alpha virt. eigenvalues --    0.95662   0.96175   0.97049   1.00012   1.04752
 Alpha virt. eigenvalues --    1.06335   1.06849   1.08863   1.09481   1.11561
 Alpha virt. eigenvalues --    1.12120   1.12966   1.14319   1.17242   1.18067
 Alpha virt. eigenvalues --    1.20974   1.22677   1.25132   1.27488   1.29075
 Alpha virt. eigenvalues --    1.31442   1.33746   1.35307   1.39778   1.41532
 Alpha virt. eigenvalues --    1.44084   1.47858   1.49865   1.53083   1.55073
 Alpha virt. eigenvalues --    1.57453   1.59629   1.63052   1.70251   1.71674
 Alpha virt. eigenvalues --    1.71758   1.77144   1.80213   1.82645   1.84808
 Alpha virt. eigenvalues --    1.87690   1.90284   1.95299   1.96444   2.01162
 Alpha virt. eigenvalues --    2.02653   2.04735   2.08096   2.10467   2.18955
 Alpha virt. eigenvalues --    2.22566   2.23505   2.25643   2.26240   2.28106
 Alpha virt. eigenvalues --    2.30075   2.30524   2.34865   2.36940   2.40178
 Alpha virt. eigenvalues --    2.50052   2.56243   2.61791   2.63013   2.69249
 Alpha virt. eigenvalues --    2.77529   2.80243   2.87439   2.92342   2.95762
 Alpha virt. eigenvalues --    3.02078   4.06061   4.18372   4.19899   4.29302
 Alpha virt. eigenvalues --    4.31034   4.40119   4.43743   4.64122
          Condensed to atoms (all electrons):
              1          2          3          4          5          6
     1  C    5.334376   0.397632   0.408230   0.386324   0.008127   0.001473
     2  H    0.397632   0.474725  -0.034266  -0.024877   0.006944   0.000005
     3  H    0.408230  -0.034266   0.489780  -0.027739  -0.005428  -0.000002
     4  H    0.386324  -0.024877  -0.027739   0.472347   0.001109  -0.000006
     5  C    0.008127   0.006944  -0.005428   0.001109   6.269054   0.399730
     6  H    0.001473   0.000005  -0.000002  -0.000006   0.399730   0.448457
     7  H    0.000890  -0.000011   0.000010   0.000002   0.398272  -0.023503
     8  H   -0.001964   0.000054  -0.000014   0.000006   0.406270  -0.022736
     9  C   -0.191503  -0.031490  -0.019324   0.010277  -0.578307  -0.061922
    10  O   -0.027862   0.004642   0.000546  -0.000321  -0.077509   0.007999
    11  H    0.004323  -0.000184   0.000063  -0.000008   0.016338   0.000079
    12  O    0.006073  -0.000438   0.000302   0.000476   0.000736   0.002471
    13  H   -0.005713   0.000104   0.000165  -0.000489  -0.005466  -0.000092
    14  O    0.080039  -0.028223  -0.053451  -0.048717  -0.155541  -0.001537
    15  H    0.000747   0.000004  -0.000094   0.000013  -0.008723  -0.000359
    16  O   -0.006111  -0.002535   0.012809  -0.001240  -0.013890  -0.002590
    17  H   -0.006443   0.000098  -0.000916   0.000017  -0.003535   0.000040
    18  C   -0.005128   0.000354  -0.001045  -0.000543  -0.004149  -0.000039
    19  H    0.000385   0.000000   0.000001   0.000000   0.000351   0.000001
    20  H   -0.000151   0.000001   0.000027  -0.000006  -0.001385   0.000001
    21  H   -0.000377   0.000000   0.000002   0.000000   0.000483   0.000001
              7          8          9         10         11         12
     1  C    0.000890  -0.001964  -0.191503  -0.027862   0.004323   0.006073
     2  H   -0.000011   0.000054  -0.031490   0.004642  -0.000184  -0.000438
     3  H    0.000010  -0.000014  -0.019324   0.000546   0.000063   0.000302
     4  H    0.000002   0.000006   0.010277  -0.000321  -0.000008   0.000476
     5  C    0.398272   0.406270  -0.578307  -0.077509   0.016338   0.000736
     6  H   -0.023503  -0.022736  -0.061922   0.007999   0.000079   0.002471
     7  H    0.454830  -0.022816  -0.059056  -0.006991   0.001369  -0.000144
     8  H   -0.022816   0.451227  -0.063560  -0.003625  -0.000332   0.000041
     9  C   -0.059056  -0.063560   5.892233   0.306819  -0.033951  -0.055799
    10  O   -0.006991  -0.003625   0.306819   8.514839   0.198536   0.002150
    11  H    0.001369  -0.000332  -0.033951   0.198536   0.242120   0.000068
    12  O   -0.000144   0.000041  -0.055799   0.002150   0.000068   8.673796
    13  H   -0.000003   0.000011   0.016028   0.000041  -0.000012   0.158927
    14  O    0.007783  -0.002276   0.235409  -0.082192   0.008151  -0.020230
    15  H    0.000077  -0.000010   0.010254   0.001149  -0.000045   0.077431
    16  O    0.000542   0.006334   0.060458  -0.094858   0.001026  -0.009674
    17  H   -0.000223  -0.000115   0.032316   0.004445  -0.000455  -0.000120
    18  C    0.000038   0.000060   0.005906  -0.000086  -0.000013   0.043618
    19  H    0.000000   0.000000  -0.001667   0.000002   0.000000  -0.033568
    20  H    0.000000   0.000000   0.003027  -0.000017   0.000000  -0.052313
    21  H    0.000000   0.000000  -0.000601   0.000001   0.000000  -0.033402
             13         14         15         16         17         18
     1  C   -0.005713   0.080039   0.000747  -0.006111  -0.006443  -0.005128
     2  H    0.000104  -0.028223   0.000004  -0.002535   0.000098   0.000354
     3  H    0.000165  -0.053451  -0.000094   0.012809  -0.000916  -0.001045
     4  H   -0.000489  -0.048717   0.000013  -0.001240   0.000017  -0.000543
     5  C   -0.005466  -0.155541  -0.008723  -0.013890  -0.003535  -0.004149
     6  H   -0.000092  -0.001537  -0.000359  -0.002590   0.000040  -0.000039
     7  H   -0.000003   0.007783   0.000077   0.000542  -0.000223   0.000038
     8  H    0.000011  -0.002276  -0.000010   0.006334  -0.000115   0.000060
     9  C    0.016028   0.235409   0.010254   0.060458   0.032316   0.005906
    10  O    0.000041  -0.082192   0.001149  -0.094858   0.004445  -0.000086
    11  H   -0.000012   0.008151  -0.000045   0.001026  -0.000455  -0.000013
    12  O    0.158927  -0.020230   0.077431  -0.009674  -0.000120   0.043618
    13  H    0.194608   0.037311  -0.004064  -0.005914   0.000004  -0.008429
    14  O    0.037311   8.635908   0.001545  -0.176481  -0.000891   0.005591
    15  H   -0.004064   0.001545   0.185261   0.091301  -0.003338  -0.005834
    16  O   -0.005914  -0.176481   0.091301   8.754733   0.184187   0.002021
    17  H    0.000004  -0.000891  -0.003338   0.184187   0.231157  -0.000664
    18  C   -0.008429   0.005591  -0.005834   0.002021  -0.000664   5.162980
    19  H    0.002413  -0.000044  -0.002072  -0.000115  -0.000006   0.387578
    20  H   -0.000665   0.000072  -0.000359   0.000430   0.000024   0.393718
    21  H   -0.002595  -0.000004   0.001692  -0.000377   0.000002   0.387797
             19         20         21
     1  C    0.000385  -0.000151  -0.000377
     2  H    0.000000   0.000001   0.000000
     3  H    0.000001   0.000027   0.000002
     4  H    0.000000  -0.000006   0.000000
     5  C    0.000351  -0.001385   0.000483
     6  H    0.000001   0.000001   0.000001
     7  H    0.000000   0.000000   0.000000
     8  H    0.000000   0.000000   0.000000
     9  C   -0.001667   0.003027  -0.000601
    10  O    0.000002  -0.000017   0.000001
    11  H    0.000000   0.000000   0.000000
    12  O   -0.033568  -0.052313  -0.033402
    13  H    0.002413  -0.000665  -0.002595
    14  O   -0.000044   0.000072  -0.000004
    15  H   -0.002072  -0.000359   0.001692
    16  O   -0.000115   0.000430  -0.000377
    17  H   -0.000006   0.000024   0.000002
    18  C    0.387578   0.393718   0.387797
    19  H    0.436908  -0.025019  -0.021940
    20  H   -0.025019   0.456786  -0.025286
    21  H   -0.021940  -0.025286   0.438685
 Mulliken atomic charges:
              1
     1  C   -0.383367
     2  H    0.237459
     3  H    0.230343
     4  H    0.233375
     5  C   -0.653481
     6  H    0.252531
     7  H    0.248935
     8  H    0.253445
     9  C    0.524452
    10  O   -0.747705
    11  H    0.562927
    12  O   -0.760402
    13  H    0.623830
    14  O   -0.442222
    15  H    0.655423
    16  O   -0.800055
    17  H    0.564416
    18  C   -0.363732
    19  H    0.256793
    20  H    0.251116
    21  H    0.255919
 Sum of Mulliken atomic charges =   1.00000
 Mulliken charges with hydrogens summed into heavy atoms:
              1
     1  C    0.317810
     5  C    0.101430
     9  C    0.524452
    10  O   -0.184779
    12  O    0.518851
    14  O   -0.442222
    16  O   -0.235639
    18  C    0.400097
 Sum of Mulliken charges with hydrogens summed into heavy atoms =   1.00000
 APT atomic charges:
              1
     1  C   -1.368526
     2  H    0.565120
     3  H    0.380575
     4  H    0.558280
     5  C   -1.482498
     6  H    0.384054
     7  H    0.575909
     8  H    0.559639
     9  C    0.321404
    10  O   -0.983819
    11  H    0.919380
    12  O   -0.286245
    13  H    0.506271
    14  O   -0.245050
    15  H    0.512640
    16  O   -0.825271
    17  H    0.736888
    18  C   -1.570963
    19  H    0.650940
    20  H    0.389852
    21  H    0.701419
 Sum of APT charges=   1.00000
 APT Atomic charges with hydrogens summed into heavy atoms:
              1
     1  C    0.135450
     2  H    0.000000
     3  H    0.000000
     4  H    0.000000
     5  C    0.037104
     6  H    0.000000
     7  H    0.000000
     8  H    0.000000
     9  C    0.321404
    10  O   -0.064439
    11  H    0.000000
    12  O    0.732666
    13  H    0.000000
    14  O   -0.245050
    15  H    0.000000
    16  O   -0.088383
    17  H    0.000000
    18  C    0.171248
    19  H    0.000000
    20  H    0.000000
    21  H    0.000000
 Sum of APT charges=   1.00000
 Electronic spatial extent (au):  <R**2>=           1270.7969
 Charge=              1.0000 electrons
 Dipole moment (field-independent basis, Debye):
    X=             -3.6791    Y=              0.1804    Z=              1.5004  Tot=              3.9774
 Quadrupole moment (field-independent basis, Debye-Ang):
   XX=            -19.1712   YY=            -43.5818   ZZ=            -44.2698
   XY=             -6.2180   XZ=             -0.3365   YZ=             -1.0764
 Traceless Quadrupole moment (field-independent basis, Debye-Ang):
   XX=             16.5031   YY=             -7.9075   ZZ=             -8.5955
   XY=             -6.2180   XZ=             -0.3365   YZ=             -1.0764
 Octapole moment (field-independent basis, Debye-Ang**2):
  XXX=            -41.2527  YYY=             10.6010  ZZZ=             13.4978  XYY=              3.4430
  XXY=            -11.5236  XXZ=              6.4002  XZZ=             -3.8669  YZZ=             -3.1018
  YYZ=             -1.6157  XYZ=              0.7123
 Hexadecapole moment (field-independent basis, Debye-Ang**3):
 XXXX=           -648.0245 YYYY=           -389.0364 ZZZZ=           -173.0040 XXXY=            -34.0327
 XXXZ=             14.8115 YYYX=              2.5941 YYYZ=             -6.8538 ZZZX=             10.0599
 ZZZY=             -8.8348 XXYY=           -216.8138 XXZZ=           -181.3878 YYZZ=           -100.0976
 XXYZ=            -18.2879 YYXZ=             -0.6354 ZZXY=             -6.4873
 N-N= 4.574309874801D+02 E-N=-1.980702891470D+03  KE= 4.565677261789D+02
  Exact polarizability:   0.000   0.000   0.000   0.000   0.000   0.000
 Approx polarizability:  88.074  -0.091  83.211   2.211  -1.454  82.086
 D2PCM: PCM CHGder 2nd derivatives, FixD1E=F FixD2E=F DoIter=F DoCFld=F I1PDM=0
 Calling FoFJK, ICntrl=    100147 FMM=F ISym2X=0 I1Cent= 0 IOpClX= 0 NMat=1 NMatS=1 NMatT=0.
 ***** Axes restored to original set *****
 -------------------------------------------------------------------
 Center     Atomic                   Forces (Hartrees/Bohr)
 Number     Number              X              Y              Z
 -------------------------------------------------------------------
      1        6          -0.002293212   -0.004777256    0.000646683
      2        1           0.001012274    0.000911580   -0.000669837
      3        1          -0.000874543   -0.000206939   -0.000374264
      4        1          -0.000864977    0.000146303    0.000185000
      5        6          -0.000368333    0.000716777   -0.000455588
      6        1          -0.001357211    0.000999180    0.000537291
      7        1           0.001138599    0.000740262    0.000538901
      8        1           0.001241973   -0.000147092    0.000212529
      9        6          -0.008946099   -0.003750244    0.005926996
     10        8           0.004358861    0.003116829    0.000404871
     11        1           0.000442960   -0.002603431   -0.000070289
     12        8          -0.000169723   -0.002629453    0.000890926
     13        1          -0.004265605    0.001620744    0.000856606
     14        8           0.005483367    0.003898326   -0.002811031
     15        1          -0.006237553    0.003235069   -0.000376001
     16        8           0.008362591   -0.003078326   -0.004866025
     17        1          -0.002683543    0.002155994    0.000234870
     18        6           0.004043693   -0.000553115   -0.000568015
     19        1           0.000590931   -0.000211947    0.000584022
     20        1           0.000789566   -0.000156396   -0.000320075
     21        1           0.000595984    0.000573137   -0.000507569
 -------------------------------------------------------------------
 Cartesian Forces:  Max     0.008946099 RMS     0.002736411

 GradGradGradGradGradGradGradGradGradGradGradGradGradGradGradGradGradGrad
 Berny optimization.
 Internal  Forces:  Max     0.008301406 RMS     0.002182650
 Search for a saddle point.
 Step number   1 out of a maximum of   20
 All quantities printed in internal units (Hartrees-Bohrs-Radians)
 Swaping is turned off.
 Second derivative matrix not updated -- analytic derivatives used.
     Eigenvalues ---   -0.00571  -0.00004   0.00081   0.00127   0.00163
     Eigenvalues ---    0.00343   0.00468   0.00542   0.01147   0.01439
     Eigenvalues ---    0.03492   0.04463   0.04483   0.04569   0.05613
     Eigenvalues ---    0.06144   0.06352   0.07405   0.07803   0.08557
     Eigenvalues ---    0.08652   0.09998   0.11784   0.12502   0.13008
     Eigenvalues ---    0.13129   0.13337   0.14155   0.14741   0.16583
     Eigenvalues ---    0.17780   0.18677   0.18845   0.19150   0.19473
     Eigenvalues ---    0.19948   0.22815   0.23969   0.28813   0.30767
     Eigenvalues ---    0.31274   0.31662   0.34319   0.34698   0.34722
     Eigenvalues ---    0.34920   0.35411   0.35485   0.35595   0.36146
     Eigenvalues ---    0.36355   0.36732   0.42120   0.44524   0.47602
     Eigenvalues ---    0.49564   0.508001000.000001000.000001000.00000
     Eigenvalues --- 1000.000001000.000001000.000001000.000001000.00000
     Eigenvalues --- 1000.000001000.000001000.000001000.000001000.00000
     Eigenvalues --- 1000.000001000.000001000.000001000.000001000.00000
     Eigenvalues --- 1000.000001000.000001000.000001000.000001000.00000
     Eigenvalues --- 1000.000001000.000001000.000001000.000001000.00000
     Eigenvalues --- 1000.000001000.00000
 Eigenvectors required to have negative eigenvalues:
                          R16       A24       D26       R14       D25
   1                    0.57952  -0.53707   0.28303  -0.20171   0.18903
                          A20       D28       D27       D29       A27
   1                   -0.16804   0.13991   0.13816   0.12602   0.11595
 RFO step:  Lambda0=1.215574525D-03 Lambda=-6.59023473D-03.
 Linear search not attempted -- option 19 set.
 Maximum step size (   0.300) exceeded in Quadratic search.
    -- Step size scaled by   0.401
 Iteration  1 RMS(Cart)=  0.08708083 RMS(Int)=  0.00231436
 Iteration  2 RMS(Cart)=  0.00378145 RMS(Int)=  0.00016888
 Iteration  3 RMS(Cart)=  0.00000730 RMS(Int)=  0.00016881
 Iteration  4 RMS(Cart)=  0.00000000 RMS(Int)=  0.00016881
 Variable       Old X    -DE/DX   Delta X   Delta X   Delta X     New X
                                 (Linear)    (Quad)   (Total)
    R1        2.05914   0.00123   0.00000   0.00150   0.00150   2.06064
    R2        2.06909  -0.00009   0.00000   0.00061   0.00061   2.06970
    R3        2.05999   0.00043   0.00000   0.00090   0.00090   2.06090
    R4        2.74319  -0.00418   0.00000  -0.00599  -0.00599   2.73720
    R5        2.06574   0.00057   0.00000   0.00073   0.00073   2.06647
    R6        2.06715   0.00011   0.00000   0.00049   0.00049   2.06764
    R7        2.06577   0.00061   0.00000   0.00005   0.00005   2.06581
    R8        2.86192  -0.00205   0.00000   0.00028   0.00028   2.86220
    R9        2.59957   0.00402   0.00000   0.01281   0.01281   2.61238
   R10        2.65353   0.00033   0.00000   0.00976   0.00976   2.66330
   R11        2.81185  -0.00363   0.00000  -0.03692  -0.03692   2.77493
   R12        1.83531   0.00202   0.00000   0.00162   0.00162   1.83693
   R13        1.87268  -0.00150   0.00000   0.00663   0.00663   1.87931
   R14        2.01434  -0.00212   0.00000  -0.05529  -0.05529   1.95904
   R15        2.79052  -0.00573   0.00000   0.00394   0.00394   2.79446
   R16        2.74401   0.00424   0.00000   0.15675   0.15675   2.90076
   R17        1.84275   0.00040   0.00000  -0.00010  -0.00010   1.84265
   R18        2.05644   0.00023   0.00000  -0.00040  -0.00040   2.05604
   R19        2.06103  -0.00021   0.00000  -0.00069  -0.00069   2.06034
   R20        2.05699   0.00019   0.00000  -0.00047  -0.00047   2.05653
    A1        1.91857   0.00083   0.00000   0.00295   0.00295   1.92153
    A2        1.92030  -0.00010   0.00000  -0.00202  -0.00202   1.91828
    A3        1.92468   0.00112   0.00000   0.00090   0.00090   1.92557
    A4        1.92536  -0.00068   0.00000  -0.00411  -0.00411   1.92125
    A5        1.94244  -0.00076   0.00000  -0.00026  -0.00026   1.94218
    A6        1.83095  -0.00048   0.00000   0.00238   0.00238   1.83334
    A7        1.88687   0.00163   0.00000   0.00300   0.00299   1.88986
    A8        1.89143   0.00112   0.00000   0.00495   0.00495   1.89638
    A9        1.92879  -0.00208   0.00000  -0.00427  -0.00428   1.92452
   A10        1.92350  -0.00033   0.00000  -0.00361  -0.00361   1.91989
   A11        1.92503  -0.00082   0.00000  -0.00468  -0.00468   1.92035
   A12        1.90790   0.00051   0.00000   0.00468   0.00469   1.91259
   A13        2.02141  -0.00174   0.00000  -0.00870  -0.00885   2.01256
   A14        1.90986  -0.00149   0.00000  -0.01173  -0.01187   1.89799
   A15        1.86956   0.00043   0.00000   0.00658   0.00665   1.87620
   A16        1.92827   0.00152   0.00000  -0.00785  -0.00808   1.92019
   A17        1.86258   0.00047   0.00000   0.01203   0.01207   1.87465
   A18        1.86434   0.00107   0.00000   0.01289   0.01293   1.87728
   A19        1.94251  -0.00262   0.00000  -0.01047  -0.01047   1.93204
   A20        1.75441   0.00452   0.00000  -0.00683  -0.00784   1.74657
   A21        2.00700  -0.00359   0.00000  -0.01298  -0.01374   1.99325
   A22        2.05241  -0.00487   0.00000  -0.04006  -0.04064   2.01177
   A23        2.06439   0.00270   0.00000  -0.00478  -0.00478   2.05961
   A24        2.74653   0.00726   0.00000  -0.04679  -0.04679   2.69974
   A25        1.88178   0.00830   0.00000   0.00067   0.00062   1.88240
   A26        1.89496  -0.00143   0.00000   0.00055   0.00047   1.89543
   A27        2.09890  -0.00532   0.00000  -0.01978  -0.01981   2.07909
   A28        1.84381  -0.00028   0.00000   0.00161   0.00161   1.84542
   A29        1.91595  -0.00130   0.00000  -0.00687  -0.00689   1.90906
   A30        1.85883  -0.00056   0.00000  -0.00606  -0.00608   1.85275
   A31        1.95260   0.00045   0.00000   0.00313   0.00313   1.95573
   A32        1.93223   0.00109   0.00000   0.00650   0.00650   1.93874
   A33        1.95468   0.00046   0.00000   0.00103   0.00098   1.95566
    D1        1.06183   0.00088   0.00000   0.03290   0.03290   1.09473
    D2       -1.07220  -0.00044   0.00000   0.02869   0.02869  -1.04351
    D3        3.12885   0.00106   0.00000   0.03231   0.03232  -3.12202
    D4        3.12029   0.00003   0.00000   0.01035   0.01031   3.13060
    D5       -0.96992  -0.00052   0.00000  -0.01705  -0.01700  -0.98692
    D6        1.04499   0.00020   0.00000  -0.00433  -0.00432   1.04066
    D7        1.03486  -0.00016   0.00000   0.01232   0.01227   1.04713
    D8       -3.05535  -0.00071   0.00000  -0.01508  -0.01503  -3.07038
    D9       -1.04044   0.00002   0.00000  -0.00235  -0.00236  -1.04280
   D10       -1.08266   0.00045   0.00000   0.01675   0.01671  -1.06595
   D11        1.11031  -0.00011   0.00000  -0.01064  -0.01060   1.09972
   D12        3.12522   0.00062   0.00000   0.00208   0.00208   3.12730
   D13       -0.31601  -0.00119   0.00000  -0.05500  -0.05496  -0.37097
   D14       -2.49957   0.00093   0.00000  -0.02533  -0.02538  -2.52495
   D15        1.76312  -0.00137   0.00000  -0.04330  -0.04330   1.71982
   D16       -2.58918  -0.00153   0.00000  -0.08616  -0.08623  -2.67541
   D17       -0.34363  -0.00379   0.00000  -0.11232  -0.11226  -0.45589
   D18        1.67577  -0.00185   0.00000  -0.09489  -0.09488   1.58089
   D19       -1.51840  -0.00134   0.00000  -0.01052  -0.01052  -1.52892
   D20        2.46467   0.00040   0.00000   0.01398   0.01399   2.47866
   D21        2.58952   0.00021   0.00000  -0.01092  -0.01092   2.57860
   D22        0.28941   0.00196   0.00000   0.01357   0.01358   0.30299
   D23        0.52664  -0.00232   0.00000  -0.01437  -0.01439   0.51225
   D24       -1.77348  -0.00058   0.00000   0.01012   0.01011  -1.76336
   D25       -0.44616  -0.00227   0.00000   0.04599   0.04622  -0.39994
   D26       -2.63807   0.00175   0.00000   0.09202   0.09179  -2.54628
   D27       -3.13672   0.00075   0.00000   0.03540   0.03518  -3.10153
   D28       -1.02858   0.00042   0.00000   0.03636   0.03612  -0.99245
   D29        1.09096  -0.00010   0.00000   0.03004   0.02985   1.12081
   D30       -1.07556   0.00007   0.00000  -0.01734  -0.01713  -1.09269
   D31        1.03258  -0.00026   0.00000  -0.01639  -0.01619   1.01639
   D32       -3.13107  -0.00077   0.00000  -0.02270  -0.02247   3.12965
   D33        0.08194  -0.00115   0.00000  -0.00494  -0.00501   0.07693
   D34        2.26513   0.00036   0.00000  -0.01941  -0.01934   2.24579
         Item               Value     Threshold  Converged?
 Maximum Force            0.008301     0.000450     NO 
 RMS     Force            0.002183     0.000300     NO 
 Maximum Displacement     0.304343     0.001800     NO 
 RMS     Displacement     0.088363     0.001200     NO 
 Predicted change in Energy=-1.910327D-03
 GradGradGradGradGradGradGradGradGradGradGradGradGradGradGradGradGradGrad

                          Input orientation:                          
 ---------------------------------------------------------------------
 Center     Atomic      Atomic             Coordinates (Angstroms)
 Number     Number       Type             X           Y           Z
 ---------------------------------------------------------------------
      1          6           0        0.524401    2.038997   -0.138215
      2          1           0        1.562703    2.372065   -0.129897
      3          1           0        0.104335    2.091271    0.871916
      4          1           0       -0.059268    2.659635   -0.819024
      5          6           0        1.429433   -1.440132   -0.964831
      6          1           0        0.530718   -1.786079   -1.482937
      7          1           0        1.869074   -2.290621   -0.435167
      8          1           0        2.134820   -1.056413   -1.706608
      9          6           0        1.078696   -0.342166    0.017771
     10          8           0        2.141441    0.163786    0.742788
     11          1           0        2.878709   -0.469517    0.759121
     12          8           0       -1.974660   -0.436962   -0.332503
     13          1           0       -1.426881    0.214166   -0.847259
     14          8           0        0.430423    0.698097   -0.677844
     15          1           0       -1.290676   -0.713522    0.395775
     16          8           0        0.117469   -0.899386    0.977894
     17          1           0        0.316813   -0.539566    1.861967
     18          6           0       -3.250345    0.111887    0.175566
     19          1           0       -3.711842   -0.692514    0.744533
     20          1           0       -3.047150    0.986498    0.794024
     21          1           0       -3.843687    0.360998   -0.702052
 ---------------------------------------------------------------------
                    Distance matrix (angstroms):
                    1          2          3          4          5
     1  C    0.000000
     2  H    1.090446   0.000000
     3  H    1.095240   1.791455   0.000000
     4  H    1.090579   1.785604   1.791390   0.000000
     5  C    3.688728   3.904833   4.195275   4.364124   0.000000
     6  H    4.054569   4.492869   4.556422   4.533568   1.093527
     7  H    4.543337   4.682701   4.901402   5.326432   1.094147
     8  H    3.825554   3.816778   4.547479   4.405773   1.093181
     9  C    2.449798   2.760999   2.756911   3.317529   1.514613
    10  O    2.628193   2.443975   2.807432   3.675818   2.448565
    11  H    3.555365   3.255275   3.777235   4.573166   2.452449
    12  O    3.523270   4.521572   3.487809   3.673464   3.604724
    13  H    2.764101   3.756161   2.970473   2.802049   3.302886
    14  O    1.448463   2.093913   2.109270   2.026662   2.377479
    15  H    3.340062   4.235440   3.168538   3.790816   3.127012
    16  O    3.169446   3.744101   2.992563   3.990837   2.405792
    17  H    3.269985   3.741304   2.818980   4.190946   3.168554
    18  C    4.249814   5.326081   3.956860   4.202760   5.060592
    19  H    5.117241   6.162556   4.725346   5.198356   5.469330
    20  H    3.838334   4.901446   3.340427   3.785334   5.387198
    21  H    4.713151   5.796620   4.588911   4.429361   5.578433
                    6          7          8          9         10
     6  H    0.000000
     7  H    1.773014   0.000000
     8  H    1.776396   1.791774   0.000000
     9  C    2.153437   2.150889   2.144535   0.000000
    10  O    3.369014   2.736032   2.736506   1.382412   0.000000
    11  H    3.503316   2.400438   2.641522   1.950863   0.972061
    12  O    3.069289   4.268592   4.377180   3.074843   4.296445
    13  H    2.870063   4.160179   3.877958   2.708449   3.906880
    14  O    2.613306   3.325814   2.653607   1.409357   2.287196
    15  H    2.827970   3.627909   4.033808   2.427904   3.559427
    16  O    2.648148   2.645826   3.361683   1.468430   2.298277
    17  H    3.576022   3.279105   4.038194   2.005116   2.253117
    18  C    4.544155   5.688012   5.823014   4.355646   5.421788
    19  H    4.914959   5.923872   6.350116   4.858002   5.915588
    20  H    5.066841   6.034871   6.105690   4.403467   5.253662
    21  H    4.935092   6.303803   6.225811   5.024185   6.160212
                   11         12         13         14         15
    11  H    0.000000
    12  O    4.974726   0.000000
    13  H    4.646072   0.994486   0.000000
    14  O    3.069576   2.681798   1.926777   0.000000
    15  H    4.192294   1.036681   1.557013   2.471337   0.000000
    16  O    2.803051   2.511569   2.637460   2.321930   1.535018
    17  H    2.790069   3.174441   3.308850   2.827606   2.182660
    18  C    6.184162   1.478763   2.093240   3.823611   2.137777
    19  H    6.594339   2.059883   2.928638   4.595140   2.446246
    20  H    6.102213   2.108444   2.432197   3.787226   2.476665
    21  H    6.929313   2.065567   2.425612   4.287451   2.979543
                   16         17         18         19         20
    16  O    0.000000
    17  H    0.975087   0.000000
    18  C    3.606739   3.999119   0.000000
    19  H    3.841989   4.183553   1.088009   0.000000
    20  H    3.688520   3.845207   1.090285   1.806473   0.000000
    21  H    4.483474   4.969403   1.088267   1.794402   1.806645
                   21
    21  H    0.000000
 Stoichiometry    C4H13O4(1+)
 Framework group  C1[X(C4H13O4)]
 Deg. of freedom    57
 Full point group                 C1      NOp   1
 Largest Abelian subgroup         C1      NOp   1
 Largest concise Abelian subgroup C1      NOp   1
                         Standard orientation:                         
 ---------------------------------------------------------------------
 Center     Atomic      Atomic             Coordinates (Angstroms)
 Number     Number       Type             X           Y           Z
 ---------------------------------------------------------------------
      1          6           0        0.434316    2.061232   -0.180275
      2          1           0        1.458198    2.436380   -0.181834
      3          1           0        0.013526    2.120066    0.829193
      4          1           0       -0.174859    2.641451   -0.874259
      5          6           0        1.479437   -1.396631   -0.927020
      6          1           0        0.595017   -1.790930   -1.435086
      7          1           0        1.953906   -2.215856   -0.378469
      8          1           0        2.167834   -1.002042   -1.678986
      9          6           0        1.085298   -0.291084    0.030307
     10          8           0        2.127311    0.274576    0.741152
     11          1           0        2.889778   -0.327642    0.770834
     12          8           0       -1.962028   -0.518251   -0.311545
     13          1           0       -1.441762    0.142366   -0.842498
     14          8           0        0.394466    0.705321   -0.688174
     15          1           0       -1.266587   -0.749576    0.421639
     16          8           0        0.148568   -0.864267    1.005133
     17          1           0        0.334015   -0.475979    1.880139
     18          6           0       -3.258477   -0.009995    0.186086
     19          1           0       -3.686233   -0.818932    0.774651
     20          1           0       -3.090427    0.886437    0.783491
     21          1           0       -3.862389    0.194094   -0.695935
 ---------------------------------------------------------------------
 Rotational constants (GHZ):      2.6835871      1.1835465      1.0136551
 Standard basis: 6-31+G(d) (6D, 7F)
 There are   178 symmetry adapted basis functions of A   symmetry.
 Integral buffers will be    262144 words long.
 Raffenetti 2 integral format.
 Two-electron integral symmetry is turned on.
   178 basis functions,   308 primitive gaussians,   178 cartesian basis functions
    34 alpha electrons       34 beta electrons
       nuclear repulsion energy       458.3410928575 Hartrees.
 NAtoms=   21 NActive=   21 NUniq=   21 SFac= 7.50D-01 NAtFMM=   80 NAOKFM=F Big=F
 ------------------------------------------------------------------------------
 Polarizable Continuum Model (PCM)
 =================================
 Model                : PCM.
 Atomic radii         : SMD-Coulomb.
 Polarization charges : Total charges.
 Charge compensation  : None.
 Solution method      : Matrix inversion.
 Cavity type          : VdW (van der Waals Surface) (Alpha=1.000).
 Cavity algorithm     : GePol (No added spheres)
                        Default sphere list used, NSphG=   21.
                        Lebedev-Laikov grids with approx.  5.0 points / Ang**2.
                        Smoothing algorithm: Karplus/York (Gamma=1.0000).
                        Polarization charges: spherical gaussians, with
                                              point-specific exponents (IZeta= 3).
                        Self-potential: point-specific (ISelfS= 7).
                        Self-field    : sphere-specific E.n sum rule (ISelfD= 2).
 1st derivatives      : Analytical E(r).r(x)/FMM algorithm (CHGder, D1EAlg=3).
                        Cavity 1st derivative terms included.
 Solvent              : Methanol, Eps=  32.613000 Eps(inf)=   1.765709
 ------------------------------------------------------------------------------
 ------------------------------------------------------------------------------
 Atomic radii for non-electrostatic terms: SMD-CDS.
 ------------------------------------------------------------------------------
 Nuclear repulsion after PCM non-electrostatic terms =      458.3452207139 Hartrees.
 One-electron integrals computed using PRISM.
 NBasis=   178 RedAO= T  NBF=   178
 NBsUse=   178 1.00D-06 NBFU=   178
 Initial guess read from the read-write file.
 B after Tr=     0.000000    0.000000    0.000000
         Rot=    1.000000    0.000000    0.000000    0.000000 Ang=   0.00 deg.
 Initial guess orbital symmetries:
       Occupied  (A) (A) (A) (A) (A) (A) (A) (A) (A) (A) (A) (A)
                 (A) (A) (A) (A) (A) (A) (A) (A) (A) (A) (A) (A)
                 (A) (A) (A) (A) (A) (A) (A) (A) (A) (A)
       Virtual   (A) (A) (A) (A) (A) (A) (A) (A) (A) (A) (A) (A)
                 (A) (A) (A) (A) (A) (A) (A) (A) (A) (A) (A) (A)
                 (A) (A) (A) (A) (A) (A) (A) (A) (A) (A) (A) (A)
                 (A) (A) (A) (A) (A) (A) (A) (A) (A) (A) (A) (A)
                 (A) (A) (A) (A) (A) (A) (A) (A) (A) (A) (A) (A)
                 (A) (A) (A) (A) (A) (A) (A) (A) (A) (A) (A) (A)
                 (A) (A) (A) (A) (A) (A) (A) (A) (A) (A) (A) (A)
                 (A) (A) (A) (A) (A) (A) (A) (A) (A) (A) (A) (A)
                 (A) (A) (A) (A) (A) (A) (A) (A) (A) (A) (A) (A)
                 (A) (A) (A) (A) (A) (A) (A) (A) (A) (A) (A) (A)
                 (A) (A) (A) (A) (A) (A) (A) (A) (A) (A) (A) (A)
                 (A) (A) (A) (A) (A) (A) (A) (A) (A) (A) (A) (A)
 Harris functional with IExCor= 3102 diagonalized for initial guess.
 ExpMin= 4.38D-02 ExpMax= 5.48D+03 ExpMxC= 8.25D+02 IAcc=2 IRadAn=         0 AccDes= 0.00D+00
 HarFok:  IExCor= 3102 AccDes= 0.00D+00 IRadAn=         0 IDoV= 1
 ScaDFX=  1.000000  1.000000  1.000000  1.000000
 FoFCou: FMM=F IPFlag=           0 FMFlag=      100000 FMFlg1=           0
         NFxFlg=           0 DoJE=T BraDBF=F KetDBF=T FulRan=T
         Omega=  0.000000  0.000000  1.000000  0.000000  0.000000 ICntrl=     500 IOpCl=  0
         NMat0=    1 NMatS0=    1 NMatT0=    0 NMatD0=    1 NMtDS0=    0 NMtDT0=    0
         I1Cent=           4 NGrid=           0.
 Petite list used in FoFCou.
 Requested convergence on RMS density matrix=1.00D-08 within 128 cycles.
 Requested convergence on MAX density matrix=1.00D-06.
 Requested convergence on             energy=1.00D-06.
 No special actions if energy rises.
 Error on total polarization charges =  0.04510
 SCF Done:  E(RX3LYP) =  -460.794897850     A.U. after   11 cycles
             Convg  =    0.1811D-08             -V/T =  2.0092
 SMD-CDS (non-electrostatic) energy             (kcal/mol) =       2.59
 (included in total energy above)
 D1PCM: PCM CHGder 1st derivatives, ID1Alg=3 FixD1E=F DoIter=F DoCFld=F I1PDM=0.
 Calling FoFJK, ICntrl=      2127 FMM=F ISym2X=0 I1Cent= 0 IOpClX= 0 NMat=1 NMatS=1 NMatT=0.
 ***** Axes restored to original set *****
 -------------------------------------------------------------------
 Center     Atomic                   Forces (Hartrees/Bohr)
 Number     Number              X              Y              Z
 -------------------------------------------------------------------
      1        6          -0.001678951   -0.003233038    0.000581618
      2        1           0.000544266    0.000695687   -0.000402253
      3        1          -0.000363430   -0.000188340   -0.000196850
      4        1          -0.000563856    0.000115805    0.000197002
      5        6          -0.000686144    0.000195221   -0.000622609
      6        1          -0.000799777    0.000660490    0.000300787
      7        1           0.000783313    0.000565362    0.000220161
      8        1           0.000785879   -0.000021038    0.000133166
      9        6          -0.005761533   -0.002182981    0.003945058
     10        8           0.003290477    0.002144120   -0.000473779
     11        1           0.000135813   -0.001748276    0.000505423
     12        8          -0.002113144   -0.000362575   -0.000488001
     13        1          -0.003061021    0.001104087    0.000361629
     14        8           0.004257503    0.002537038   -0.001905396
     15        1          -0.002139001    0.000769213    0.001280002
     16        8           0.005707036   -0.002314719   -0.002415119
     17        1          -0.002039510    0.001689569    0.000109126
     18        6           0.002589270   -0.000274450   -0.001055379
     19        1           0.000492793   -0.000279036    0.000284721
     20        1           0.000319125   -0.000185621   -0.000082888
     21        1           0.000300892    0.000313485   -0.000276420
 -------------------------------------------------------------------
 Cartesian Forces:  Max     0.005761533 RMS     0.001787773

 GradGradGradGradGradGradGradGradGradGradGradGradGradGradGradGradGradGrad
 Berny optimization.
 Internal  Forces:  Max     0.006091871 RMS     0.001466773
 Search for a saddle point.
 Step number   2 out of a maximum of   20
 All quantities printed in internal units (Hartrees-Bohrs-Radians)
 Swaping is turned off.
 Update second derivatives using D2CorX and points    1    2
     Eigenvalues ---   -0.00410  -0.00055   0.00101   0.00157   0.00250
     Eigenvalues ---    0.00342   0.00465   0.00585   0.01206   0.01476
     Eigenvalues ---    0.03512   0.04479   0.04501   0.04573   0.05602
     Eigenvalues ---    0.06145   0.06354   0.07403   0.07775   0.08557
     Eigenvalues ---    0.08653   0.09991   0.11802   0.12502   0.13006
     Eigenvalues ---    0.13125   0.13336   0.14155   0.14745   0.16582
     Eigenvalues ---    0.17781   0.18678   0.18853   0.19151   0.19485
     Eigenvalues ---    0.19947   0.22822   0.23973   0.29075   0.30768
     Eigenvalues ---    0.31271   0.31673   0.34323   0.34701   0.34738
     Eigenvalues ---    0.34926   0.35411   0.35489   0.35599   0.36146
     Eigenvalues ---    0.36355   0.36732   0.42125   0.44530   0.47605
     Eigenvalues ---    0.49564   0.508001000.000001000.000001000.00000
     Eigenvalues --- 1000.000001000.000001000.000001000.000001000.00000
     Eigenvalues --- 1000.000001000.000001000.000001000.000001000.00000
     Eigenvalues --- 1000.000001000.000001000.000001000.000001000.00000
     Eigenvalues --- 1000.000001000.000001000.000001000.000001000.00000
     Eigenvalues --- 1000.000001000.000001000.000001000.000001000.00000
     Eigenvalues --- 1000.000001000.00000
 Eigenvectors required to have negative eigenvalues:
                          R16       A24       D16       D18       D17
   1                    0.53379  -0.51261   0.26824   0.25179   0.23021
                          D26       R14       D25       A20       D32
   1                    0.22674  -0.17222   0.16649  -0.15718  -0.10557
 RFO step:  Lambda0=2.160455157D-03 Lambda=-3.55693249D-03.
 Linear search not attempted -- option 19 set.
 Maximum step size (   0.300) exceeded in Quadratic search.
    -- Step size scaled by   0.301
 Iteration  1 RMS(Cart)=  0.05298249 RMS(Int)=  0.00280844
 Iteration  2 RMS(Cart)=  0.00409153 RMS(Int)=  0.00005361
 Iteration  3 RMS(Cart)=  0.00002496 RMS(Int)=  0.00005278
 Iteration  4 RMS(Cart)=  0.00000000 RMS(Int)=  0.00005278
 Variable       Old X    -DE/DX   Delta X   Delta X   Delta X     New X
                                 (Linear)    (Quad)   (Total)
    R1        2.06064   0.00073   0.00000   0.00056   0.00056   2.06121
    R2        2.06970  -0.00009   0.00000  -0.00043  -0.00043   2.06928
    R3        2.06090   0.00027   0.00000   0.00055   0.00055   2.06145
    R4        2.73720  -0.00256   0.00000  -0.00173  -0.00173   2.73546
    R5        2.06647   0.00031   0.00000   0.00029   0.00029   2.06675
    R6        2.06764   0.00000   0.00000   0.00016   0.00016   2.06780
    R7        2.06581   0.00039   0.00000  -0.00005  -0.00005   2.06576
    R8        2.86220  -0.00102   0.00000   0.00156   0.00156   2.86376
    R9        2.61238   0.00280   0.00000   0.00627   0.00627   2.61865
   R10        2.66330  -0.00010   0.00000   0.01002   0.01002   2.67332
   R11        2.77493  -0.00164   0.00000  -0.02372  -0.02372   2.75121
   R12        1.83693   0.00124   0.00000   0.00098   0.00098   1.83791
   R13        1.87931  -0.00117   0.00000   0.00910   0.00910   1.88841
   R14        1.95904   0.00186   0.00000  -0.03777  -0.03777   1.92128
   R15        2.79446  -0.00371   0.00000   0.00120   0.00120   2.79566
   R16        2.90076   0.00338   0.00000   0.14409   0.14409   3.04486
   R17        1.84265   0.00033   0.00000   0.00015   0.00015   1.84280
   R18        2.05604   0.00015   0.00000  -0.00008  -0.00008   2.05596
   R19        2.06034  -0.00012   0.00000  -0.00020  -0.00020   2.06014
   R20        2.05653   0.00011   0.00000  -0.00043  -0.00043   2.05610
    A1        1.92153   0.00045   0.00000   0.00188   0.00187   1.92340
    A2        1.91828  -0.00015   0.00000  -0.00066  -0.00066   1.91762
    A3        1.92557   0.00074   0.00000  -0.00012  -0.00012   1.92545
    A4        1.92125  -0.00041   0.00000  -0.00221  -0.00221   1.91904
    A5        1.94218  -0.00046   0.00000   0.00000   0.00000   1.94218
    A6        1.83334  -0.00020   0.00000   0.00101   0.00101   1.83435
    A7        1.88986   0.00103   0.00000   0.00219   0.00219   1.89205
    A8        1.89638   0.00070   0.00000   0.00269   0.00269   1.89907
    A9        1.92452  -0.00126   0.00000  -0.00125  -0.00125   1.92327
   A10        1.91989  -0.00024   0.00000  -0.00300  -0.00300   1.91689
   A11        1.92035  -0.00046   0.00000  -0.00112  -0.00112   1.91923
   A12        1.91259   0.00023   0.00000   0.00053   0.00053   1.91312
   A13        2.01256  -0.00093   0.00000  -0.00417  -0.00429   2.00827
   A14        1.89799  -0.00110   0.00000  -0.00802  -0.00810   1.88988
   A15        1.87620   0.00017   0.00000   0.00315   0.00317   1.87938
   A16        1.92019   0.00082   0.00000  -0.01151  -0.01163   1.90856
   A17        1.87465   0.00031   0.00000   0.01262   0.01265   1.88729
   A18        1.87728   0.00087   0.00000   0.00974   0.00978   1.88706
   A19        1.93204  -0.00138   0.00000  -0.00598  -0.00598   1.92607
   A20        1.74657   0.00277   0.00000  -0.01724  -0.01742   1.72916
   A21        1.99325  -0.00256   0.00000   0.00126   0.00101   1.99426
   A22        2.01177  -0.00239   0.00000  -0.01760  -0.01771   1.99406
   A23        2.05961   0.00131   0.00000   0.00075   0.00075   2.06036
   A24        2.69974   0.00515   0.00000  -0.08463  -0.08463   2.61511
   A25        1.88240   0.00609   0.00000  -0.00433  -0.00437   1.87803
   A26        1.89543  -0.00092   0.00000  -0.00153  -0.00159   1.89384
   A27        2.07909  -0.00373   0.00000  -0.01004  -0.01008   2.06901
   A28        1.84542  -0.00057   0.00000  -0.00063  -0.00064   1.84478
   A29        1.90906  -0.00050   0.00000  -0.00166  -0.00166   1.90740
   A30        1.85275  -0.00018   0.00000  -0.00281  -0.00281   1.84994
   A31        1.95573   0.00026   0.00000  -0.00004  -0.00004   1.95569
   A32        1.93874   0.00067   0.00000   0.00366   0.00366   1.94240
   A33        1.95566   0.00022   0.00000   0.00109   0.00109   1.95675
    D1        1.09473   0.00074   0.00000   0.02673   0.02673   1.12146
    D2       -1.04351  -0.00003   0.00000   0.02442   0.02442  -1.01909
    D3       -3.12202   0.00083   0.00000   0.02646   0.02646  -3.09556
    D4        3.13060   0.00009   0.00000   0.01212   0.01211  -3.14048
    D5       -0.98692  -0.00038   0.00000  -0.01259  -0.01258  -0.99950
    D6        1.04066   0.00017   0.00000  -0.00361  -0.00361   1.03705
    D7        1.04713  -0.00011   0.00000   0.01091   0.01089   1.05803
    D8       -3.07038  -0.00058   0.00000  -0.01380  -0.01379  -3.08417
    D9       -1.04280  -0.00003   0.00000  -0.00482  -0.00482  -1.04762
   D10       -1.06595   0.00032   0.00000   0.01500   0.01498  -1.05097
   D11        1.09972  -0.00015   0.00000  -0.00971  -0.00970   1.09002
   D12        3.12730   0.00040   0.00000  -0.00073  -0.00073   3.12657
   D13       -0.37097  -0.00106   0.00000  -0.10140  -0.10136  -0.47234
   D14       -2.52495   0.00044   0.00000  -0.07828  -0.07834  -2.60329
   D15        1.71982  -0.00121   0.00000  -0.09087  -0.09084   1.62897
   D16       -2.67541  -0.00130   0.00000  -0.00915  -0.00921  -2.68462
   D17       -0.45589  -0.00270   0.00000  -0.02828  -0.02821  -0.48409
   D18        1.58089  -0.00140   0.00000  -0.01389  -0.01391   1.56698
   D19       -1.52892  -0.00053   0.00000   0.02084   0.02086  -1.50806
   D20        2.47866   0.00050   0.00000   0.03779   0.03779   2.51645
   D21        2.57860   0.00031   0.00000   0.01641   0.01643   2.59503
   D22        0.30299   0.00134   0.00000   0.03336   0.03337   0.33636
   D23        0.51225  -0.00128   0.00000   0.01811   0.01809   0.53033
   D24       -1.76336  -0.00024   0.00000   0.03505   0.03503  -1.72834
   D25       -0.39994  -0.00172   0.00000   0.06728   0.06746  -0.33247
   D26       -2.54628   0.00076   0.00000   0.08654   0.08636  -2.45993
   D27       -3.10153   0.00019   0.00000   0.01538   0.01536  -3.08617
   D28       -0.99245  -0.00010   0.00000   0.01408   0.01406  -0.97839
   D29        1.12081  -0.00022   0.00000   0.01283   0.01281   1.13362
   D30       -1.09269   0.00026   0.00000  -0.01905  -0.01904  -1.11172
   D31        1.01639  -0.00004   0.00000  -0.02036  -0.02034   0.99605
   D32        3.12965  -0.00015   0.00000  -0.02161  -0.02159   3.10806
   D33        0.07693  -0.00121   0.00000  -0.06755  -0.06759   0.00934
   D34        2.24579   0.00010   0.00000  -0.08125  -0.08121   2.16458
         Item               Value     Threshold  Converged?
 Maximum Force            0.006092     0.000450     NO 
 RMS     Force            0.001467     0.000300     NO 
 Maximum Displacement     0.156082     0.001800     NO 
 RMS     Displacement     0.053267     0.001200     NO 
 Predicted change in Energy=-4.590398D-04
 GradGradGradGradGradGradGradGradGradGradGradGradGradGradGradGradGradGrad

                          Input orientation:                          
 ---------------------------------------------------------------------
 Center     Atomic      Atomic             Coordinates (Angstroms)
 Number     Number       Type             X           Y           Z
 ---------------------------------------------------------------------
      1          6           0        0.481259    2.027152   -0.129866
      2          1           0        1.510613    2.386777   -0.158540
      3          1           0        0.094334    2.069306    0.893641
      4          1           0       -0.141863    2.633533   -0.788669
      5          6           0        1.416963   -1.441757   -0.967565
      6          1           0        0.508181   -1.803154   -1.457097
      7          1           0        1.888535   -2.282777   -0.450212
      8          1           0        2.094806   -1.047817   -1.729352
      9          6           0        1.076986   -0.348470    0.025256
     10          8           0        2.160365    0.184872    0.705023
     11          1           0        2.876270   -0.470446    0.767856
     12          8           0       -1.959499   -0.464243   -0.326173
     13          1           0       -1.351158    0.172518   -0.798472
     14          8           0        0.402558    0.685004   -0.666364
     15          1           0       -1.333286   -0.762882    0.417023
     16          8           0        0.159327   -0.911120    1.005514
     17          1           0        0.358009   -0.519356    1.876143
     18          6           0       -3.222393    0.141486    0.150075
     19          1           0       -3.744241   -0.648721    0.685729
     20          1           0       -2.993910    0.990806    0.794232
     21          1           0       -3.767334    0.439812   -0.743162
 ---------------------------------------------------------------------
                    Distance matrix (angstroms):
                    1          2          3          4          5
     1  C    0.000000
     2  H    1.090744   0.000000
     3  H    1.095013   1.792685   0.000000
     4  H    1.090871   1.785674   1.790058   0.000000
     5  C    3.689256   3.914201   4.188197   4.366913   0.000000
     6  H    4.053827   4.499628   4.548977   4.533602   1.093679
     7  H    4.545166   4.693893   4.895480   5.329838   1.094234
     8  H    3.823262   3.821671   4.538550   4.409072   1.093152
     9  C    2.454086   2.775499   2.750516   3.322711   1.515438
    10  O    2.628770   2.452815   2.802704   3.677949   2.448697
    11  H    3.574910   3.299538   3.768996   4.600716   2.466720
    12  O    3.493262   4.494229   3.482103   3.621314   3.573151
[...]
     14          8           0        0.532106    0.691699   -0.768745
     15          1           0       -1.263529   -0.783339    0.288126
     16          8           0        0.194509   -0.841580    0.961898
     17          1           0        0.184861   -0.238748    1.730468
     18          6           0       -3.155689    0.154626    0.250866
     19          1           0       -3.747042   -0.665757    0.652418
     20          1           0       -2.815647    0.835801    1.030991
     21          1           0       -3.687052    0.675947   -0.543346
 ---------------------------------------------------------------------
                    Distance matrix (angstroms):
                    1          2          3          4          5
     1  C    0.000000
     2  H    1.092659   0.000000
     3  H    1.095356   1.792584   0.000000
     4  H    1.091116   1.785555   1.785604   0.000000
     5  C    3.705401   4.033577   4.139118   4.377632   0.000000
     6  H    4.029682   4.583556   4.431389   4.505571   1.094023
     7  H    4.550013   4.797436   4.833860   5.331194   1.094001
     8  H    3.903509   4.030047   4.567939   4.480857   1.093233
     9  C    2.433585   2.794463   2.704435   3.303936   1.514764
    10  O    2.683923   2.502670   2.915478   3.718210   2.445954
    11  H    3.648305   3.449074   3.792531   4.683421   2.545771
    12  O    3.448975   4.486774   3.288686   3.580347   3.618414
    13  H    2.749908   3.788307   2.856893   2.750253   3.347883
    14  O    1.441869   2.094561   2.105542   2.025535   2.360640
    15  H    3.271993   4.200461   3.001432   3.713176   3.066834
    16  O    3.049096   3.640472   2.786607   3.889354   2.387397
    17  H    2.924273   3.433325   2.365374   3.835054   3.226589
    18  C    4.037273   5.110210   3.587746   3.992100   5.032642
    19  H    5.004188   6.055956   4.487182   5.049822   5.500945
    20  H    3.630827   4.638392   2.944926   3.672719   5.245027
    21  H    4.328318   5.413988   4.046181   4.002251   5.582513
                    6          7          8          9         10
     6  H    0.000000
     7  H    1.779970   0.000000
     8  H    1.782766   1.784898   0.000000
     9  C    2.153502   2.150034   2.139591   0.000000
    10  O    3.372035   2.734077   2.706302   1.395379   0.000000
    11  H    3.563306   2.427213   2.844044   1.947924   0.974014
    12  O    3.049240   4.277534   4.400476   3.137497   4.397881
    13  H    2.866669   4.202153   3.933414   2.808288   4.041921
    14  O    2.604638   3.311429   2.622816   1.402446   2.273142
    15  H    2.717061   3.566697   3.985249   2.456426   3.654810
    16  O    2.639573   2.626838   3.339836   1.451453   2.314026
    17  H    3.583060   3.431304   4.077076   1.995815   2.367482
    18  C    4.522960   5.648018   5.813589   4.323559   5.412674
    19  H    4.914160   5.960713   6.383171   4.936140   6.050154
    20  H    4.950041   5.836009   6.016849   4.249859   5.115133
    21  H    4.989124   6.320886   6.231768   4.950488   6.066694
                   11         12         13         14         15
    11  H    0.000000
    12  O    4.958314   0.000000
    13  H    4.728611   0.988595   0.000000
    14  O    3.111959   2.798321   2.083204   0.000000
    15  H    4.111671   1.032388   1.568846   2.552845   0.000000
    16  O    2.603280   2.586344   2.726494   2.336673   1.607245
    17  H    2.717177   3.038749   3.175247   2.689308   2.115364
    18  C    6.023433   1.477249   2.064575   3.863662   2.112211
    19  H    6.537755   2.057009   2.899449   4.708874   2.512841
    20  H    5.765020   2.103945   2.483655   3.803586   2.362738
    21  H    6.758774   2.063876   2.307608   4.225203   2.948614
                   16         17         18         19         20
    16  O    0.000000
    17  H    0.976832   0.000000
    18  C    3.566766   3.674676   0.000000
    19  H    3.957590   4.099316   1.088104   0.000000
    20  H    3.446654   3.262970   1.090057   1.807067   0.000000
    21  H    4.431159   4.582424   1.088529   1.798227   1.806499
                   21
    21  H    0.000000
 Stoichiometry    C4H13O4(1+)
 Framework group  C1[X(C4H13O4)]
 Deg. of freedom    57
 Full point group                 C1      NOp   1
 Largest Abelian subgroup         C1      NOp   1
 Largest concise Abelian subgroup C1      NOp   1
                         Standard orientation:                         
 ---------------------------------------------------------------------
 Center     Atomic      Atomic             Coordinates (Angstroms)
 Number     Number       Type             X           Y           Z
 ---------------------------------------------------------------------
      1          6           0        0.253941    2.005561   -0.222565
      2          1           0        1.205685    2.531686   -0.116365
      3          1           0       -0.261225    1.963596    0.743173
      4          1           0       -0.374213    2.524502   -0.948276
      5          6           0        1.512008   -1.424458   -0.840820
      6          1           0        0.630273   -1.851230   -1.327949
      7          1           0        1.992109   -2.199342   -0.235927
      8          1           0        2.211361   -1.075668   -1.605286
      9          6           0        1.111706   -0.256962    0.037372
     10          8           0        2.178731    0.368916    0.682985
     11          1           0        2.757570   -0.307534    1.078035
     12          8           0       -1.980938   -0.618349   -0.348434
     13          1           0       -1.507365    0.018559   -0.937839
     14          8           0        0.458469    0.686809   -0.768503
     15          1           0       -1.253651   -0.841522    0.349472
     16          8           0        0.195831   -0.769186    1.040127
     17          1           0        0.137300   -0.127543    1.774341
     18          6           0       -3.201096   -0.030797    0.241700
     19          1           0       -3.744333   -0.864651    0.681644
     20          1           0       -2.915835    0.712064    0.986689
     21          1           0       -3.753770    0.411492   -0.585239
 ---------------------------------------------------------------------
 Rotational constants (GHZ):      2.7167813      1.1834792      1.0203027

 **********************************************************************

            Population analysis using the SCF density.

 **********************************************************************

 Orbital symmetries:
       Occupied  (A) (A) (A) (A) (A) (A) (A) (A) (A) (A) (A) (A)
                 (A) (A) (A) (A) (A) (A) (A) (A) (A) (A) (A) (A)
                 (A) (A) (A) (A) (A) (A) (A) (A) (A) (A)
       Virtual   (A) (A) (A) (A) (A) (A) (A) (A) (A) (A) (A) (A)
                 (A) (A) (A) (A) (A) (A) (A) (A) (A) (A) (A) (A)
                 (A) (A) (A) (A) (A) (A) (A) (A) (A) (A) (A) (A)
                 (A) (A) (A) (A) (A) (A) (A) (A) (A) (A) (A) (A)
                 (A) (A) (A) (A) (A) (A) (A) (A) (A) (A) (A) (A)
                 (A) (A) (A) (A) (A) (A) (A) (A) (A) (A) (A) (A)
                 (A) (A) (A) (A) (A) (A) (A) (A) (A) (A) (A) (A)
                 (A) (A) (A) (A) (A) (A) (A) (A) (A) (A) (A) (A)
                 (A) (A) (A) (A) (A) (A) (A) (A) (A) (A) (A) (A)
                 (A) (A) (A) (A) (A) (A) (A) (A) (A) (A) (A) (A)
                 (A) (A) (A) (A) (A) (A) (A) (A) (A) (A) (A) (A)
                 (A) (A) (A) (A) (A) (A) (A) (A) (A) (A) (A) (A)
 The electronic state is 1-A.
 Alpha  occ. eigenvalues --  -19.30401 -19.23094 -19.22209 -19.22019 -10.38970
 Alpha  occ. eigenvalues --  -10.28491 -10.25738 -10.21013  -1.14709  -1.13072
 Alpha  occ. eigenvalues --   -1.04392  -1.03775  -0.78124  -0.74768  -0.70289
 Alpha  occ. eigenvalues --   -0.63517  -0.62217  -0.59044  -0.55772  -0.53470
 Alpha  occ. eigenvalues --   -0.50163  -0.49272  -0.47552  -0.44454  -0.44224
 Alpha  occ. eigenvalues --   -0.42645  -0.40847  -0.39977  -0.39081  -0.37682
 Alpha  occ. eigenvalues --   -0.37631  -0.34772  -0.32508  -0.30772
 Alpha virt. eigenvalues --   -0.00745   0.01748   0.02094   0.03016   0.03430
 Alpha virt. eigenvalues --    0.04692   0.05318   0.05853   0.07022   0.07569
 Alpha virt. eigenvalues --    0.08053   0.08718   0.09969   0.10543   0.12167
 Alpha virt. eigenvalues --    0.13452   0.14247   0.14608   0.15671   0.16361
 Alpha virt. eigenvalues --    0.17506   0.17892   0.18667   0.19073   0.19284
 Alpha virt. eigenvalues --    0.20223   0.20559   0.21549   0.22382   0.23761
 Alpha virt. eigenvalues --    0.24145   0.24879   0.24959   0.25878   0.26953
 Alpha virt. eigenvalues --    0.27800   0.28246   0.29343   0.30609   0.30967
 Alpha virt. eigenvalues --    0.32767   0.33450   0.34147   0.34376   0.35781
 Alpha virt. eigenvalues --    0.37103   0.37738   0.39158   0.42110   0.46106
 Alpha virt. eigenvalues --    0.47720   0.62808   0.65277   0.65874   0.67169
 Alpha virt. eigenvalues --    0.69396   0.70903   0.71958   0.75750   0.76616
 Alpha virt. eigenvalues --    0.80380   0.81971   0.85655   0.90047   0.92710
 Alpha virt. eigenvalues --    0.95900   0.97190   0.97724   0.99860   1.04429
 Alpha virt. eigenvalues --    1.07164   1.08418   1.08792   1.10554   1.11442
 Alpha virt. eigenvalues --    1.12557   1.13760   1.14603   1.17379   1.18749
 Alpha virt. eigenvalues --    1.19752   1.23208   1.23574   1.28289   1.28386
 Alpha virt. eigenvalues --    1.31386   1.33148   1.37633   1.40317   1.43721
 Alpha virt. eigenvalues --    1.45802   1.46186   1.51026   1.51161   1.53776
 Alpha virt. eigenvalues --    1.55148   1.58032   1.61022   1.71206   1.73611
 Alpha virt. eigenvalues --    1.75474   1.76291   1.79184   1.84491   1.87550
 Alpha virt. eigenvalues --    1.89682   1.91623   1.94062   1.95984   2.00240
 Alpha virt. eigenvalues --    2.04612   2.05366   2.06977   2.09297   2.19022
 Alpha virt. eigenvalues --    2.22340   2.23786   2.24837   2.26076   2.27009
 Alpha virt. eigenvalues --    2.29263   2.31034   2.34177   2.39048   2.43721
 Alpha virt. eigenvalues --    2.51116   2.55362   2.59842   2.63572   2.64142
 Alpha virt. eigenvalues --    2.71448   2.79783   2.90075   2.94100   2.97558
 Alpha virt. eigenvalues --    3.00158   4.03498   4.17370   4.21244   4.29303
 Alpha virt. eigenvalues --    4.31192   4.39317   4.42669   4.62923
          Condensed to atoms (all electrons):
              1          2          3          4          5          6
     1  C    5.352715   0.392902   0.407386   0.389924  -0.002128   0.001601
     2  H    0.392902   0.476942  -0.034254  -0.025463   0.005544   0.000001
     3  H    0.407386  -0.034254   0.488610  -0.027233  -0.011940  -0.000004
     4  H    0.389924  -0.025463  -0.027233   0.472930   0.003331  -0.000005
     5  C   -0.002128   0.005544  -0.011940   0.003331   6.274784   0.383961
     6  H    0.001601   0.000001  -0.000004  -0.000005   0.383961   0.455944
     7  H    0.000468  -0.000003   0.000009   0.000002   0.403210  -0.023366
     8  H   -0.001789   0.000012  -0.000011   0.000007   0.407845  -0.022831
     9  C   -0.189969  -0.028432  -0.007628   0.004859  -0.459570  -0.046928
    10  O   -0.017493   0.006260  -0.002144   0.000074  -0.173501   0.008125
    11  H    0.005856  -0.000131   0.000023   0.000000  -0.010106  -0.000012
    12  O    0.006844  -0.000484  -0.001947   0.001162   0.011777   0.001970
    13  H   -0.006818   0.000130   0.000006  -0.000734  -0.004528  -0.000006
    14  O    0.078462  -0.028586  -0.054530  -0.051197  -0.169948  -0.001242
    15  H   -0.000866   0.000005  -0.000099   0.000040  -0.013931  -0.000020
    16  O    0.008203  -0.002184   0.013478  -0.001793  -0.074906  -0.002517
    17  H   -0.009718   0.000084  -0.001052   0.000035   0.001554   0.000001
    18  C   -0.007806   0.000536  -0.002305  -0.000250  -0.006767   0.000096
    19  H    0.000696   0.000000   0.000003   0.000000   0.000732   0.000001
    20  H   -0.000334   0.000004   0.000384  -0.000015  -0.002275   0.000001
    21  H   -0.001109   0.000000   0.000014   0.000004   0.000141   0.000001
              7          8          9         10         11         12
     1  C    0.000468  -0.001789  -0.189969  -0.017493   0.005856   0.006844
     2  H   -0.000003   0.000012  -0.028432   0.006260  -0.000131  -0.000484
     3  H    0.000009  -0.000011  -0.007628  -0.002144   0.000023  -0.001947
     4  H    0.000002   0.000007   0.004859   0.000074   0.000000   0.001162
     5  C    0.403210   0.407845  -0.459570  -0.173501  -0.010106   0.011777
     6  H   -0.023366  -0.022831  -0.046928   0.008125  -0.000012   0.001970
     7  H    0.456730  -0.023382  -0.058698  -0.008086   0.001922  -0.000293
     8  H   -0.023382   0.451704  -0.061553  -0.004060  -0.000296   0.000019
     9  C   -0.058698  -0.061553   5.647095   0.375312   0.002066  -0.060623
    10  O   -0.008086  -0.004060   0.375312   8.548469   0.184142   0.003478
    11  H    0.001922  -0.000296   0.002066   0.184142   0.247727   0.000096
    12  O   -0.000293   0.000019  -0.060623   0.003478   0.000096   8.683103
    13  H   -0.000002   0.000019   0.017701  -0.000203  -0.000013   0.156407
    14  O    0.007720  -0.002787   0.251918  -0.074388   0.010300  -0.018749
    15  H    0.000086  -0.000001   0.014855   0.000777  -0.000017   0.076919
    16  O   -0.000773   0.006740   0.185250  -0.117070  -0.002317  -0.044098
    17  H   -0.000080  -0.000148   0.038183   0.002140  -0.000520   0.000925
    18  C    0.000014   0.000062   0.008855   0.000439  -0.000003   0.041592
    19  H    0.000000   0.000000  -0.001958  -0.000003   0.000000  -0.032275
    20  H    0.000000   0.000000   0.003673  -0.000029   0.000000  -0.054727
    21  H    0.000000   0.000000   0.000213   0.000002   0.000000  -0.034908
             13         14         15         16         17         18
     1  C   -0.006818   0.078462  -0.000866   0.008203  -0.009718  -0.007806
     2  H    0.000130  -0.028586   0.000005  -0.002184   0.000084   0.000536
     3  H    0.000006  -0.054530  -0.000099   0.013478  -0.001052  -0.002305
     4  H   -0.000734  -0.051197   0.000040  -0.001793   0.000035  -0.000250
     5  C   -0.004528  -0.169948  -0.013931  -0.074906   0.001554  -0.006767
     6  H   -0.000006  -0.001242  -0.000020  -0.002517   0.000001   0.000096
     7  H   -0.000002   0.007720   0.000086  -0.000773  -0.000080   0.000014
     8  H    0.000019  -0.002787  -0.000001   0.006740  -0.000148   0.000062
     9  C    0.017701   0.251918   0.014855   0.185250   0.038183   0.008855
    10  O   -0.000203  -0.074388   0.000777  -0.117070   0.002140   0.000439
    11  H   -0.000013   0.010300  -0.000017  -0.002317  -0.000520  -0.000003
    12  O    0.156407  -0.018749   0.076919  -0.044098   0.000925   0.041592
    13  H    0.185426   0.036976  -0.002218  -0.006130   0.000019  -0.009248
    14  O    0.036976   8.605300  -0.000335  -0.158507  -0.007231   0.002550
    15  H   -0.002218  -0.000335   0.186716   0.092189  -0.005322  -0.006233
    16  O   -0.006130  -0.158507   0.092189   8.716840   0.173474   0.001701
    17  H    0.000019  -0.007231  -0.005322   0.173474   0.228058  -0.000944
    18  C   -0.009248   0.002550  -0.006233   0.001701  -0.000944   5.180858
    19  H    0.002164   0.000172  -0.001649  -0.000579   0.000008   0.386173
    20  H    0.000081  -0.000531  -0.000431   0.001515  -0.000068   0.394641
    21  H   -0.002377  -0.000159   0.002073  -0.000163   0.000003   0.388544
             19         20         21
     1  C    0.000696  -0.000334  -0.001109
     2  H    0.000000   0.000004   0.000000
     3  H    0.000003   0.000384   0.000014
     4  H    0.000000  -0.000015   0.000004
     5  C    0.000732  -0.002275   0.000141
     6  H    0.000001   0.000001   0.000001
     7  H    0.000000   0.000000   0.000000
     8  H    0.000000   0.000000   0.000000
     9  C   -0.001958   0.003673   0.000213
    10  O   -0.000003  -0.000029   0.000002
    11  H    0.000000   0.000000   0.000000
    12  O   -0.032275  -0.054727  -0.034908
    13  H    0.002164   0.000081  -0.002377
    14  O    0.000172  -0.000531  -0.000159
    15  H   -0.001649  -0.000431   0.002073
    16  O   -0.000579   0.001515  -0.000163
    17  H    0.000008  -0.000068   0.000003
    18  C    0.386173   0.394641   0.388544
    19  H    0.429741  -0.024853  -0.020331
    20  H   -0.024853   0.450530  -0.023426
    21  H   -0.020331  -0.023426   0.427433
 Mulliken atomic charges:
              1
     1  C   -0.407027
     2  H    0.237115
     3  H    0.233234
     4  H    0.234321
     5  C   -0.563279
     6  H    0.245228
     7  H    0.244522
     8  H    0.250452
     9  C    0.365378
    10  O   -0.732241
    11  H    0.561284
    12  O   -0.736192
    13  H    0.633349
    14  O   -0.425207
    15  H    0.657462
    16  O   -0.788355
    17  H    0.580598
    18  C   -0.372502
    19  H    0.261957
    20  H    0.255861
    21  H    0.264044
 Sum of Mulliken atomic charges =   1.00000
 Mulliken charges with hydrogens summed into heavy atoms:
              1
     1  C    0.297643
     5  C    0.176921
     9  C    0.365378
    10  O   -0.170957
    12  O    0.554619
    14  O   -0.425207
    16  O   -0.207757
    18  C    0.409360
 Sum of Mulliken charges with hydrogens summed into heavy atoms =   1.00000
 Electronic spatial extent (au):  <R**2>=           1250.5392
 Charge=              1.0000 electrons
 Dipole moment (field-independent basis, Debye):
    X=             -6.0514    Y=             -0.0092    Z=              2.0566  Tot=              6.3914
 Quadrupole moment (field-independent basis, Debye-Ang):
   XX=            -22.4442   YY=            -44.9970   ZZ=            -44.1357
   XY=             -6.5041   XZ=              1.3857   YZ=             -0.0521
 Traceless Quadrupole moment (field-independent basis, Debye-Ang):
   XX=             14.7481   YY=             -7.8047   ZZ=             -6.9434
   XY=             -6.5041   XZ=              1.3857   YZ=             -0.0521
 Octapole moment (field-independent basis, Debye-Ang**2):
  XXX=            -52.2998  YYY=              8.1289  ZZZ=             12.4485  XYY=             -0.9958
  XXY=            -13.8456  XXZ=             11.9510  XZZ=             -3.3453  YZZ=             -0.1805
  YYZ=             -2.3245  XYZ=              1.1906
 Hexadecapole moment (field-independent basis, Debye-Ang**3):
 XXXX=           -683.4099 YYYY=           -381.4995 ZZZZ=           -176.2644 XXXY=            -28.3532
 XXXZ=             24.7440 YYYX=              4.4991 YYYZ=             -7.0291 ZZZX=             14.8524
 ZZZY=             -1.0249 XXYY=           -218.5496 XXZZ=           -167.3306 YYZZ=           -101.4208
 XXYZ=            -20.4283 YYXZ=             -0.9042 ZZXY=             -6.3308
 N-N= 4.585962536467D+02 E-N=-1.982675294367D+03  KE= 4.565708821252D+02


            ARSENIC

 FOR SMELTER FUMES HAVE I BEEN NAMED,
    I AM AN EVIL POISONOUS SMOKE...
 BUT WHEN FROM POISON I AM FREED,
    THROUGH ART AND SLEIGHT OF HAND,
 THEN CAN I CURE BOTH MAN AND BEAST,
    FROM DIRE DISEASE OFTTIMES DIRECT THEM;
 BUT PREPARE ME CORRECTLY, AND TAKE GREAT CARE
    THAT YOU FAITHFULLY KEEP WATCHFUL GUARD OVER ME;
 FOR ELSE I AM POISON, AND POISON REMAIN,
    THAT PIERCES THE HEART OF MANY A ONE.

 ATTRIBUTED TO THE PROBABLY MYTHICAL 15TH
 CENTURY MONK, BASILIUS VALENTINUS
 Error termination request processed by link 9999.
 Error termination via Lnk1e in C:\G09W\l9999.exe at Wed Sep 30 13:02:28 2015.
 Job cpu time:  0 days  1 hours 20 minutes 40.0 seconds.
 File lengths (MBytes):  RWF=    120 Int=      0 D2E=      0 Chk=      7 Scr=      1
