 Entering Link 1 = C:\G09W\l1.exe PID=      1908.
  
 Copyright (c) 1988,1990,1992,1993,1995,1998,2003,2009, Gaussian, Inc.
                  All Rights Reserved.
  
 This is part of the Gaussian(R) 09 program.  It is based on
 the Gaussian(R) 03 system (copyright 2003, Gaussian, Inc.),
 the Gaussian(R) 98 system (copyright 1998, Gaussian, Inc.),
 the Gaussian(R) 94 system (copyright 1995, Gaussian, Inc.),
 the Gaussian 92(TM) system (copyright 1992, Gaussian, Inc.),
 the Gaussian 90(TM) system (copyright 1990, Gaussian, Inc.),
 the Gaussian 88(TM) system (copyright 1988, Gaussian, Inc.),
 the Gaussian 86(TM) system (copyright 1986, Carnegie Mellon
 University), and the Gaussian 82(TM) system (copyright 1983,
 Carnegie Mellon University). Gaussian is a federally registered
 trademark of Gaussian, Inc.
  
 This software contains proprietary and confidential information,
 including trade secrets, belonging to Gaussian, Inc.
  
 This software is provided under written license and may be
 used, copied, transmitted, or stored only in accord with that
 written license.
  
 The following legend is applicable only to US Government
 contracts under FAR:
  
                    RESTRICTED RIGHTS LEGEND
  
 Use, reproduction and disclosure by the US Government is
 subject to restrictions as set forth in subparagraphs (a)
 and (c) of the Commercial Computer Software - Restricted
 Rights clause in FAR 52.227-19.
  
 Gaussian, Inc.
 340 Quinnipiac St., Bldg. 40, Wallingford CT 06492
  
  
 ---------------------------------------------------------------
 Warning -- This program may not be used in any manner that
 competes with the business of Gaussian, Inc. or will provide
 assistance to any competitor of Gaussian, Inc.  The licensee
 of this program is prohibited from giving any competitor of
 Gaussian, Inc. access to this program.  By using this program,
 the user acknowledges that Gaussian, Inc. is engaged in the
 business of creating and licensing software in the field of
 computational chemistry and represents and warrants to the
 licensee that it is not a competitor of Gaussian, Inc. and that
 it will not use this program in any manner prohibited above.
 ---------------------------------------------------------------
  

 Cite this work as:
 Gaussian 09, Revision A.02,
 M. J. Frisch, G. W. Trucks, H. B. Schlegel, G. E. Scuseria, 
 M. A. Robb, J. R. Cheeseman, G. Scalmani, V. Barone, B. Mennucci, 
 G. A. Petersson, H. Nakatsuji, M. Caricato, X. Li, H. P. Hratchian, 
 A. F. Izmaylov, J. Bloino, G. Zheng, J. L. Sonnenberg, M. Hada, 
 M. Ehara, K. Toyota, R. Fukuda, J. Hasegawa, M. Ishida, T. Nakajima, 
 Y. Honda, O. Kitao, H. Nakai, T. Vreven, J. A. Montgomery, Jr., 
 J. E. Peralta, F. Ogliaro, M. Bearpark, J. J. Heyd, E. Brothers, 
 K. N. Kudin, V. N. Staroverov, R. Kobayashi, J. Normand, 
 K. Raghavachari, A. Rendell, J. C. Burant, S. S. Iyengar, J. Tomasi, 
 M. Cossi, N. Rega, J. M. Millam, M. Klene, J. E. Knox, J. B. Cross, 
 V. Bakken, C. Adamo, J. Jaramillo, R. Gomperts, R. E. Stratmann, 
 O. Yazyev, A. J. Austin, R. Cammi, C. Pomelli, J. W. Ochterski, 
 R. L. Martin, K. Morokuma, V. G. Zakrzewski, G. A. Voth, 
 P. Salvador, J. J. Dannenberg, S. Dapprich, A. D. Daniels, 
 O. Farkas, J. B. Foresman, J. V. Ortiz, J. Cioslowski, 
 and D. J. Fox, Gaussian, Inc., Wallingford CT, 2009.
 
 ******************************************
 Gaussian 09:  IA32W-G09RevA.02 11-Jun-2009
                30-Sep-2015 
 ******************************************
 ------------------------------------------------
 # freq=noraman x3lyp/6-31+g(d) geom=connectivity
 ------------------------------------------------
 1/10=4,30=1,38=1,57=2/1,3;
 2/12=2,17=6,18=5,40=1/2;
 3/5=1,6=6,7=11,11=2,16=1,25=1,30=1,71=2,74=-33/1,2,3;
 4//1;
 5/5=2,38=5,98=1/2;
 8/6=4,10=90,11=11/1;
 11/6=1,8=1,9=11,15=111,16=1/1,2,10;
 10/6=1/2;
 6/7=2,8=2,9=2,10=2,18=1,28=1/1;
 7/8=1,10=1,25=1/1,2,3,16;
 1/10=4,30=1/3;
 99//99;
 --------
 tsb-4 s9
 --------
 Symbolic Z-matrix:
 Charge =  1 Multiplicity = 1
 C                     1.78814   1.83306   0.00343 
 H                     2.16951   1.81284  -1.02188 
 H                     2.57615   1.58998   0.7179 
 H                     1.37532   2.81718   0.22127 
 C                     1.19157  -0.92193  -1.39354 
 H                     0.3628   -0.6211   -2.0393 
 H                     1.2754   -2.01248  -1.41869 
 H                     2.11446  -0.48398  -1.7835 
 C                     0.95581  -0.43259   0.02141 
 O                     1.89463  -0.81056   0.94853 
 H                     2.4011   -1.58648   0.65417 
 O                    -2.16238   0.34416  -0.2872 
 H                    -1.88894   1.27056  -0.15324 
 O                     0.67599   0.91615   0.15131 
 H                    -1.2678   -0.39748   0.13208 
 O                    -0.34506  -1.0604    0.47398 
 H                    -0.29667  -1.11228   1.45059 
 C                    -3.55248   0.10436   0.10361 
 H                    -3.74814  -0.94354  -0.11959 
 H                    -3.68768   0.31222   1.167 
 H                    -4.18918   0.74243  -0.50925 
 

 GradGradGradGradGradGradGradGradGradGradGradGradGradGradGradGradGradGrad
 Berny optimization.
 Initialization pass.
 Trust Radius=3.00D-01 FncErr=1.00D-07 GrdErr=1.00D-07
 Number of steps in this run=   2 maximum allowed number of steps=   2.
 GradGradGradGradGradGradGradGradGradGradGradGradGradGradGradGradGradGrad

                          Input orientation:                          
 ---------------------------------------------------------------------
 Center     Atomic      Atomic             Coordinates (Angstroms)
 Number     Number       Type             X           Y           Z
 ---------------------------------------------------------------------
      1          6           0        1.788141    1.833056    0.003426
      2          1           0        2.169506    1.812839   -1.021875
      3          1           0        2.576145    1.589983    0.717895
      4          1           0        1.375321    2.817182    0.221274
      5          6           0        1.191570   -0.921933   -1.393538
      6          1           0        0.362796   -0.621099   -2.039298
      7          1           0        1.275397   -2.012479   -1.418692
      8          1           0        2.114459   -0.483983   -1.783498
      9          6           0        0.955812   -0.432591    0.021411
     10          8           0        1.894633   -0.810559    0.948530
     11          1           0        2.401097   -1.586477    0.654172
     12          8           0       -2.162384    0.344160   -0.287196
     13          1           0       -1.888942    1.270557   -0.153235
     14          8           0        0.675985    0.916150    0.151312
     15          1           0       -1.267796   -0.397483    0.132082
     16          8           0       -0.345055   -1.060402    0.473975
     17          1           0       -0.296665   -1.112280    1.450588
     18          6           0       -3.552482    0.104358    0.103610
     19          1           0       -3.748144   -0.943538   -0.119588
     20          1           0       -3.687677    0.312217    1.167001
     21          1           0       -4.189183    0.742433   -0.509252
 ---------------------------------------------------------------------
                    Distance matrix (angstroms):
                    1          2          3          4          5
     1  C    0.000000
     2  H    1.094116   0.000000
     3  H    1.091101   1.800505   0.000000
     4  H    1.089212   1.784616   1.787352   0.000000
     5  C    3.146009   2.928049   3.561589   4.077053   0.000000
     6  H    3.496742   3.197406   4.170121   4.237590   1.092874
     7  H    4.132005   3.948411   4.385736   5.101480   1.094052
     8  H    2.944189   2.420432   3.281990   3.932318   1.093432
     9  C    2.413763   2.757436   2.683538   3.282828   1.515625
    10  O    2.809495   3.292456   2.506043   3.736187   2.447853
    11  H    3.534458   3.797120   3.181918   4.542227   2.469350
    12  O    4.231775   4.632714   5.001594   4.346232   3.751798
    13  H    3.723156   4.185643   4.560472   3.631490   3.979311
    14  O    1.448958   2.100244   2.094200   2.026793   2.455797
    15  H    3.785579   4.246432   4.366816   4.162703   2.941266
    16  O    3.625471   4.100744   3.951892   4.249613   2.422394
    17  H    3.887891   4.555370   4.011496   4.443807   3.215607
    18  C    5.614329   6.076740   6.335968   5.626411   5.079444
    19  H    6.194761   6.590168   6.864163   6.364676   5.101391
    20  H    5.800986   6.430368   6.408576   5.727408   5.646817
    21  H    6.097598   6.468499   6.927763   5.983474   5.701279
                    6          7          8          9         10
     6  H    0.000000
     7  H    1.775931   0.000000
     8  H    1.775544   1.781406   0.000000
     9  C    2.152609   2.161499   2.145414   0.000000
    10  O    3.362965   2.726134   2.760245   1.372514   0.000000
    11  H    3.513034   2.396965   2.690704   1.954658   0.972215
    12  O    3.221509   4.318839   4.606097   3.228270   4.395427
    13  H    3.493697   4.732098   4.665125   3.320217   4.456497
    14  O    2.694438   3.376548   2.788023   1.383575   2.258801
    15  H    2.724651   3.388354   3.888004   2.226637   3.292139
    16  O    2.647750   2.667303   3.387868   1.513676   2.303004
    17  H    3.585450   3.393303   4.082596   2.018223   2.268234
    18  C    4.521918   5.486968   6.001795   4.540901   5.587667
    19  H    4.548525   5.297761   6.111457   4.733725   5.744518
    20  H    5.249549   6.059878   6.557756   4.840362   5.698293
    21  H    4.992071   6.186942   6.547038   5.304079   6.445908
                   11         12         13         14         15
    11  H    0.000000
    12  O    5.043698   0.000000
    13  H    5.217182   0.975155   0.000000
    14  O    3.080912   2.928447   2.607145   0.000000
    15  H    3.891922   1.235361   1.802661   2.346121   0.000000
    16  O    2.801888   2.419682   2.865371   2.247975   1.186509
    17  H    2.852553   2.936327   3.284129   2.597825   1.786754
    18  C    6.213465   1.463765   2.047768   4.305951   2.339326
    19  H    6.230990   2.049608   2.891363   4.806739   2.552183
    20  H    6.398531   2.107659   2.428351   4.520830   2.725905
    21  H    7.085843   2.077461   2.386791   4.912879   3.200815
                   16         17         18         19         20
    16  O    0.000000
    17  H    0.979186   0.000000
    18  C    3.432408   3.727587   0.000000
    19  H    3.456442   3.795607   1.089122   0.000000
    20  H    3.679333   3.688980   1.091917   1.798857   0.000000
    21  H    4.358242   4.736310   1.090013   1.785736   1.801782
                   21
    21  H    0.000000
 Stoichiometry    C4H13O4(1+)
 Framework group  C1[X(C4H13O4)]
 Deg. of freedom    57
 Full point group                 C1      NOp   1
 Largest Abelian subgroup         C1      NOp   1
 Largest concise Abelian subgroup C1      NOp   1
                         Standard orientation:                         
 ---------------------------------------------------------------------
 Center     Atomic      Atomic             Coordinates (Angstroms)
 Number     Number       Type             X           Y           Z
 ---------------------------------------------------------------------
      1          6           0       -1.788141    1.833056   -0.003426
      2          1           0       -2.169506    1.812839    1.021875
      3          1           0       -2.576145    1.589983   -0.717895
      4          1           0       -1.375321    2.817182   -0.221274
      5          6           0       -1.191570   -0.921933    1.393538
      6          1           0       -0.362796   -0.621099    2.039298
      7          1           0       -1.275397   -2.012479    1.418692
      8          1           0       -2.114459   -0.483983    1.783498
      9          6           0       -0.955812   -0.432591   -0.021411
     10          8           0       -1.894633   -0.810559   -0.948530
     11          1           0       -2.401097   -1.586477   -0.654172
     12          8           0        2.162384    0.344160    0.287196
     13          1           0        1.888942    1.270557    0.153235
     14          8           0       -0.675985    0.916150   -0.151312
     15          1           0        1.267796   -0.397483   -0.132082
     16          8           0        0.345055   -1.060402   -0.473975
     17          1           0        0.296665   -1.112280   -1.450588
     18          6           0        3.552482    0.104358   -0.103610
     19          1           0        3.748144   -0.943538    0.119588
     20          1           0        3.687677    0.312217   -1.167001
     21          1           0        4.189183    0.742433    0.509252
 ---------------------------------------------------------------------
 Rotational constants (GHZ):      2.7985223      1.0235741      0.9056714
 Standard basis: 6-31+G(d) (6D, 7F)
 There are   178 symmetry adapted basis functions of A   symmetry.
 Integral buffers will be    262144 words long.
 Raffenetti 2 integral format.
 Two-electron integral symmetry is turned on.
   178 basis functions,   308 primitive gaussians,   178 cartesian basis functions
    34 alpha electrons       34 beta electrons
       nuclear repulsion energy       450.0711445976 Hartrees.
 NAtoms=   21 NActive=   21 NUniq=   21 SFac= 7.50D-01 NAtFMM=   80 NAOKFM=F Big=F
 One-electron integrals computed using PRISM.
 NBasis=   178 RedAO= T  NBF=   178
 NBsUse=   178 1.00D-06 NBFU=   178
 Harris functional with IExCor= 3102 diagonalized for initial guess.
 ExpMin= 4.38D-02 ExpMax= 5.48D+03 ExpMxC= 8.25D+02 IAcc=2 IRadAn=         0 AccDes= 0.00D+00
 HarFok:  IExCor= 3102 AccDes= 0.00D+00 IRadAn=         0 IDoV= 1
 ScaDFX=  1.000000  1.000000  1.000000  1.000000
 FoFCou: FMM=F IPFlag=           0 FMFlag=      100000 FMFlg1=           0
         NFxFlg=           0 DoJE=T BraDBF=F KetDBF=T FulRan=T
         Omega=  0.000000  0.000000  1.000000  0.000000  0.000000 ICntrl=     500 IOpCl=  0
         NMat0=    1 NMatS0=    1 NMatT0=    0 NMatD0=    1 NMtDS0=    0 NMtDT0=    0
         I1Cent=           4 NGrid=           0.
 Petite list used in FoFCou.
 Initial guess orbital symmetries:
       Occupied  (A) (A) (A) (A) (A) (A) (A) (A) (A) (A) (A) (A)
                 (A) (A) (A) (A) (A) (A) (A) (A) (A) (A) (A) (A)
                 (A) (A) (A) (A) (A) (A) (A) (A) (A) (A)
       Virtual   (A) (A) (A) (A) (A) (A) (A) (A) (A) (A) (A) (A)
                 (A) (A) (A) (A) (A) (A) (A) (A) (A) (A) (A) (A)
                 (A) (A) (A) (A) (A) (A) (A) (A) (A) (A) (A) (A)
                 (A) (A) (A) (A) (A) (A) (A) (A) (A) (A) (A) (A)
                 (A) (A) (A) (A) (A) (A) (A) (A) (A) (A) (A) (A)
                 (A) (A) (A) (A) (A) (A) (A) (A) (A) (A) (A) (A)
                 (A) (A) (A) (A) (A) (A) (A) (A) (A) (A) (A) (A)
                 (A) (A) (A) (A) (A) (A) (A) (A) (A) (A) (A) (A)
                 (A) (A) (A) (A) (A) (A) (A) (A) (A) (A) (A) (A)
                 (A) (A) (A) (A) (A) (A) (A) (A) (A) (A) (A) (A)
                 (A) (A) (A) (A) (A) (A) (A) (A) (A) (A) (A) (A)
                 (A) (A) (A) (A) (A) (A) (A) (A) (A) (A) (A) (A)
 The electronic state of the initial guess is 1-A.
 Requested convergence on RMS density matrix=1.00D-08 within 128 cycles.
 Requested convergence on MAX density matrix=1.00D-06.
 Requested convergence on             energy=1.00D-06.
 No special actions if energy rises.
 SCF Done:  E(RX3LYP) =  -460.694869813     A.U. after   12 cycles
             Convg  =    0.4291D-08             -V/T =  2.0089
 Range of M.O.s used for correlation:     1   178
 NBasis=   178 NAE=    34 NBE=    34 NFC=     0 NFV=     0
 NROrb=    178 NOA=    34 NOB=    34 NVA=   144 NVB=   144

 **** Warning!!: The largest alpha MO coefficient is  0.54548525D+02

 Symmetrizing basis deriv contribution to polar:
 IMax=3 JMax=2 DiffMx= 0.00D+00
 G2DrvN: will do    22 centers at a time, making    1 passes doing MaxLOS=2.
 Calling FoFCou, ICntrl=  3107 FMM=F I1Cent=   0 AccDes= 0.00D+00.
 FoFDir/FoFCou used for L=0 through L=2.
 End of G2Drv Frequency-dependent properties file   721 does not exist.
 End of G2Drv Frequency-dependent properties file   722 does not exist.
          IDoAtm=111111111111111111111
          Differentiating once with respect to electric field.
                with respect to dipole field.
          Differentiating once with respect to nuclear coordinates.
          There are    66 degrees of freedom in the 1st order CPHF.  IDoFFX=5.
     63 vectors produced by pass  0 Test12= 7.42D-15 1.52D-09 XBig12= 3.67D+01 9.15D-01.
 AX will form    63 AO Fock derivatives at one time.
     63 vectors produced by pass  1 Test12= 7.42D-15 1.52D-09 XBig12= 2.81D+00 2.38D-01.
     63 vectors produced by pass  2 Test12= 7.42D-15 1.52D-09 XBig12= 1.49D-02 1.42D-02.
     63 vectors produced by pass  3 Test12= 7.42D-15 1.52D-09 XBig12= 3.28D-05 1.06D-03.
     63 vectors produced by pass  4 Test12= 7.42D-15 1.52D-09 XBig12= 3.83D-08 2.98D-05.
     35 vectors produced by pass  5 Test12= 7.42D-15 1.52D-09 XBig12= 2.67D-11 5.35D-07.
      3 vectors produced by pass  6 Test12= 7.42D-15 1.52D-09 XBig12= 1.99D-14 1.86D-08.
 Inverted reduced A of dimension   353 with in-core refinement.
 Isotropic polarizability for W=    0.000000       66.67 Bohr**3.
 End of Minotr Frequency-dependent properties file   721 does not exist.
 End of Minotr Frequency-dependent properties file   722 does not exist.

 **********************************************************************

            Population analysis using the SCF density.

 **********************************************************************

 Orbital symmetries:
       Occupied  (A) (A) (A) (A) (A) (A) (A) (A) (A) (A) (A) (A)
                 (A) (A) (A) (A) (A) (A) (A) (A) (A) (A) (A) (A)
                 (A) (A) (A) (A) (A) (A) (A) (A) (A) (A)
       Virtual   (A) (A) (A) (A) (A) (A) (A) (A) (A) (A) (A) (A)
                 (A) (A) (A) (A) (A) (A) (A) (A) (A) (A) (A) (A)
                 (A) (A) (A) (A) (A) (A) (A) (A) (A) (A) (A) (A)
                 (A) (A) (A) (A) (A) (A) (A) (A) (A) (A) (A) (A)
                 (A) (A) (A) (A) (A) (A) (A) (A) (A) (A) (A) (A)
                 (A) (A) (A) (A) (A) (A) (A) (A) (A) (A) (A) (A)
                 (A) (A) (A) (A) (A) (A) (A) (A) (A) (A) (A) (A)
                 (A) (A) (A) (A) (A) (A) (A) (A) (A) (A) (A) (A)
                 (A) (A) (A) (A) (A) (A) (A) (A) (A) (A) (A) (A)
                 (A) (A) (A) (A) (A) (A) (A) (A) (A) (A) (A) (A)
                 (A) (A) (A) (A) (A) (A) (A) (A) (A) (A) (A) (A)
                 (A) (A) (A) (A) (A) (A) (A) (A) (A) (A) (A) (A)
 The electronic state is 1-A.
 Alpha  occ. eigenvalues --  -19.42923 -19.42455 -19.38235 -19.36881 -10.55764
 Alpha  occ. eigenvalues --  -10.43092 -10.39894 -10.36944  -1.31064  -1.26018
 Alpha  occ. eigenvalues --   -1.22394  -1.20029  -0.93299  -0.88773  -0.87000
 Alpha  occ. eigenvalues --   -0.80362  -0.77332  -0.75092  -0.70623  -0.68582
 Alpha  occ. eigenvalues --   -0.66583  -0.64022  -0.63154  -0.60083  -0.59824
 Alpha  occ. eigenvalues --   -0.57465  -0.56500  -0.56444  -0.54261  -0.53396
 Alpha  occ. eigenvalues --   -0.51300  -0.50409  -0.49516  -0.45003
 Alpha virt. eigenvalues --   -0.16111  -0.12977  -0.11933  -0.09982  -0.09270
 Alpha virt. eigenvalues --   -0.09025  -0.07488  -0.07255  -0.06112  -0.05829
 Alpha virt. eigenvalues --   -0.05054  -0.04629  -0.03765  -0.02759  -0.02008
 Alpha virt. eigenvalues --   -0.00718  -0.00425   0.00938   0.01520   0.01575
 Alpha virt. eigenvalues --    0.03037   0.03226   0.03497   0.04713   0.06039
 Alpha virt. eigenvalues --    0.06442   0.07460   0.07821   0.08590   0.09111
 Alpha virt. eigenvalues --    0.10416   0.10499   0.11249   0.11674   0.13094
 Alpha virt. eigenvalues --    0.14143   0.14310   0.15021   0.16504   0.16716
 Alpha virt. eigenvalues --    0.17053   0.18262   0.20389   0.21027   0.21303
 Alpha virt. eigenvalues --    0.22934   0.24096   0.26407   0.28318   0.30258
 Alpha virt. eigenvalues --    0.31393   0.48202   0.49756   0.50129   0.51207
 Alpha virt. eigenvalues --    0.54245   0.55170   0.56371   0.59104   0.62433
 Alpha virt. eigenvalues --    0.63233   0.65046   0.68793   0.74854   0.78089
 Alpha virt. eigenvalues --    0.78882   0.82088   0.84752   0.85533   0.87592
 Alpha virt. eigenvalues --    0.89430   0.90564   0.91235   0.92987   0.94998
 Alpha virt. eigenvalues --    0.95960   0.97757   0.99962   1.01187   1.01488
 Alpha virt. eigenvalues --    1.04478   1.05360   1.11164   1.12258   1.14923
 Alpha virt. eigenvalues --    1.16267   1.17877   1.21112   1.23063   1.26093
 Alpha virt. eigenvalues --    1.31605   1.32818   1.34052   1.38333   1.39950
 Alpha virt. eigenvalues --    1.42429   1.43635   1.49099   1.52376   1.57346
 Alpha virt. eigenvalues --    1.58498   1.61466   1.63943   1.64719   1.65625
 Alpha virt. eigenvalues --    1.70426   1.75010   1.79067   1.82571   1.85951
 Alpha virt. eigenvalues --    1.89507   1.91069   1.93466   1.95770   1.99949
 Alpha virt. eigenvalues --    2.05597   2.08253   2.09464   2.12078   2.13384
 Alpha virt. eigenvalues --    2.14699   2.16917   2.21203   2.25513   2.28956
 Alpha virt. eigenvalues --    2.32452   2.39039   2.44388   2.45450   2.59675
 Alpha virt. eigenvalues --    2.64238   2.67535   2.72537   2.72961   2.84155
 Alpha virt. eigenvalues --    2.87755   3.92231   4.04006   4.07978   4.13614
 Alpha virt. eigenvalues --    4.16062   4.20322   4.36392   4.47222
          Condensed to atoms (all electrons):
              1          2          3          4          5          6
     1  C    5.239566   0.379506   0.407991   0.391102   0.028699   0.002320
     2  H    0.379506   0.504605  -0.034620  -0.026104  -0.013162   0.000034
     3  H    0.407991  -0.034620   0.463252  -0.022232   0.005103   0.000014
     4  H    0.391102  -0.026104  -0.022232   0.463427  -0.001758  -0.000017
     5  C    0.028699  -0.013162   0.005103  -0.001758   5.890079   0.386729
     6  H    0.002320   0.000034   0.000014  -0.000017   0.386729   0.445866
     7  H    0.001581  -0.000117   0.000018   0.000002   0.412175  -0.021356
     8  H   -0.004970   0.001240   0.000014   0.000020   0.370127  -0.021122
     9  C   -0.206303   0.024779  -0.041149   0.010292  -0.325895  -0.051742
    10  O   -0.015100  -0.005509   0.015128   0.000148  -0.108514   0.007419
    11  H    0.000400   0.000170  -0.000818   0.000013   0.011585   0.000129
    12  O    0.004665  -0.000038  -0.000018  -0.000038   0.006199   0.001433
    13  H   -0.000497   0.000008   0.000007  -0.000036  -0.003131  -0.000037
    14  O    0.123236  -0.047198  -0.040304  -0.046611  -0.164269  -0.002271
    15  H    0.001788  -0.000037   0.000016   0.000005  -0.003767  -0.000365
    16  O    0.015093   0.000061  -0.000580  -0.000955   0.053915   0.000249
    17  H   -0.003211   0.000000  -0.000004   0.000007  -0.020725  -0.000038
    18  C   -0.000002  -0.000016   0.000042  -0.000095  -0.002551  -0.000217
    19  H    0.000073   0.000000   0.000000   0.000000  -0.000068   0.000000
    20  H   -0.000071   0.000000   0.000000   0.000000  -0.000648   0.000001
    21  H    0.000002   0.000000   0.000000   0.000000   0.000461   0.000000
              7          8          9         10         11         12
     1  C    0.001581  -0.004970  -0.206303  -0.015100   0.000400   0.004665
     2  H   -0.000117   0.001240   0.024779  -0.005509   0.000170  -0.000038
     3  H    0.000018   0.000014  -0.041149   0.015128  -0.000818  -0.000018
     4  H    0.000002   0.000020   0.010292   0.000148   0.000013  -0.000038
     5  C    0.412175   0.370127  -0.325895  -0.108514   0.011585   0.006199
     6  H   -0.021356  -0.021122  -0.051742   0.007419   0.000129   0.001433
     7  H    0.458486  -0.023691  -0.080530  -0.002757   0.001475   0.000038
     8  H   -0.023691   0.448510  -0.019062  -0.004713  -0.000518   0.000008
     9  C   -0.080530  -0.019062   5.862206   0.318416  -0.012902  -0.030759
    10  O   -0.002757  -0.004713   0.318416   8.384351   0.186825   0.001431
    11  H    0.001475  -0.000518  -0.012902   0.186825   0.300110   0.000008
    12  O    0.000038   0.000008  -0.030759   0.001431   0.000008   8.542025
    13  H   -0.000001   0.000002   0.005639  -0.000058  -0.000002   0.210751
    14  O    0.009250  -0.004924   0.297215  -0.082923   0.007873   0.002120
    15  H    0.000130   0.000063  -0.002256   0.004063  -0.000161   0.095180
    16  O   -0.000397   0.003951  -0.124127  -0.086326   0.000010  -0.027794
    17  H   -0.000086  -0.000112   0.059588   0.006687  -0.000773  -0.003481
    18  C    0.000098   0.000030  -0.002547   0.000296  -0.000009   0.071693
    19  H    0.000000   0.000000  -0.001014   0.000008   0.000000  -0.036684
    20  H    0.000000   0.000000   0.001208   0.000003   0.000000  -0.053553
    21  H    0.000000   0.000000  -0.000544   0.000000   0.000000  -0.032436
             13         14         15         16         17         18
     1  C   -0.000497   0.123236   0.001788   0.015093  -0.003211  -0.000002
     2  H    0.000008  -0.047198  -0.000037   0.000061   0.000000  -0.000016
     3  H    0.000007  -0.040304   0.000016  -0.000580  -0.000004   0.000042
     4  H   -0.000036  -0.046611   0.000005  -0.000955   0.000007  -0.000095
     5  C   -0.003131  -0.164269  -0.003767   0.053915  -0.020725  -0.002551
     6  H   -0.000037  -0.002271  -0.000365   0.000249  -0.000038  -0.000217
     7  H   -0.000001   0.009250   0.000130  -0.000397  -0.000086   0.000098
     8  H    0.000002  -0.004924   0.000063   0.003951  -0.000112   0.000030
     9  C    0.005639   0.297215  -0.002256  -0.124127   0.059588  -0.002547
    10  O   -0.000058  -0.082923   0.004063  -0.086326   0.006687   0.000296
    11  H   -0.000002   0.007873  -0.000161   0.000010  -0.000773  -0.000009
    12  O    0.210751   0.002120   0.095180  -0.027794  -0.003481   0.071693
    13  H    0.254265   0.008841  -0.005060  -0.001725   0.000021  -0.014382
    14  O    0.008841   8.468623   0.008769  -0.169092  -0.009214   0.001168
    15  H   -0.005060   0.008769   0.190135   0.072606  -0.003989  -0.008537
    16  O   -0.001725  -0.169092   0.072606   8.896026   0.176335   0.003977
    17  H    0.000021  -0.009214  -0.003989   0.176335   0.228750  -0.000448
    18  C   -0.014382   0.001168  -0.008537   0.003977  -0.000448   5.134597
    19  H    0.003686   0.000187  -0.001842   0.000969  -0.000018   0.390380
    20  H   -0.002393  -0.000143  -0.000476   0.000159   0.000101   0.392742
    21  H   -0.003285   0.000065   0.001450  -0.000613   0.000003   0.387929
             19         20         21
     1  C    0.000073  -0.000071   0.000002
     2  H    0.000000   0.000000   0.000000
     3  H    0.000000   0.000000   0.000000
     4  H    0.000000   0.000000   0.000000
     5  C   -0.000068  -0.000648   0.000461
     6  H    0.000000   0.000001   0.000000
     7  H    0.000000   0.000000   0.000000
     8  H    0.000000   0.000000   0.000000
     9  C   -0.001014   0.001208  -0.000544
    10  O    0.000008   0.000003   0.000000
    11  H    0.000000   0.000000   0.000000
    12  O   -0.036684  -0.053553  -0.032436
    13  H    0.003686  -0.002393  -0.003285
    14  O    0.000187  -0.000143   0.000065
    15  H   -0.001842  -0.000476   0.001450
    16  O    0.000969   0.000159  -0.000613
    17  H   -0.000018   0.000101   0.000003
    18  C    0.390380   0.392742   0.387929
    19  H    0.443390  -0.026772  -0.019717
    20  H   -0.026772   0.479837  -0.027365
    21  H   -0.019717  -0.027365   0.443988
 Mulliken atomic charges:
              1
     1  C   -0.365869
     2  H    0.216398
     3  H    0.248137
     4  H    0.232831
     5  C   -0.520584
     6  H    0.252970
     7  H    0.245681
     8  H    0.255146
     9  C    0.319486
    10  O   -0.618876
    11  H    0.506584
    12  O   -0.750749
    13  H    0.547386
    14  O   -0.360397
    15  H    0.652285
    16  O   -0.811743
    17  H    0.570607
    18  C   -0.354148
    19  H    0.247422
    20  H    0.237370
    21  H    0.250063
 Sum of Mulliken atomic charges =   1.00000
 Mulliken charges with hydrogens summed into heavy atoms:
              1
     1  C    0.331498
     5  C    0.233213
     9  C    0.319486
    10  O   -0.112291
    12  O   -0.203364
    14  O   -0.360397
    16  O    0.411149
    18  C    0.380707
 Sum of Mulliken charges with hydrogens summed into heavy atoms =   1.00000
 APT atomic charges:
              1
     1  C    0.475487
     2  H   -0.012005
     3  H    0.018408
     4  H    0.030584
     5  C   -0.103789
     6  H    0.045479
     7  H    0.037343
     8  H    0.049202
     9  C    1.444895
    10  O   -0.700918
    11  H    0.315391
    12  O   -0.826682
    13  H    0.327871
    14  O   -0.866664
    15  H    0.834998
    16  O   -0.944476
    17  H    0.314395
    18  C    0.475842
    19  H    0.046511
    20  H    0.007573
    21  H    0.030557
 Sum of APT charges=   1.00000
 APT Atomic charges with hydrogens summed into heavy atoms:
              1
     1  C    0.512473
     2  H    0.000000
     3  H    0.000000
     4  H    0.000000
     5  C    0.028234
     6  H    0.000000
     7  H    0.000000
     8  H    0.000000
     9  C    1.444895
    10  O   -0.385528
    11  H    0.000000
    12  O   -0.498811
    13  H    0.000000
    14  O   -0.866664
    15  H    0.000000
    16  O    0.204917
    17  H    0.000000
    18  C    0.560484
    19  H    0.000000
    20  H    0.000000
    21  H    0.000000
 Sum of APT charges=   1.00000
 Electronic spatial extent (au):  <R**2>=           1380.8504
 Charge=              1.0000 electrons
 Dipole moment (field-independent basis, Debye):
    X=              2.4977    Y=             -0.2725    Z=             -0.1521  Tot=              2.5171
 Quadrupole moment (field-independent basis, Debye-Ang):
   XX=            -16.9645   YY=            -37.3356   ZZ=            -45.4847
   XY=              4.3399   XZ=             -4.6747   YZ=              1.4174
 Traceless Quadrupole moment (field-independent basis, Debye-Ang):
   XX=             16.2971   YY=             -4.0740   ZZ=            -12.2231
   XY=              4.3399   XZ=             -4.6747   YZ=              1.4174
 Octapole moment (field-independent basis, Debye-Ang**2):
  XXX=             60.4756  YYY=              5.2926  ZZZ=             -5.7994  XYY=            -10.4297
  XXY=              0.6763  XXZ=             -1.0747  XZZ=              2.5362  YZZ=             -5.6717
  YYZ=             -3.7351  XYZ=              0.9897
 Hexadecapole moment (field-independent basis, Debye-Ang**3):
 XXXX=           -804.5243 YYYY=           -311.8877 ZZZZ=           -193.5965 XXXY=             43.2224
 XXXZ=              3.1419 YYYX=             18.6461 YYYZ=              6.6980 ZZZX=             -8.1970
 ZZZY=              9.7879 XXYY=           -191.8935 XXZZ=           -219.8299 YYZZ=            -88.3158
 XXYZ=              7.6856 YYXZ=              8.1074 ZZXY=              1.8710
 N-N= 4.500711445976D+02 E-N=-1.966629379324D+03  KE= 4.566443166351D+02
  Exact polarizability:  74.517   0.316  66.024  -0.251   0.427  59.458
 Approx polarizability:  87.771   1.756  84.915   0.978   1.775  78.630
 Calling FoFJK, ICntrl=    100127 FMM=F ISym2X=0 I1Cent= 0 IOpClX= 0 NMat=1 NMatS=1 NMatT=0.
 Full mass-weighted force constant matrix:
 Low frequencies ---  -76.7296  -12.9522   -8.7245    0.0015    0.0017    0.0017
 Low frequencies ---    4.9629   65.3112   70.9792
 ******    1 imaginary frequencies (negative Signs) ****** 
 Diagonal vibrational polarizability:
     2347.5861540     149.7195657      63.1715471
 Harmonic frequencies (cm**-1), IR intensities (KM/Mole), Raman scattering
 activities (A**4/AMU), depolarization ratios for plane and unpolarized
 incident light, reduced masses (AMU), force constants (mDyne/A),
 and normal coordinates:
                     1                      2                      3
                     A                      A                      A
 Frequencies --   -76.6065                65.2716                70.9426
 Red. masses --     3.0073                 3.7232                 1.9055
 Frc consts  --     0.0104                 0.0093                 0.0057
 IR Inten    --   249.2690                 2.6229                12.7996
  Atom  AN      X      Y      Z        X      Y      Z        X      Y      Z
     1   6     0.14  -0.01   0.02     0.13   0.03  -0.01     0.04   0.00   0.16
     2   1     0.13   0.00   0.02     0.25   0.09   0.04     0.41   0.16   0.30
     3   1     0.13  -0.01   0.02     0.04   0.03   0.09    -0.21  -0.13   0.48
     4   1     0.13  -0.01   0.02     0.15   0.00  -0.10    -0.06  -0.03  -0.15
     5   6    -0.09   0.00  -0.02     0.19   0.03   0.01    -0.03   0.04  -0.02
     6   1    -0.13  -0.05   0.06     0.29   0.00  -0.10    -0.07   0.09   0.00
     7   1    -0.15   0.00  -0.01     0.13   0.04   0.05     0.01   0.03   0.01
     8   1    -0.10   0.05  -0.11     0.26   0.09   0.12    -0.07   0.01  -0.07
     9   6     0.09  -0.06  -0.02     0.03  -0.02  -0.03     0.01  -0.01  -0.03
    10   8     0.07   0.04  -0.07    -0.11   0.01   0.10     0.02  -0.04  -0.04
    11   1    -0.04   0.11  -0.06    -0.07   0.01   0.16     0.00  -0.02  -0.01
    12   8    -0.13   0.02   0.07    -0.15  -0.09   0.04    -0.03   0.09  -0.10
    13   1    -0.31  -0.04  -0.02    -0.28  -0.12   0.09     0.01   0.07  -0.28
    14   8     0.12  -0.02   0.03     0.07  -0.03  -0.10     0.00  -0.01  -0.08
    15   1     0.30   0.21   0.22    -0.01  -0.12  -0.09     0.03   0.07  -0.02
    16   8    -0.01  -0.06   0.11    -0.05  -0.08  -0.16     0.00  -0.01   0.02
    17   1    -0.03  -0.24   0.13    -0.09   0.03  -0.17    -0.01  -0.10   0.02
    18   6    -0.15   0.07  -0.16    -0.08   0.15   0.14     0.00  -0.05   0.09
    19   1    -0.05   0.11  -0.07     0.06   0.15   0.06    -0.07  -0.01   0.33
    20   1    -0.37  -0.01  -0.20    -0.01   0.26   0.17     0.12  -0.27   0.06
    21   1    -0.14   0.20  -0.30    -0.23   0.18   0.26    -0.04   0.05   0.03
                     4                      5                      6
                     A                      A                      A
 Frequencies --    88.2385                98.8949               139.6397
 Red. masses --     2.8355                 1.8766                 1.2193
 Frc consts  --     0.0130                 0.0108                 0.0140
 IR Inten    --    76.5547               144.2644                46.8016
  Atom  AN      X      Y      Z        X      Y      Z        X      Y      Z
     1   6    -0.09  -0.03   0.04    -0.03  -0.03  -0.04    -0.01   0.01   0.01
     2   1     0.18   0.09   0.14    -0.27  -0.22  -0.14     0.01   0.03   0.02
     3   1    -0.25  -0.21   0.28     0.14   0.07  -0.26    -0.03   0.01   0.03
     4   1    -0.23  -0.03  -0.21    -0.01   0.02   0.23    -0.01   0.01  -0.02
     5   6     0.10   0.08  -0.01     0.11  -0.03   0.00    -0.01  -0.01  -0.01
     6   1     0.08   0.17  -0.03     0.13  -0.06  -0.03    -0.01  -0.01  -0.01
     7   1     0.19   0.07   0.04     0.10  -0.03  -0.02    -0.01  -0.01  -0.02
     8   1     0.07   0.02  -0.03     0.13  -0.04   0.05    -0.01  -0.01   0.00
     9   6     0.05   0.02  -0.05     0.07  -0.01   0.00    -0.03   0.01   0.00
    10   8     0.02  -0.06   0.00     0.00   0.03   0.03    -0.02   0.01   0.00
    11   1     0.11  -0.11   0.03     0.01   0.03   0.04     0.01  -0.02  -0.02
    12   8     0.00  -0.04   0.21    -0.08   0.09  -0.03     0.05  -0.07   0.04
    13   1     0.02  -0.02   0.27    -0.04   0.07  -0.23     0.01  -0.08   0.05
    14   8    -0.05   0.04  -0.11     0.02   0.02   0.04    -0.02   0.00   0.00
    15   1     0.13   0.16   0.14     0.14   0.20   0.03    -0.05  -0.13   0.00
    16   8     0.03   0.10  -0.04     0.01   0.05  -0.04    -0.01  -0.01  -0.02
    17   1     0.06   0.16  -0.04    -0.04   0.04  -0.04     0.02   0.06  -0.02
    18   6    -0.08  -0.12  -0.09    -0.08  -0.13   0.05     0.04   0.05  -0.01
    19   1    -0.12  -0.15  -0.18    -0.16  -0.07   0.40     0.31   0.20   0.46
    20   1    -0.29  -0.06  -0.10    -0.07  -0.48  -0.01    -0.13  -0.42  -0.13
    21   1     0.07  -0.20  -0.17    -0.06   0.04  -0.14    -0.01   0.47  -0.41
                     7                      8                      9
                     A                      A                      A
 Frequencies --   176.5155               228.1804               242.2954
 Red. masses --     1.4528                 2.4864                 1.0980
 Frc consts  --     0.0267                 0.0763                 0.0380
 IR Inten    --     3.8969               242.7133                21.0903
  Atom  AN      X      Y      Z        X      Y      Z        X      Y      Z
     1   6     0.01  -0.01   0.10     0.15   0.15  -0.03    -0.01  -0.01  -0.02
     2   1    -0.20  -0.45   0.01     0.14   0.22  -0.03     0.00   0.04  -0.02
     3   1     0.14   0.36  -0.16     0.11   0.34  -0.05     0.00  -0.09   0.00
     4   1     0.11   0.07   0.64     0.38   0.06  -0.01    -0.05  -0.01  -0.09
     5   6    -0.01   0.09   0.00    -0.01  -0.11   0.00     0.00  -0.01   0.00
     6   1    -0.07   0.24   0.01    -0.09   0.04   0.02    -0.27   0.46   0.14
     7   1     0.12   0.08   0.08     0.21  -0.13  -0.06     0.55  -0.05   0.05
     8   1    -0.08   0.00  -0.07    -0.12  -0.32  -0.02    -0.30  -0.45  -0.20
     9   6    -0.01   0.01  -0.03    -0.10  -0.02   0.02     0.02   0.00   0.01
    10   8     0.00  -0.05  -0.01    -0.04  -0.09   0.03     0.00   0.03   0.01
    11   1     0.02  -0.06   0.02     0.05  -0.16   0.00    -0.03   0.05   0.02
    12   8     0.01  -0.02   0.01     0.02   0.13   0.07    -0.01  -0.04  -0.02
    13   1    -0.01  -0.02   0.01     0.17   0.17   0.08    -0.05  -0.04  -0.02
    14   8    -0.01   0.00  -0.10    -0.03  -0.07  -0.03     0.02   0.01   0.03
    15   1     0.00  -0.03   0.01    -0.31  -0.07  -0.05     0.06   0.01   0.00
    16   8     0.00  -0.02   0.02     0.05   0.01  -0.02    -0.02   0.00  -0.01
    17   1     0.02  -0.06   0.02     0.13   0.20  -0.04    -0.05  -0.01  -0.01
    18   6     0.01   0.01   0.00    -0.07  -0.02  -0.03     0.01   0.00   0.01
    19   1     0.03   0.01  -0.02    -0.15  -0.03  -0.02     0.03   0.01   0.01
    20   1     0.00   0.04   0.00    -0.12  -0.09  -0.06     0.02   0.02   0.01
    21   1     0.00   0.01   0.01     0.10  -0.08  -0.14    -0.04   0.02   0.03
                    10                     11                     12
                     A                      A                      A
 Frequencies --   338.9220               347.9047               368.0257
 Red. masses --     2.2513                 5.3289                 2.6755
 Frc consts  --     0.1524                 0.3800                 0.2135
 IR Inten    --   777.1324                 5.6140                99.7295
  Atom  AN      X      Y      Z        X      Y      Z        X      Y      Z
     1   6    -0.05  -0.01   0.02    -0.01  -0.18  -0.02    -0.04   0.15   0.00
     2   1    -0.02  -0.02   0.02     0.10  -0.35   0.02    -0.01   0.15   0.01
     3   1    -0.05  -0.05   0.03    -0.06  -0.21   0.04    -0.08   0.23   0.01
     4   1    -0.06  -0.02  -0.01    -0.18  -0.09   0.05     0.03   0.12   0.01
     5   6     0.09   0.05   0.04     0.00  -0.11  -0.07     0.15  -0.12  -0.03
     6   1     0.14   0.17  -0.08    -0.01  -0.21  -0.02     0.26  -0.18  -0.15
     7   1     0.18   0.05   0.11     0.07  -0.12  -0.28     0.29  -0.14  -0.22
     8   1     0.10   0.00   0.13    -0.03  -0.26   0.02     0.19  -0.28   0.24
     9   6    -0.07   0.06   0.03    -0.03   0.02  -0.03    -0.01   0.03  -0.02
    10   8     0.07   0.12  -0.08    -0.24   0.25   0.11     0.04  -0.02  -0.07
    11   1     0.35  -0.20  -0.42    -0.19   0.19   0.04    -0.12   0.12   0.03
    12   8    -0.03   0.02  -0.01     0.10   0.13   0.08    -0.02  -0.07  -0.03
    13   1     0.06   0.03  -0.03     0.14   0.12  -0.06    -0.13  -0.11  -0.11
    14   8    -0.01  -0.01   0.02     0.07  -0.03  -0.22    -0.09   0.07  -0.06
    15   1    -0.43  -0.40  -0.10     0.03   0.06   0.17     0.18   0.06   0.13
    16   8     0.06  -0.17   0.03     0.04  -0.08   0.13    -0.05  -0.01   0.18
    17   1     0.18   0.05   0.00     0.21  -0.13   0.13    -0.02  -0.39   0.20
    18   6    -0.10  -0.01  -0.01     0.07   0.00  -0.01     0.02   0.00   0.00
    19   1    -0.10  -0.02  -0.02    -0.02  -0.02  -0.04     0.06   0.01  -0.01
    20   1    -0.07  -0.04  -0.02     0.02   0.01  -0.02     0.03   0.05   0.02
    21   1     0.02  -0.06  -0.06     0.17  -0.07  -0.04    -0.07   0.03   0.06
                    13                     14                     15
                     A                      A                      A
 Frequencies --   383.1607               444.9542               511.2806
 Red. masses --     1.1900                 2.8722                 2.9510
 Frc consts  --     0.1029                 0.3350                 0.4545
 IR Inten    --   608.1351               370.5618                32.3496
  Atom  AN      X      Y      Z        X      Y      Z        X      Y      Z
     1   6     0.00   0.03  -0.01    -0.06   0.03   0.00    -0.08   0.11   0.03
     2   1     0.01   0.03  -0.01     0.00  -0.10   0.02    -0.12   0.19   0.01
     3   1    -0.01   0.06   0.00    -0.06  -0.01   0.01    -0.04   0.08   0.00
     4   1     0.03   0.02   0.00    -0.16   0.09   0.06    -0.02   0.07  -0.03
     5   6    -0.02  -0.02   0.00    -0.09  -0.09  -0.03     0.00   0.06  -0.16
     6   1    -0.06  -0.08   0.07    -0.21  -0.36   0.24    -0.07   0.11  -0.10
     7   1    -0.07  -0.02  -0.03    -0.18  -0.09  -0.39    -0.05   0.07  -0.07
     8   1    -0.04  -0.01  -0.06    -0.16  -0.16  -0.10    -0.03   0.14  -0.30
     9   6     0.04  -0.02   0.01     0.06   0.14   0.07     0.04   0.00  -0.10
    10   8    -0.04   0.03   0.05     0.13  -0.03   0.14    -0.10  -0.04   0.07
    11   1     0.63  -0.55  -0.32     0.07   0.08   0.32     0.06  -0.09   0.22
    12   8    -0.02  -0.03  -0.02    -0.05  -0.05  -0.04     0.02   0.03   0.05
    13   1    -0.12  -0.07  -0.13    -0.01  -0.04   0.01    -0.05  -0.03  -0.24
    14   8    -0.02   0.01  -0.02     0.05   0.12  -0.11    -0.04   0.05   0.13
    15   1     0.23   0.10   0.14    -0.26  -0.30  -0.19     0.21   0.00  -0.07
    16   8     0.00   0.02   0.02     0.07  -0.04  -0.03     0.14  -0.15  -0.04
    17   1     0.00   0.16   0.01     0.03   0.06  -0.04     0.15  -0.66  -0.01
    18   6     0.02   0.00   0.00    -0.09   0.00   0.01     0.02   0.00   0.00
    19   1     0.03   0.00  -0.01    -0.05   0.00   0.00    -0.02  -0.02  -0.03
    20   1     0.03   0.04   0.01    -0.05  -0.02   0.00    -0.02   0.01  -0.01
    21   1    -0.05   0.02   0.05    -0.06  -0.01  -0.02     0.05  -0.03  -0.01
                    16                     17                     18
                     A                      A                      A
 Frequencies --   537.1179               591.5354               614.3846
 Red. masses --     1.0718                 3.1218                 1.8835
 Frc consts  --     0.1822                 0.6436                 0.4189
 IR Inten    --    36.8890                67.4065                85.9731
  Atom  AN      X      Y      Z        X      Y      Z        X      Y      Z
     1   6     0.01  -0.01   0.00    -0.05   0.07  -0.01    -0.01   0.01   0.01
     2   1     0.00  -0.02   0.00     0.00   0.12   0.01    -0.01   0.05   0.01
     3   1     0.02  -0.03   0.00    -0.13   0.28   0.01    -0.02   0.06   0.00
     4   1    -0.01  -0.01   0.00     0.15   0.00   0.02     0.06  -0.02   0.00
     5   6     0.01   0.00  -0.02    -0.04  -0.05   0.17     0.01   0.02  -0.06
     6   1     0.01  -0.01  -0.02    -0.12  -0.01   0.25     0.00   0.07  -0.06
     7   1     0.02   0.00  -0.03    -0.12  -0.04   0.31    -0.03   0.03   0.05
     8   1     0.00  -0.02  -0.01    -0.07   0.07  -0.01     0.02   0.10  -0.12
     9   6     0.01   0.01  -0.01     0.08  -0.11   0.07     0.01  -0.05  -0.04
    10   8    -0.01   0.00   0.01     0.07   0.15   0.00    -0.04   0.02   0.02
    11   1     0.16  -0.14  -0.06    -0.23   0.28  -0.16    -0.21   0.17   0.10
    12   8    -0.01   0.00  -0.05    -0.01   0.00   0.01    -0.04  -0.07  -0.11
    13   1     0.17   0.17   0.77    -0.04   0.00   0.08    -0.07  -0.01   0.40
    14   8     0.02   0.00   0.00    -0.16  -0.08  -0.10    -0.04  -0.03   0.01
    15   1    -0.07   0.19  -0.22     0.31   0.22  -0.17     0.01   0.01   0.24
    16   8    -0.01   0.01   0.02     0.13  -0.03  -0.10     0.14   0.03   0.08
    17   1    -0.13  -0.41   0.05    -0.18  -0.36  -0.06     0.47   0.58   0.04
    18   6    -0.02  -0.01   0.01     0.02  -0.01   0.00    -0.05  -0.01   0.01
    19   1    -0.02   0.01   0.09     0.00  -0.01   0.01    -0.01   0.01   0.06
    20   1     0.01  -0.07   0.00    -0.01   0.00   0.00     0.03  -0.02   0.01
    21   1    -0.02   0.02  -0.02    -0.02   0.01   0.01    -0.14   0.04   0.05
                    19                     20                     21
                     A                      A                      A
 Frequencies --   670.9817               780.1087               907.9413
 Red. masses --     2.7108                 4.1915                 1.9985
 Frc consts  --     0.7191                 1.5029                 0.9706
 IR Inten    --   384.9915                55.6120               499.4918
  Atom  AN      X      Y      Z        X      Y      Z        X      Y      Z
     1   6     0.07  -0.09  -0.01    -0.05   0.08   0.01    -0.07   0.07   0.01
     2   1     0.06  -0.07  -0.01    -0.04  -0.10   0.01    -0.04   0.02   0.01
     3   1     0.07  -0.09  -0.01     0.02  -0.16   0.01    -0.04   0.02   0.00
     4   1     0.07  -0.09  -0.02    -0.34   0.21   0.03    -0.09   0.08   0.02
     5   6    -0.02   0.01   0.01    -0.07  -0.08   0.25     0.06  -0.09   0.02
     6   1     0.05   0.02  -0.08     0.04  -0.06   0.11    -0.13   0.11   0.17
     7   1     0.03   0.01  -0.02     0.02  -0.09   0.28    -0.19  -0.06   0.42
     8   1     0.01  -0.04   0.13    -0.02  -0.16   0.48     0.02   0.23  -0.42
     9   6    -0.11   0.07   0.01    -0.09   0.00  -0.04     0.09  -0.11  -0.04
    10   8    -0.03   0.01   0.00    -0.16  -0.10  -0.15    -0.03   0.01  -0.01
    11   1     0.06  -0.07  -0.05    -0.07  -0.13  -0.05    -0.03  -0.03  -0.08
    12   8    -0.02  -0.10   0.00    -0.01  -0.01  -0.02     0.08  -0.02  -0.02
    13   1    -0.03  -0.17  -0.47    -0.12  -0.01   0.12     0.22   0.00  -0.13
    14   8     0.00  -0.06   0.01     0.18   0.17  -0.02     0.07   0.02  -0.02
    15   1    -0.12  -0.13  -0.27     0.27   0.16   0.08    -0.39  -0.25  -0.03
    16   8     0.16   0.21   0.02     0.15  -0.04  -0.05    -0.07   0.07   0.03
    17   1     0.09  -0.64   0.08     0.18   0.06  -0.05     0.22  -0.21   0.03
    18   6    -0.09   0.01   0.02     0.01  -0.01  -0.01    -0.11   0.03   0.03
    19   1     0.04   0.02  -0.05    -0.02  -0.01   0.03     0.00   0.03  -0.03
    20   1    -0.07   0.05   0.02     0.02  -0.01   0.00    -0.07   0.02   0.03
    21   1    -0.09   0.03   0.01    -0.04   0.01   0.03     0.00  -0.01  -0.03
                    22                     23                     24
                     A                      A                      A
 Frequencies --   979.1446              1010.6677              1031.4305
 Red. masses --     2.0751                 3.0108                 1.6717
 Frc consts  --     1.1722                 1.8119                 1.0479
 IR Inten    --    44.2912                74.6961                60.0512
  Atom  AN      X      Y      Z        X      Y      Z        X      Y      Z
     1   6     0.05  -0.06   0.00    -0.03   0.02   0.00    -0.08   0.07   0.01
     2   1     0.03   0.03  -0.01    -0.03   0.02   0.00    -0.06   0.03   0.01
     3   1     0.04   0.01  -0.02    -0.02   0.01   0.00    -0.03   0.00  -0.01
     4   1     0.16  -0.12  -0.03    -0.01   0.01   0.00    -0.04   0.05   0.00
     5   6     0.09   0.06   0.10    -0.05   0.06  -0.04     0.05   0.06  -0.04
     6   1    -0.19  -0.33   0.65     0.12  -0.02  -0.23    -0.02  -0.09   0.12
     7   1    -0.11   0.06  -0.40     0.16   0.04  -0.21    -0.01   0.06  -0.29
     8   1    -0.12  -0.11  -0.20     0.00  -0.12   0.28    -0.04  -0.04  -0.14
     9   6     0.11   0.11  -0.02     0.01  -0.03   0.05     0.02  -0.02   0.09
    10   8    -0.09  -0.03  -0.11    -0.01   0.00   0.00    -0.05  -0.02  -0.03
    11   1     0.00  -0.02   0.10    -0.05   0.00  -0.07    -0.17  -0.02  -0.22
    12   8     0.04   0.00  -0.01     0.25  -0.03  -0.05    -0.06  -0.01   0.02
    13   1     0.01  -0.01   0.02     0.07  -0.08  -0.05     0.41   0.10  -0.18
    14   8    -0.08  -0.01   0.03     0.02  -0.03   0.00     0.08  -0.07  -0.01
    15   1     0.01  -0.11   0.08     0.46   0.14   0.00    -0.14   0.23  -0.27
    16   8    -0.01  -0.02   0.00     0.01  -0.04  -0.01     0.05   0.00   0.04
    17   1     0.12  -0.02  -0.01    -0.46   0.19   0.00    -0.36   0.21   0.04
    18   6    -0.05   0.01   0.01    -0.26   0.06   0.07     0.03  -0.04   0.00
    19   1    -0.06   0.01   0.01    -0.20   0.06   0.05     0.34   0.00  -0.10
    20   1    -0.02  -0.01   0.01    -0.17   0.01   0.07    -0.08   0.14   0.02
    21   1     0.01  -0.02   0.00    -0.16  -0.01   0.04    -0.17   0.14   0.00
                    25                     26                     27
                     A                      A                      A
 Frequencies --  1061.2778              1087.7826              1127.6043
 Red. masses --     1.5607                 2.0008                 1.5156
 Frc consts  --     1.0357                 1.3949                 1.1354
 IR Inten    --   227.8134                74.9380               115.3786
  Atom  AN      X      Y      Z        X      Y      Z        X      Y      Z
     1   6     0.09  -0.07  -0.02    -0.12   0.05   0.02     0.02   0.01   0.01
     2   1     0.07  -0.04  -0.02    -0.06   0.13   0.03    -0.08   0.02  -0.02
     3   1     0.03  -0.01   0.01    -0.10   0.14  -0.02     0.06  -0.06  -0.01
     4   1     0.01  -0.03   0.01     0.20  -0.10  -0.04    -0.12   0.06  -0.03
     5   6    -0.03  -0.05   0.02    -0.08   0.04   0.06     0.00   0.08   0.03
     6   1     0.01   0.08  -0.08     0.09  -0.10  -0.10     0.02  -0.19   0.13
     7   1     0.00  -0.05   0.23     0.17   0.01  -0.07     0.04   0.07  -0.37
     8   1     0.04   0.05   0.05    -0.02  -0.18   0.44    -0.09  -0.19   0.10
     9   6     0.01   0.01  -0.05     0.09   0.04  -0.12    -0.06  -0.11  -0.04
    10   8     0.01   0.01   0.00     0.02   0.03  -0.01     0.05   0.00   0.08
    11   1     0.11   0.01   0.18     0.29   0.03   0.47    -0.24   0.00  -0.47
    12   8     0.00   0.00   0.00    -0.01   0.01   0.00     0.01   0.01   0.00
    13   1     0.56   0.14  -0.16     0.18   0.06  -0.02     0.09   0.03   0.01
    14   8    -0.08   0.10   0.01     0.06  -0.14   0.01     0.00   0.03   0.00
    15   1    -0.02   0.25  -0.02    -0.10   0.00   0.13    -0.04   0.05   0.23
    16   8     0.00  -0.05   0.00    -0.04   0.02  -0.02    -0.03   0.01  -0.04
    17   1     0.03   0.09  -0.01     0.31  -0.08  -0.03     0.47  -0.23  -0.05
    18   6    -0.05  -0.05   0.01     0.00  -0.02   0.00    -0.02  -0.02  -0.01
    19   1     0.43   0.02  -0.10     0.17   0.00  -0.04     0.15   0.01   0.00
    20   1    -0.14   0.21   0.05    -0.03   0.07   0.02     0.03   0.07   0.02
    21   1    -0.32   0.20   0.04    -0.10   0.07   0.01    -0.16   0.07   0.05
                    28                     29                     30
                     A                      A                      A
 Frequencies --  1179.9593              1180.7149              1209.6155
 Red. masses --     1.3163                 1.2827                 1.6256
 Frc consts  --     1.0798                 1.0536                 1.4014
 IR Inten    --    24.7899                17.3550               251.6213
  Atom  AN      X      Y      Z        X      Y      Z        X      Y      Z
     1   6    -0.02   0.01  -0.06     0.02   0.01   0.11    -0.03  -0.10   0.01
     2   1     0.27  -0.21   0.04    -0.51   0.30  -0.07    -0.03   0.32   0.03
     3   1    -0.22   0.13   0.12     0.44  -0.34  -0.22    -0.09   0.32  -0.07
     4   1    -0.04   0.06   0.13    -0.03  -0.05  -0.24     0.42  -0.30  -0.06
     5   6     0.03  -0.01   0.00     0.01  -0.02   0.00    -0.06   0.02   0.00
     6   1    -0.05   0.02   0.08    -0.03   0.04   0.02     0.09  -0.02  -0.17
     7   1    -0.07   0.00   0.04    -0.04  -0.02   0.07     0.13   0.00  -0.05
     8   1     0.00   0.04  -0.11     0.02   0.05  -0.06     0.00  -0.05   0.18
     9   6    -0.05   0.04   0.00    -0.02   0.04   0.01     0.10  -0.07   0.01
    10   8     0.01   0.00   0.00     0.00   0.00  -0.01    -0.04  -0.01   0.00
    11   1     0.04   0.01   0.06     0.04   0.01   0.07    -0.13  -0.04  -0.21
    12   8     0.03   0.01   0.05     0.01   0.00   0.02    -0.02  -0.01   0.03
    13   1     0.00  -0.01   0.00     0.00   0.00   0.00     0.07   0.00  -0.06
    14   8     0.02  -0.03   0.03    -0.01  -0.02  -0.06     0.01   0.11  -0.01
    15   1     0.03   0.07   0.05     0.02   0.03   0.02    -0.25  -0.12  -0.16
    16   8    -0.01   0.00  -0.01     0.00  -0.01   0.00     0.02   0.01   0.02
    17   1     0.02  -0.02   0.00    -0.02   0.01   0.00    -0.07   0.04   0.01
    18   6    -0.04  -0.01  -0.10    -0.02  -0.01  -0.05     0.00   0.03  -0.05
    19   1    -0.03   0.07   0.25    -0.01   0.03   0.12    -0.14   0.04   0.13
    20   1     0.58  -0.03  -0.03     0.28  -0.01  -0.02     0.34  -0.11  -0.04
    21   1    -0.47   0.03   0.29    -0.23   0.01   0.14    -0.03  -0.08   0.10
                    31                     32                     33
                     A                      A                      A
 Frequencies --  1232.2381              1302.4078              1368.7579
 Red. masses --     1.6871                 1.8326                 1.6332
 Frc consts  --     1.5093                 1.8316                 1.8028
 IR Inten    --    83.4072                30.3237               353.7550
  Atom  AN      X      Y      Z        X      Y      Z        X      Y      Z
     1   6     0.09   0.08  -0.02     0.00   0.01  -0.01    -0.02   0.02   0.00
     2   1     0.03  -0.33  -0.05     0.06  -0.07   0.01     0.07  -0.12   0.02
     3   1     0.12  -0.35   0.09     0.02  -0.08   0.01     0.04  -0.12  -0.01
     4   1    -0.46   0.33   0.06     0.04   0.00   0.04     0.13  -0.05  -0.01
     5   6    -0.06   0.04   0.00    -0.05  -0.03  -0.04    -0.01  -0.04  -0.01
     6   1     0.10  -0.07  -0.14     0.04   0.15  -0.23    -0.10   0.10   0.05
     7   1     0.16   0.01  -0.08     0.12  -0.03   0.05    -0.04  -0.03   0.20
     8   1    -0.01  -0.08   0.22     0.09   0.15   0.08     0.10   0.04   0.17
     9   6     0.15  -0.06  -0.01     0.12   0.09   0.15     0.05   0.17  -0.07
    10   8    -0.03   0.01  -0.01    -0.05  -0.04  -0.02     0.01  -0.04   0.06
    11   1     0.02   0.00   0.05    -0.20  -0.04  -0.29    -0.35  -0.02  -0.55
    12   8    -0.02  -0.02   0.02     0.01   0.06  -0.01    -0.02  -0.04   0.00
    13   1     0.11   0.00  -0.07    -0.25   0.01   0.17     0.35   0.05  -0.10
    14   8    -0.08  -0.02   0.02    -0.02  -0.02  -0.01     0.00  -0.05   0.01
    15   1    -0.27  -0.11  -0.17     0.05  -0.38   0.32     0.12   0.24  -0.01
    16   8     0.01   0.01   0.02    -0.01   0.01  -0.04    -0.02  -0.02   0.00
    17   1    -0.05   0.04   0.01     0.18  -0.19  -0.03     0.14   0.04  -0.01
    18   6     0.00   0.04  -0.03    -0.01  -0.09   0.00     0.02   0.06   0.00
    19   1    -0.14   0.03   0.08     0.37  -0.03  -0.06    -0.30   0.02   0.04
    20   1     0.23  -0.11  -0.04    -0.02   0.19   0.05    -0.08  -0.13  -0.05
    21   1     0.07  -0.09   0.04    -0.21   0.13  -0.02     0.08  -0.07   0.07
                    34                     35                     36
                     A                      A                      A
 Frequencies --  1398.7124              1450.1847              1489.4775
 Red. masses --     1.5272                 1.4374                 1.1373
 Frc consts  --     1.7604                 1.7810                 1.4865
 IR Inten    --   631.3241                99.9256                 6.0118
  Atom  AN      X      Y      Z        X      Y      Z        X      Y      Z
     1   6     0.00  -0.01  -0.01     0.00   0.00   0.00    -0.06   0.06   0.00
     2   1    -0.02   0.08  -0.01     0.02  -0.01   0.01     0.29  -0.30   0.11
     3   1    -0.03   0.03   0.02     0.02  -0.03  -0.01     0.22  -0.48  -0.11
     4   1    -0.04   0.02   0.06     0.02   0.00   0.01     0.51  -0.18   0.03
     5   6    -0.01  -0.01   0.01    -0.03  -0.05   0.15     0.01   0.02   0.00
     6   1     0.09   0.13  -0.20     0.29   0.23  -0.39     0.15  -0.08  -0.14
     7   1     0.10  -0.02  -0.26     0.08  -0.07  -0.52    -0.15   0.03   0.10
     8   1     0.01   0.19  -0.19    -0.12   0.29  -0.47    -0.16  -0.24  -0.12
     9   6    -0.01  -0.02   0.17     0.01   0.04  -0.09    -0.01  -0.03   0.03
    10   8    -0.01   0.00  -0.05     0.01  -0.01   0.02     0.00   0.00  -0.01
    11   1     0.14   0.00   0.22    -0.07   0.00  -0.11     0.04   0.01   0.07
    12   8    -0.02  -0.05   0.00     0.01   0.01   0.00     0.01   0.00   0.00
    13   1     0.40   0.07  -0.08    -0.11  -0.03   0.01    -0.05  -0.02  -0.01
    14   8     0.01   0.01  -0.02     0.00  -0.01   0.01    -0.02   0.03   0.00
    15   1     0.08   0.24   0.20     0.01   0.01  -0.15    -0.04   0.07  -0.05
    16   8    -0.03  -0.01  -0.04     0.00   0.00   0.02     0.00   0.00   0.00
    17   1     0.44  -0.14  -0.05    -0.08   0.08   0.01     0.07  -0.01  -0.01
    18   6     0.02   0.07   0.00    -0.01  -0.02   0.00     0.01  -0.01   0.00
    19   1    -0.32   0.02   0.04     0.05  -0.01   0.01    -0.07  -0.02   0.01
    20   1    -0.12  -0.15  -0.06     0.03   0.05   0.02    -0.04   0.04   0.01
    21   1     0.05  -0.06   0.10     0.00   0.02  -0.04    -0.05   0.06  -0.01
                    37                     38                     39
                     A                      A                      A
 Frequencies --  1500.2117              1505.8203              1512.7293
 Red. masses --     1.1202                 1.0523                 1.0483
 Frc consts  --     1.4855                 1.4059                 1.4134
 IR Inten    --    83.2113                15.8905                15.0070
  Atom  AN      X      Y      Z        X      Y      Z        X      Y      Z
     1   6     0.01  -0.01   0.00    -0.02   0.00  -0.02     0.00  -0.01   0.01
     2   1    -0.02   0.07  -0.01     0.15   0.22   0.06     0.02  -0.05   0.01
     3   1    -0.01   0.08  -0.01     0.09  -0.24  -0.05     0.02   0.15  -0.07
     4   1    -0.10   0.04   0.01     0.08   0.03   0.32    -0.10   0.01  -0.14
     5   6    -0.01   0.01   0.00    -0.04   0.00  -0.01    -0.01   0.02   0.01
     6   1     0.04  -0.16   0.01    -0.04  -0.38   0.19     0.16  -0.22  -0.10
     7   1     0.14   0.00   0.10     0.58  -0.04   0.11     0.06   0.01   0.17
     8   1    -0.02   0.03  -0.05     0.12   0.38  -0.10    -0.13  -0.09  -0.18
     9   6     0.01   0.00  -0.01    -0.03   0.00  -0.01     0.00   0.02   0.00
    10   8     0.00   0.00   0.00     0.01   0.00   0.00     0.00   0.00   0.00
    11   1    -0.01   0.00  -0.02     0.00   0.00  -0.01    -0.02   0.00  -0.03
    12   8     0.03   0.00   0.00     0.00   0.00   0.00     0.00   0.01   0.00
    13   1    -0.08  -0.04   0.00    -0.05  -0.02  -0.01     0.01   0.01   0.03
    14   8     0.00   0.00   0.00     0.00   0.00   0.00     0.00  -0.01   0.00
    15   1    -0.13  -0.03  -0.13     0.00   0.10  -0.06     0.01  -0.05   0.09
    16   8     0.00   0.00   0.01     0.00   0.00   0.00     0.00   0.00   0.00
    17   1     0.01   0.02   0.00     0.03   0.02   0.00    -0.05  -0.02   0.00
    18   6     0.08  -0.05  -0.01    -0.02   0.00   0.01     0.01   0.03   0.04
    19   1    -0.58  -0.13   0.12     0.10   0.01  -0.05    -0.03  -0.12  -0.59
    20   1    -0.31   0.31   0.02     0.10  -0.03   0.01     0.12  -0.52  -0.07
    21   1    -0.38   0.40   0.00     0.08  -0.03  -0.06    -0.22   0.21   0.06
                    40                     41                     42
                     A                      A                      A
 Frequencies --  1513.5718              1519.2929              1522.9903
 Red. masses --     1.0577                 1.0572                 1.0861
 Frc consts  --     1.4277                 1.4378                 1.4843
 IR Inten    --    22.4908                 8.6407               151.4702
  Atom  AN      X      Y      Z        X      Y      Z        X      Y      Z
     1   6     0.00  -0.01   0.02     0.00  -0.03  -0.04     0.00  -0.02   0.00
     2   1     0.05  -0.02   0.02     0.11   0.56   0.03     0.11   0.15   0.04
     3   1     0.04   0.21  -0.11     0.04  -0.20  -0.01     0.07   0.12  -0.12
     4   1    -0.18   0.03  -0.15    -0.10   0.16   0.58    -0.18   0.07   0.04
     5   6    -0.01   0.03   0.01     0.02   0.01   0.01     0.01   0.01   0.00
     6   1     0.27  -0.37  -0.16     0.08   0.09  -0.11     0.09  -0.03  -0.10
     7   1     0.09   0.02   0.31    -0.28   0.03   0.04    -0.13   0.02   0.11
     8   1    -0.22  -0.17  -0.29    -0.11  -0.25   0.01    -0.10  -0.17  -0.05
     9   6     0.00   0.04   0.01     0.01   0.01  -0.02     0.01   0.03   0.03
    10   8     0.00  -0.01   0.00     0.00   0.00   0.00     0.00  -0.01   0.00
    11   1    -0.04   0.00  -0.05    -0.02   0.00  -0.02    -0.02   0.00  -0.02
    12   8    -0.01   0.00  -0.01     0.00   0.01   0.00    -0.01  -0.02   0.01
    13   1     0.05   0.02  -0.01     0.03   0.01   0.02     0.01  -0.01  -0.03
    14   8     0.00  -0.01   0.00     0.00  -0.01  -0.01     0.00  -0.01   0.00
    15   1     0.07  -0.03   0.04     0.01  -0.10   0.06     0.08   0.18  -0.12
    16   8     0.00   0.00   0.00     0.01   0.00   0.00    -0.02  -0.01   0.00
    17   1     0.01   0.00   0.00    -0.07  -0.01   0.00     0.19   0.02  -0.01
    18   6    -0.01   0.01  -0.03     0.01   0.01  -0.01    -0.04  -0.02   0.03
    19   1     0.17   0.12   0.35     0.01   0.00  -0.02    -0.10  -0.04  -0.06
    20   1    -0.20   0.12  -0.02    -0.12  -0.11  -0.04     0.48   0.28   0.14
    21   1     0.12  -0.30   0.17    -0.09  -0.04   0.14     0.25   0.21  -0.50
                    43                     44                     45
                     A                      A                      A
 Frequencies --  1527.9539              1560.2383              1707.7026
 Red. masses --     1.0532                 1.0797                 1.0622
 Frc consts  --     1.4487                 1.5486                 1.8250
 IR Inten    --     7.9095                24.0230               157.9523
  Atom  AN      X      Y      Z        X      Y      Z        X      Y      Z
     1   6    -0.04  -0.02   0.03    -0.01   0.01   0.00     0.00   0.00   0.00
     2   1     0.53   0.02   0.22     0.05  -0.04   0.02     0.02  -0.02   0.01
     3   1     0.39   0.20  -0.51     0.04  -0.06  -0.03     0.01  -0.02  -0.01
     4   1    -0.24   0.04  -0.15     0.05  -0.02   0.00     0.02   0.00   0.00
     5   6     0.00  -0.01   0.00     0.00   0.00   0.01     0.00   0.00   0.00
     6   1    -0.12   0.16   0.08     0.02  -0.05   0.01    -0.02  -0.01   0.03
     7   1    -0.02  -0.01  -0.15     0.06  -0.01  -0.02     0.02   0.00  -0.02
     8   1     0.11   0.10   0.14    -0.01   0.04  -0.06     0.01   0.01   0.02
     9   6     0.00  -0.02  -0.01    -0.02  -0.01  -0.03    -0.01  -0.03   0.00
    10   8     0.00   0.00   0.00     0.00   0.00   0.01     0.00   0.00   0.00
    11   1     0.02   0.00   0.03     0.01   0.00   0.01     0.01   0.00   0.02
    12   8     0.00   0.00   0.00    -0.04  -0.01  -0.01    -0.03   0.02   0.01
    13   1    -0.02   0.00   0.00     0.40   0.11   0.03     0.23   0.10   0.05
    14   8    -0.01   0.00   0.01     0.00   0.00   0.00     0.00   0.00   0.00
    15   1    -0.04  -0.01   0.01     0.10  -0.38   0.58     0.61  -0.52  -0.48
    16   8     0.00   0.00   0.00     0.03   0.02  -0.01    -0.03   0.02   0.02
    17   1    -0.03  -0.01   0.00    -0.40  -0.09   0.02     0.21   0.09   0.01
    18   6     0.01   0.00  -0.01     0.00   0.00   0.00     0.00   0.00  -0.01
    19   1     0.01   0.01   0.01    -0.20  -0.01   0.07    -0.02  -0.01  -0.02
    20   1    -0.09  -0.04  -0.02     0.15   0.16   0.04     0.00  -0.02  -0.01
    21   1    -0.05  -0.03   0.09     0.08   0.10  -0.17    -0.06   0.02   0.02
                    46                     47                     48
                     A                      A                      A
 Frequencies --  3080.1298              3083.6504              3099.3506
 Red. masses --     1.0347                 1.0342                 1.0291
 Frc consts  --     5.7838                 5.7943                 5.8247
 IR Inten    --    12.6144                10.6746                10.3058
  Atom  AN      X      Y      Z        X      Y      Z        X      Y      Z
     1   6     0.03  -0.01  -0.02     0.03  -0.01  -0.02     0.00   0.00   0.00
     2   1    -0.19  -0.02   0.54    -0.17  -0.02   0.49     0.00   0.00   0.00
     3   1    -0.25  -0.08  -0.24    -0.25  -0.08  -0.24     0.00   0.00   0.00
     4   1     0.11   0.25  -0.06     0.11   0.25  -0.06     0.00   0.00   0.00
     5   6    -0.01  -0.01   0.03     0.01   0.02  -0.03     0.00   0.00   0.00
     6   1    -0.27  -0.10  -0.20     0.30   0.11   0.23     0.00   0.00   0.00
     7   1     0.03   0.43   0.00    -0.04  -0.47   0.01     0.00   0.00   0.00
     8   1     0.34  -0.16  -0.14    -0.33   0.16   0.14     0.00   0.00   0.00
     9   6     0.00   0.00   0.00     0.00   0.00   0.00     0.00   0.00   0.00
    10   8     0.00   0.00   0.00     0.00   0.00   0.00     0.00   0.00   0.00
    11   1     0.00   0.00   0.00     0.00   0.00   0.00     0.00   0.00   0.00
    12   8     0.00   0.00   0.00     0.00   0.00   0.00     0.00   0.00   0.00
    13   1     0.00   0.00   0.00     0.00   0.00   0.00     0.00  -0.01   0.00
    14   8     0.00   0.00   0.00     0.00   0.00   0.00     0.00   0.00   0.00
    15   1     0.00   0.00   0.00     0.00   0.00   0.00    -0.01  -0.01   0.00
    16   8     0.00   0.00   0.00     0.00   0.00   0.00     0.00   0.00   0.00
    17   1     0.00   0.00   0.00     0.00   0.00   0.00     0.00   0.00   0.00
    18   6     0.00   0.00   0.00     0.00   0.00   0.00     0.04   0.00  -0.02
    19   1     0.00   0.00   0.00     0.00   0.00   0.00    -0.08   0.46  -0.10
    20   1     0.00   0.00   0.00     0.00   0.00   0.00    -0.07  -0.14   0.68
    21   1     0.00   0.00   0.00     0.00   0.00   0.00    -0.30  -0.31  -0.30
                    49                     50                     51
                     A                      A                      A
 Frequencies --  3158.3100              3166.1675              3170.6274
 Red. masses --     1.1042                 1.1037                 1.1044
 Frc consts  --     6.4893                 6.5185                 6.5413
 IR Inten    --     2.5566                 3.3459                 7.8225
  Atom  AN      X      Y      Z        X      Y      Z        X      Y      Z
     1   6     0.00   0.00   0.01     0.00   0.01  -0.03    -0.01   0.01  -0.09
     2   1     0.02   0.00  -0.05    -0.06  -0.01   0.17    -0.20  -0.02   0.55
     3   1    -0.06  -0.02  -0.05     0.17   0.06   0.15     0.47   0.16   0.42
     4   1     0.02   0.04  -0.01    -0.05  -0.12   0.02    -0.13  -0.29   0.05
     5   6     0.02  -0.09  -0.03    -0.08  -0.01  -0.02     0.03  -0.01   0.00
     6   1     0.24   0.07   0.18     0.57   0.21   0.45    -0.17  -0.06  -0.13
     7   1     0.06   0.75  -0.02     0.00   0.15  -0.01     0.01   0.02   0.00
     8   1    -0.48   0.22   0.20     0.45  -0.22  -0.20    -0.22   0.11   0.10
     9   6     0.00   0.00   0.00     0.00   0.00   0.00     0.00   0.00   0.00
    10   8     0.00   0.00   0.00     0.00   0.00   0.00     0.00   0.00   0.00
    11   1     0.00   0.00   0.00     0.00   0.00   0.00     0.00   0.00   0.00
    12   8     0.00   0.00   0.00     0.00   0.00   0.00     0.00   0.00   0.00
    13   1     0.00   0.00   0.00     0.00   0.00   0.00     0.00   0.00   0.00
    14   8     0.00   0.00   0.00     0.00   0.00   0.00     0.00   0.00   0.00
    15   1     0.00   0.00   0.00     0.00   0.00   0.00     0.00   0.00   0.00
    16   8     0.00   0.00   0.00     0.00   0.00   0.00     0.00   0.00   0.00
    17   1     0.00   0.00   0.00     0.00   0.00   0.00     0.00   0.00   0.00
    18   6     0.00   0.00   0.00     0.00   0.00   0.00     0.00   0.00   0.00
    19   1     0.00   0.00   0.00     0.00   0.00   0.00     0.00   0.00   0.00
    20   1     0.00   0.00   0.00     0.00   0.00   0.00     0.00   0.00   0.00
    21   1     0.00   0.00   0.00     0.00   0.00   0.00     0.00   0.00   0.00
                    52                     53                     54
                     A                      A                      A
 Frequencies --  3195.7134              3202.6688              3215.8763
 Red. masses --     1.1100                 1.1076                 1.1103
 Frc consts  --     6.6791                 6.6933                 6.7655
 IR Inten    --     3.0108                 3.2733                 1.0552
  Atom  AN      X      Y      Z        X      Y      Z        X      Y      Z
     1   6     0.00   0.00   0.00    -0.06  -0.07  -0.01     0.00   0.00   0.00
     2   1     0.00   0.00   0.00     0.02  -0.01  -0.09     0.00   0.00   0.00
     3   1     0.00   0.00   0.00     0.36   0.11   0.34     0.00   0.00   0.00
     4   1     0.00   0.00   0.00     0.33   0.76  -0.18     0.00   0.00   0.00
     5   6     0.00   0.00   0.00     0.00   0.00   0.00     0.00   0.00   0.00
     6   1     0.00   0.00   0.00     0.00   0.00   0.00     0.00   0.00   0.00
     7   1     0.00   0.00   0.00     0.00   0.00   0.00     0.00   0.00   0.00
     8   1     0.00   0.00   0.00     0.01   0.00   0.00     0.00   0.00   0.00
     9   6     0.00   0.00   0.00     0.00   0.00   0.00     0.00   0.00   0.00
    10   8     0.00   0.00   0.00     0.00   0.00   0.00     0.00   0.00   0.00
    11   1     0.00   0.00   0.00     0.00   0.00   0.00     0.00   0.00   0.00
    12   8     0.00   0.00   0.00     0.00   0.00   0.00     0.00   0.00   0.00
    13   1     0.00  -0.01   0.00     0.00   0.00   0.00     0.00   0.01   0.00
    14   8     0.00   0.00   0.00     0.00   0.00   0.00     0.00   0.00   0.00
    15   1     0.00   0.00   0.00     0.00   0.00   0.00     0.00   0.00   0.00
    16   8     0.00   0.00   0.00     0.00   0.00   0.00     0.00   0.00   0.00
    17   1     0.00   0.00   0.00     0.00   0.00   0.00     0.00   0.00   0.00
    18   6     0.03   0.00   0.09     0.00   0.00   0.00     0.02   0.10   0.00
    19   1    -0.05   0.31  -0.05     0.00   0.00   0.00     0.14  -0.79   0.18
    20   1     0.07   0.14  -0.67     0.00   0.00   0.00    -0.01  -0.01   0.14
    21   1    -0.37  -0.39  -0.36     0.00   0.00   0.00    -0.31  -0.31  -0.32
                    55                     56                     57
                     A                      A                      A
 Frequencies --  3663.8870              3717.0411              3737.3156
 Red. masses --     1.0657                 1.0667                 1.0670
 Frc consts  --     8.4292                 8.6831                 8.7808
 IR Inten    --   124.4956               114.9474                94.0604
  Atom  AN      X      Y      Z        X      Y      Z        X      Y      Z
     1   6     0.00   0.00   0.00     0.00   0.00   0.00     0.00   0.00   0.00
     2   1     0.00   0.00   0.00     0.00   0.00   0.00     0.00   0.00   0.00
     3   1     0.00   0.00   0.00     0.00   0.00   0.00     0.00   0.00   0.00
     4   1     0.00   0.00   0.00     0.00   0.00   0.00     0.00   0.00   0.00
     5   6     0.00   0.00   0.00     0.00   0.00   0.00     0.00   0.00   0.00
     6   1     0.00   0.00   0.00     0.00   0.00   0.00     0.00   0.00   0.00
     7   1     0.00   0.00   0.00     0.00   0.00   0.00     0.00   0.00   0.00
     8   1     0.00   0.00   0.00     0.00   0.00   0.00     0.00   0.00   0.00
     9   6     0.00   0.00   0.00     0.00   0.00   0.00     0.00   0.00   0.00
    10   8     0.00   0.00   0.00     0.00   0.00   0.00    -0.03  -0.05   0.02
    11   1     0.01   0.01   0.00     0.01   0.01   0.00     0.53   0.79  -0.30
    12   8     0.00   0.00   0.00     0.02  -0.06   0.01     0.00   0.00   0.00
    13   1     0.01  -0.02   0.00    -0.27   0.95  -0.13     0.00  -0.01   0.00
    14   8     0.00   0.00   0.00     0.00   0.00   0.00     0.00   0.00   0.00
    15   1     0.01   0.00   0.01    -0.01  -0.01   0.00     0.00   0.00   0.00
    16   8     0.00   0.00   0.06     0.00   0.00   0.00     0.00   0.00   0.00
    17   1    -0.04  -0.06  -0.99     0.00   0.00  -0.02     0.00   0.00   0.01
    18   6     0.00   0.00   0.00     0.00   0.00   0.00     0.00   0.00   0.00
    19   1     0.00   0.00   0.00    -0.01   0.01   0.00     0.00   0.00   0.00
    20   1     0.00   0.00   0.00     0.00   0.00   0.00     0.00   0.00   0.00
    21   1     0.00   0.00   0.00     0.00   0.00   0.00     0.00   0.00   0.00

 -------------------
 - Thermochemistry -
 -------------------
 Temperature   298.150 Kelvin.  Pressure   1.00000 Atm.
 Atom     1 has atomic number  6 and mass  12.00000
 Atom     2 has atomic number  1 and mass   1.00783
 Atom     3 has atomic number  1 and mass   1.00783
 Atom     4 has atomic number  1 and mass   1.00783
 Atom     5 has atomic number  6 and mass  12.00000
 Atom     6 has atomic number  1 and mass   1.00783
 Atom     7 has atomic number  1 and mass   1.00783
 Atom     8 has atomic number  1 and mass   1.00783
 Atom     9 has atomic number  6 and mass  12.00000
 Atom    10 has atomic number  8 and mass  15.99491
 Atom    11 has atomic number  1 and mass   1.00783
 Atom    12 has atomic number  8 and mass  15.99491
 Atom    13 has atomic number  1 and mass   1.00783
 Atom    14 has atomic number  8 and mass  15.99491
 Atom    15 has atomic number  1 and mass   1.00783
 Atom    16 has atomic number  8 and mass  15.99491
 Atom    17 has atomic number  1 and mass   1.00783
 Atom    18 has atomic number  6 and mass  12.00000
 Atom    19 has atomic number  1 and mass   1.00783
 Atom    20 has atomic number  1 and mass   1.00783
 Atom    21 has atomic number  1 and mass   1.00783
 Molecular mass:   125.08138 amu.
 Principal axes and moments of inertia in atomic units:
                           1         2         3
     Eigenvalues --   644.890761763.175941992.71085
           X            0.99982  -0.00685  -0.01763
           Y            0.00629   0.99949  -0.03130
           Z            0.01784   0.03118   0.99935
 This molecule is an asymmetric top.
 Rotational symmetry number  1.
 Warning -- assumption of classical behavior for rotation
           may cause significant error
 Rotational temperatures (Kelvin)      0.13431     0.04912     0.04347
 Rotational constants (GHZ):           2.79852     1.02357     0.90567
    1 imaginary frequencies ignored.
 Zero-point vibrational energy     472988.6 (Joules/Mol)
                                  113.04699 (Kcal/Mol)
 Warning -- explicit consideration of  17 degrees of freedom as
           vibrations may cause significant error
 Vibrational temperatures:     93.91   102.07   126.96   142.29   200.91
          (Kelvin)            253.97   328.30   348.61   487.63   500.56
                              529.51   551.28   640.19   735.62   772.79
                              851.09   883.96   965.39  1122.40  1306.32
                             1408.77  1454.12  1484.00  1526.94  1565.07
                             1622.37  1697.70  1698.78  1740.36  1772.91
                             1873.87  1969.33  2012.43  2086.49  2143.02
                             2158.47  2166.54  2176.48  2177.69  2185.92
                             2191.24  2198.38  2244.83  2457.00  4431.61
                             4436.68  4459.27  4544.10  4555.40  4561.82
                             4597.91  4607.92  4626.92  5271.51  5347.99
                             5377.16
 
 Zero-point correction=                           0.180152 (Hartree/Particle)
 Thermal correction to Energy=                    0.191344
 Thermal correction to Enthalpy=                  0.192288
 Thermal correction to Gibbs Free Energy=         0.143365
 Sum of electronic and zero-point Energies=           -460.514718
 Sum of electronic and thermal Energies=              -460.503526
 Sum of electronic and thermal Enthalpies=            -460.502582
 Sum of electronic and thermal Free Energies=         -460.551505
 
                     E (Thermal)             CV                S
                      KCal/Mol        Cal/Mol-Kelvin    Cal/Mol-Kelvin
 Total                  120.070             39.189            102.967
 Electronic               0.000              0.000              0.000
 Translational            0.889              2.981             40.385
 Rotational               0.889              2.981             29.206
 Vibrational            118.293             33.227             33.376
 Vibration     1          0.597              1.971              4.291
 Vibration     2          0.598              1.968              4.127
 Vibration     3          0.601              1.957              3.699
 Vibration     4          0.604              1.950              3.476
 Vibration     5          0.615              1.914              2.809
 Vibration     6          0.628              1.871              2.365
 Vibration     7          0.651              1.798              1.893
 Vibration     8          0.658              1.775              1.786
 Vibration     9          0.719              1.598              1.217
 Vibration    10          0.726              1.580              1.176
 Vibration    11          0.741              1.538              1.088
 Vibration    12          0.752              1.506              1.027
 Vibration    13          0.804              1.372              0.811
 Vibration    14          0.866              1.225              0.631
 Vibration    15          0.892              1.168              0.572
 Vibration    16          0.949              1.050              0.464
[...]
 014843,-0.00035666,0.00010285,0.00085664,0.00107897,-0.00007101,0.0002
 0182,-0.00001100,0.00033702,-0.03836811,0.01214464,-0.03104623,0.00263
 013,-0.00380433,-0.00803804,-0.00056503,0.00023518,0.00158438,-0.00064
 157,0.00096822,0.00258482,-0.05203385,-0.00741590,-0.19103519,0.066439
 43,0.09799662,0.28922307,0.00063077,0.00048159,-0.00007477,0.00009673,
 0.00002735,0.00015141,0.00030582,0.00007727,-0.00009167,-0.00001686,-0
 .00002650,-0.00001523,0.00195569,-0.00043222,0.00097542,-0.00034310,-0
 .00032920,0.00097078,0.00035162,-0.00077030,-0.00109818,0.00003536,-0.
 00049120,0.00029362,-0.01669952,0.02629752,0.01115737,-0.13949589,0.18
 715585,0.04786400,0.15668304,0.00136066,0.00116087,0.00008797,-0.00003
 866,-0.00020881,0.00014007,-0.00010389,0.00004106,-0.00045195,-0.00017
 344,0.00004816,-0.00006151,-0.00288326,0.00237383,-0.00161779,-0.00009
 371,-0.00055256,-0.00108705,-0.00038288,0.00008108,-0.00014008,0.00001
 061,-0.00021377,0.00089844,0.00406923,-0.00965636,-0.00561475,0.209410
 51,-0.31077626,-0.10923166,-0.20906691,0.32063608,-0.00063733,-0.00079
 981,0.00048131,0.00011466,0.00020600,-0.00015042,0.00026755,0.00019716
 ,-0.00003937,0.00011491,0.00002291,-0.00006252,0.00028635,0.00098291,0
 .00020837,0.00038318,-0.00042439,0.00006234,-0.00094722,-0.00106098,-0
 .00076093,0.00011524,0.00063989,-0.00070152,-0.01750022,0.02759394,0.0
 0922889,0.08116574,-0.14755759,-0.08632623,-0.05679161,0.11514953,0.08
 210443,0.00212310,0.00263890,-0.00043303,-0.00048529,-0.00021400,0.000
 16530,-0.00049096,-0.00024512,0.00013010,-0.00009743,-0.00029559,0.000
 04355,-0.00124789,-0.00082796,0.00054514,-0.00004881,-0.00008266,-0.00
 040666,-0.00002025,-0.00009739,-0.00024523,-0.00017051,0.00015068,0.00
 046474,0.01590746,0.00795941,-0.00574488,-0.00653839,-0.00030637,-0.00
 124637,0.00078602,-0.00058044,-0.00002810,0.41352640,-0.00057161,0.000
 18977,-0.00008587,0.00013757,-0.00003234,0.00001958,-0.00011908,-0.000
 16138,-0.00003309,0.00024733,0.00023477,0.00003502,0.00114482,0.001190
 63,-0.00028205,-0.00000816,-0.00035026,-0.00015074,-0.00024146,0.00024
 298,0.00019762,0.00011200,-0.00013178,-0.00043596,-0.00969969,-0.01368
 281,0.00671538,0.00539801,0.00161185,0.00046845,-0.00043753,0.00050337
 ,0.00005982,0.10678018,0.60096876,0.00042929,0.00019041,0.00002792,-0.
 00023460,-0.00004612,0.00006054,0.00004252,0.00002871,0.00003621,-0.00
 009857,-0.00010105,-0.00009482,-0.00095500,-0.00042125,-0.00013712,-0.
 00013748,0.00009824,0.00034233,0.00014773,-0.00012371,-0.00001601,0.00
 008043,0.00002663,0.00040743,0.00584128,0.00660689,-0.00414710,-0.0025
 7030,-0.00066079,0.00012163,0.00022832,-0.00020292,-0.00016476,-0.0172
 6585,0.03449067,0.10774412,-0.00099392,-0.00166164,0.00029895,0.000196
 90,0.00015876,-0.00012230,0.00038463,0.00021541,-0.00002725,-0.0002383
 8,-0.00011460,-0.00008041,-0.00021672,-0.00070683,0.00011070,0.0000832
 5,0.00022106,0.00010470,0.00013259,-0.00014204,-0.00015167,-0.00008209
 ,0.00005755,0.00009002,0.00149692,0.00705608,-0.00121843,-0.00018616,-
 0.00149225,0.00025697,0.00002689,-0.00009951,0.00010102,-0.08947816,-0
 .09089861,-0.01153516,0.08865269,0.00010792,0.00105789,-0.00006885,-0.
 00016693,-0.00008785,0.00002318,-0.00015429,-0.00018774,0.00002194,-0.
 00019100,-0.00017614,-0.00010444,-0.00009729,-0.00017662,0.00008146,0.
 00008200,0.00001327,-0.00015307,0.00000167,-0.00001535,-0.00003146,-0.
 00007957,0.00005549,0.00002800,0.00253202,0.00042738,-0.00000527,-0.00
 044844,-0.00015143,-0.00025741,0.00012497,-0.00002620,0.00001929,-0.11
 446719,-0.44699610,-0.05641226,0.11509929,0.45541090,-0.00013363,-0.00
 029675,0.00006714,0.00025603,0.00001008,-0.00008149,0.00000690,0.00005
 656,-0.00002565,-0.00004285,-0.00001374,0.00020279,0.00029353,-0.00010
 263,0.00012497,0.00001210,-0.00025613,-0.00011608,-0.00009518,0.000021
 35,-0.00012158,0.00001377,-0.00000700,-0.00002548,-0.00065792,0.000436
 57,0.00076521,0.00000311,-0.00003264,-0.00028086,-0.00002382,-0.000010
 13,0.00006791,-0.01968526,-0.08000284,-0.02184954,0.01099187,0.0600905
 5,0.02199429,-0.15908540,-0.03454873,0.01364093,-0.01875295,-0.0171872
 8,0.00387491,-0.02825598,-0.02653388,0.00597240,0.00509257,0.00094181,
 -0.00133194,0.00580838,0.01046944,0.00050566,0.00047256,0.00000026,0.0
 0155351,0.00101188,0.00000327,0.00201953,0.00028608,-0.00132720,-0.001
 85780,-0.10550410,0.01098898,0.01231080,-0.01680426,0.04161607,-0.0051
 6599,0.00057337,0.00385642,-0.00601451,-0.00695515,-0.00083918,-0.0002
 6673,0.00264379,-0.00181932,0.00031199,0.32707961,-0.06266398,-0.11091
 075,0.00697859,-0.01108715,-0.00740989,0.00541489,-0.00786826,-0.00302
 609,-0.00303235,-0.03744209,-0.02680708,0.00531087,0.00669437,-0.03216
 287,-0.00637069,-0.00062864,0.00040363,0.00150986,0.00153019,-0.000014
 83,-0.00620500,0.00075740,-0.00056266,0.00012756,0.04512951,-0.2006703
 7,-0.03985162,0.03691333,-0.03936658,0.01510692,-0.00210229,-0.0019050
 4,0.00578073,-0.00460167,0.00450599,-0.00194389,-0.00297667,-0.0019259
 3,0.00012711,0.06321630,0.48265980,0.01574456,0.00627149,-0.05851426,0
 .02509429,0.02224720,0.00525091,-0.01342556,-0.01444836,0.00783547,-0.
 00492375,-0.00278006,0.00145515,0.00327394,-0.03662525,0.00235063,0.00
 029712,0.00049581,0.00245819,0.00205416,-0.00241733,-0.00632532,0.0002
 2375,0.00148729,0.00156927,0.01456403,-0.02805583,-0.08189512,-0.01435
 156,0.03084341,0.00977575,-0.00245562,0.00273839,-0.00331104,-0.000047
 20,-0.00054952,0.00129572,0.00004879,0.00006530,-0.00152361,-0.0269442
 1,0.00788288,0.11281277,-0.00291409,-0.00215396,0.00029211,0.00075383,
 0.00028042,-0.00020224,0.00040607,0.00013379,-0.00013665,0.00062123,0.
 00069053,0.00000531,0.00253368,0.00172191,-0.00019954,0.00022946,-0.00
 015710,0.00030169,-0.00021308,0.00035848,0.00030158,0.00029470,-0.0003
 5532,-0.00109347,-0.04204465,-0.01455505,0.01016445,0.00843973,0.00217
 665,0.00116484,-0.00153683,0.00065735,0.00007435,-0.01819897,-0.021079
 09,0.00050880,0.01871009,-0.00166308,0.00569517,0.00310989,0.01200482,
 -0.00189047,0.05699596,0.00140994,-0.00074238,0.00019272,-0.00014035,0
 .00011417,-0.00004754,0.00027656,0.00044146,0.00004321,-0.00043068,-0.
 00044347,-0.00001096,-0.00199145,-0.00241428,0.00038303,-0.00005501,0.
 00061829,0.00014029,0.00053564,-0.00045718,-0.00043197,-0.00023978,0.0
 0025403,0.00090822,0.01732139,0.03097270,-0.01630206,-0.01293266,-0.00
 262919,-0.00145841,0.00062106,-0.00123314,-0.00010847,-0.03082096,-0.0
 3739205,0.00254320,0.00814547,-0.01181204,0.00723783,-0.00027307,-0.00
 901353,0.00079024,0.02915496,0.06401441,-0.00100996,-0.00031321,-0.000
 25678,0.00037109,0.00013583,-0.00008680,-0.00005044,-0.00014658,-0.000
 01832,0.00023584,0.00024631,0.00003446,0.00220231,0.00097898,-0.000118
 83,0.00046981,0.00008889,-0.00123153,-0.00015795,0.00027780,0.00018718
 ,-0.00032359,-0.00000155,-0.00102228,-0.01187412,-0.01776111,0.0113490
 2,0.00623095,0.00139484,0.00102879,-0.00063475,0.00043487,0.00032343,-
 0.00117380,0.01155970,-0.03047391,0.00788587,-0.00342929,0.00201746,0.
 00088820,0.00440636,-0.00139467,-0.01924529,-0.00168274,0.07166956,0.0
 0702313,0.00181129,0.00146787,-0.00084086,-0.00051264,0.00007384,0.000
 08296,0.00092184,0.00011684,-0.00099063,-0.00101853,0.00029212,-0.0172
 2480,-0.01052043,0.01293779,0.00044487,-0.00026577,0.00095900,-0.00013
 687,-0.00069169,-0.00164378,0.00150937,0.00137245,0.00310830,-0.038115
 08,0.01431127,-0.01832778,-0.07260158,-0.00134034,-0.01472435,-0.00232
 045,-0.00652383,-0.00074011,-0.05447724,0.05080723,-0.02580301,-0.0085
 3658,-0.00107526,-0.00182378,-0.01154637,-0.03786855,0.00431174,-0.023
 27903,-0.00305546,0.03153614,0.27673969,0.00697370,0.00161984,0.002504
 75,-0.00138952,-0.00142001,0.00039904,-0.00066886,-0.00046873,-0.00016
 372,-0.00136131,-0.00093745,0.00024289,-0.00079252,0.00331731,0.000074
 28,0.00009961,-0.00020046,-0.00072179,-0.00007586,0.00137956,0.0006594
 5,0.00017086,0.00083213,-0.00082614,0.00573742,-0.06492075,0.00507287,
 0.00676910,0.01572250,-0.00435467,-0.00225271,-0.00128046,0.00029973,0
 .04292374,-0.01557991,0.01291681,0.00126557,0.00107144,-0.00049665,-0.
 04871861,-0.05320840,0.01350357,0.00027316,-0.04558774,0.00038438,-0.0
 0997372,0.18276554,-0.00159617,-0.00067447,0.00196203,-0.00042598,-0.0
 0064362,0.00013421,0.00038248,0.00050182,-0.00007627,0.00037472,0.0002
 5439,0.00008881,0.03815946,0.01574340,-0.01566173,-0.00014926,0.000308
 51,0.00222942,-0.00022447,0.00030238,0.00101152,0.00080830,-0.00321568
 ,-0.00660592,0.00954766,0.01642933,-0.09956380,-0.02785174,-0.00733901
 ,0.01199661,-0.00056354,-0.00082396,-0.00083283,-0.02461659,0.01378092
 ,0.00531727,-0.00200087,0.00087504,-0.00072569,0.00392096,0.00787836,0
 .00748201,0.00875027,0.01453938,-0.05075297,0.03270902,-0.06471248,0.6
 1156597,0.00007327,-0.00028811,0.00016390,0.00004935,0.00010037,-0.000
 05981,-0.00011653,-0.00016046,-0.00002677,-0.00010085,-0.00001390,-0.0
 0007021,-0.00693743,-0.00310118,0.00094033,0.00015754,-0.00008457,-0.0
 0055137,0.00013748,0.00010813,-0.00008938,-0.00017690,0.00076188,0.001
 77631,0.00728336,-0.00264701,0.04099894,0.00299873,0.00270591,-0.00500
 763,-0.00078981,0.00037007,0.00010313,-0.00487671,0.00343589,0.0010050
 9,-0.00026407,0.00047326,-0.00033735,-0.00098828,0.00038625,-0.0016106
 1,0.01053460,-0.00759063,-0.01842491,-0.06103581,0.00158409,-0.0359684
 9,0.05461808,-0.00066856,-0.00103249,-0.00071091,0.00033344,0.00026715
 ,-0.00011868,0.00000746,0.00000018,0.00008230,-0.00005618,-0.00004864,
 0.00005698,-0.00008541,0.00000232,-0.00025908,-0.00000169,-0.00015921,
 0.00007603,-0.00010592,0.00008306,-0.00005764,0.00008932,0.00036183,-0
 .00001687,-0.00286072,0.00206572,0.01700161,0.00193603,-0.00314996,0.0
 0114293,0.00119455,0.00091249,-0.00096949,0.00201311,-0.00132775,-0.00
 131898,0.00044025,-0.00034596,0.00081560,0.00002047,-0.00114681,-0.001
 41107,-0.00489482,0.00167578,0.01382092,-0.00157651,-0.01800734,0.0031
 6666,0.00314426,0.01996968,0.00088415,0.00028729,0.00007229,-0.0001972
 5,-0.00012299,0.00004479,-0.00019855,-0.00001113,0.00003327,-0.0001535
 5,-0.00018170,0.00006914,0.00168818,0.00139357,0.00055703,-0.00018082,
 0.00004315,0.00012255,0.00000563,-0.00008599,0.00007372,-0.00008732,-0
 .00029727,-0.00010928,0.01057427,0.00161830,-0.01239585,-0.00392876,0.
 00009681,-0.00037118,0.00005233,-0.00016834,-0.00015815,0.00388248,-0.
 00203504,0.00115830,-0.00007236,0.00032421,0.00004898,-0.00279839,-0.0
 0283221,0.00066425,-0.00600136,0.00243297,-0.00468385,-0.02058364,0.03
 132479,-0.46549002,0.01778456,-0.03139144,0.47989072,-0.00114916,-0.00
 135337,0.00012577,0.00016834,0.00010853,-0.00008755,0.00026623,0.00008
 173,-0.00000292,-0.00005339,0.00004017,-0.00004954,0.00017757,0.000166
 45,-0.00031627,-0.00012555,0.00010760,0.00041997,0.00008504,-0.0000369
 9,0.00008363,0.00010959,-0.00003734,-0.00002535,-0.00479265,-0.0000503
 2,0.00047256,0.00212787,-0.00056942,0.00099964,-0.00027942,0.00025332,
 -0.00006940,-0.17227363,-0.02710725,0.03018317,-0.00699793,-0.00116419
 ,0.00376718,0.00264960,0.00067455,0.00020256,-0.02054588,0.00941630,-0
 .00176467,0.00906664,-0.00409805,0.00089177,0.00024642,0.00101087,-0.0
 0103226,0.43067109,-0.00024236,-0.00023280,0.00002959,0.00004309,0.000
 02352,-0.00001941,0.00003949,0.00001345,-0.00000778,0.00002870,0.00003
 621,-0.00000517,0.00013227,0.00015009,-0.00010411,-0.00002936,0.000067
 81,0.00014222,0.00004890,0.00000197,0.00005017,0.00004773,-0.00004228,
 -0.00005520,-0.00264272,-0.00097655,0.00049170,0.00082625,0.00010527,0
 .00018600,-0.00009671,0.00010773,-0.00002633,0.00850126,-0.10349690,0.
 00034106,-0.03469822,0.00063892,0.01147118,0.00024539,0.00080665,-0.00
 001954,-0.00369040,0.01565260,-0.01089093,0.00673545,-0.00594732,0.004
 15977,0.00080487,-0.00013647,-0.00039969,-0.03899922,0.63820768,0.0002
 8507,0.00042512,-0.00001871,-0.00006711,-0.00004946,0.00001185,-0.0000
 9392,-0.00003051,0.00001634,0.00001133,-0.00003378,0.00003887,-0.00009
 081,-0.00006666,-0.00000534,0.00002663,0.00002382,-0.00000356,0.000032
 27,-0.00001270,-0.00000755,-0.00001391,-0.00000238,0.00003982,0.002047
 89,0.00041606,-0.00053686,-0.00079293,0.00005922,-0.00028309,0.0000967
 6,-0.00006255,0.00001276,0.04031342,0.01226453,-0.07089739,-0.00639367
 ,-0.00105529,0.00006617,-0.00102185,-0.00049797,0.00002082,0.00378550,
 -0.01212537,0.00477342,-0.00608169,0.00520428,-0.00258121,-0.00076909,
 0.00022451,0.00068549,0.05118659,0.01159911,0.60408550,0.00002767,0.00
 012149,-0.00002454,-0.00000722,-0.00001178,0.00000715,-0.00003014,-0.0
 0002055,0.00000221,0.00002226,0.00001219,0.00000720,0.00005012,0.00007
 610,-0.00001093,-0.00001806,-0.00004514,0.00000610,-0.00003508,0.00001
 852,0.00001171,0.00001469,-0.00000313,-0.00000567,-0.00038667,-0.00064
 999,0.00016273,0.00006039,0.00011171,-0.00000293,-0.00002126,0.0000132
 8,-0.00000980,-0.01743805,-0.04072090,-0.00375122,-0.00670351,0.000296
 38,0.00169975,-0.00028784,0.00030676,-0.00004680,0.00060950,-0.0015137
 0,-0.00045788,0.00005758,0.00052441,-0.00008521,-0.00007956,-0.0001087
 0,-0.00003184,-0.05394226,-0.03034870,-0.00898631,0.06910686,0.0000186
 9,0.00001455,-0.00001062,-0.00000309,-0.00000062,0.00000217,-0.0000047
 0,-0.00000070,0.00000082,0.00000225,0.00000050,0.00000038,-0.00000701,
 0.00001097,0.00000242,-0.00000597,-0.00000556,-0.00000501,0.00000161,0
 .00000131,-0.00000017,0.00000149,-0.00000137,0.00000148,0.00004687,-0.
 00003451,-0.00004734,-0.00005396,0.00000253,-0.00000657,0.00000754,-0.
 00000016,-0.00000306,-0.00282279,-0.00103774,0.00043503,0.00039940,0.0
 0185730,0.00023519,-0.00005019,0.00002157,0.00002209,0.00030219,-0.000
 44512,0.00028012,-0.00039485,0.00023295,-0.00020746,-0.00010581,0.0000
 0363,0.00000431,-0.04572898,-0.32045132,-0.05795841,0.05071504,0.33667
 067,-0.00006073,-0.00007028,0.00001483,0.00001403,0.00001002,-0.000005
 62,0.00001441,0.00000409,-0.00000207,0.00000134,0.00000602,-0.00000607
 ,0.00005497,0.00000267,-0.00000256,0.00001603,0.00002682,0.00000209,0.
 00000772,-0.00000262,0.00000901,-0.00000649,-0.00000574,-0.00002497,-0
 .00040365,-0.00012074,0.00021330,0.00013424,-0.00001178,-0.00000971,-0
 .00001837,0.00000175,0.00002310,0.00472700,0.01283086,0.00213569,0.002
 25943,0.00035830,-0.00061668,0.00017018,0.00008994,-0.00003093,-0.0007
 0236,-0.00003484,0.00040190,0.00045902,0.00014314,-0.00024888,-0.00020
 740,-0.00009266,-0.00002594,-0.01178914,-0.06362179,-0.06725014,0.0069
 0306,0.06251306,0.06279933,0.00008107,0.00012206,-0.00002968,-0.000003
 43,-0.00000839,0.00000154,-0.00003301,-0.00001463,0.00000482,0.0000028
 1,-0.00000709,0.00001502,0.00003215,-0.00001326,0.00006339,0.00002386,
 -0.00003049,-0.00009309,-0.00002669,0.00000941,-0.00001664,-0.00002364
 ,0.00001034,-0.00001810,0.00034143,-0.00012159,0.00011948,-0.00015505,
 0.00005124,-0.00011960,0.00001692,-0.00002004,0.00001378,-0.02239714,0
 .00417781,0.03691022,0.00117563,0.00149411,0.00073453,-0.00020083,-0.0
 0004227,-0.00015575,0.00217935,-0.00169566,0.00232030,-0.00079489,0.00
 058406,-0.00068478,-0.00038145,0.00011147,0.00014069,-0.05196363,0.003
 87294,0.01530714,0.00260058,0.00063115,-0.00568461,0.06404219,0.000033
 63,0.00005648,-0.00000399,-0.00000626,-0.00000677,-0.00000017,-0.00000
 677,-0.00000237,0.00000128,-0.00001364,-0.00001237,0.00000548,-0.00003
 699,-0.00004088,0.00001870,-0.00000061,-0.00001161,-0.00001243,-0.0000
 0559,-0.00000139,-0.00001399,-0.00000474,0.00001066,0.00001677,0.00035
 575,0.00029408,-0.00010104,-0.00009350,-0.00003271,0.00000013,0.000018
 35,-0.00000496,-0.00000779,-0.00502681,0.00281585,0.00817945,-0.000089
 03,0.00048987,0.00158419,-0.00004076,-0.00019389,-0.00001458,0.0005341
 3,-0.00024054,-0.00049740,-0.00035087,-0.00013752,0.00018416,0.0002716
 3,0.00002449,-0.00002731,0.00731408,-0.06802688,-0.05525234,0.00345504
 ,-0.00206124,-0.03058483,-0.00385070,0.06096212,-0.00004817,-0.0000805
 7,0.00000108,0.00000543,0.00000751,-0.00000164,0.00001473,0.00000561,-
 0.00000047,0.00000145,0.00000536,-0.00000555,-0.00001849,0.00001601,-0
 .00001456,-0.00001149,0.00000182,0.00002118,0.00000480,-0.00000067,0.0
 0000616,0.00000745,-0.00000013,0.00000337,-0.00019567,-0.00002292,-0.0
 0003737,0.00008978,-0.00001615,0.00006235,-0.00001369,0.00001154,-0.00
 000927,0.00690486,0.00086694,0.00032724,0.00059050,-0.00016494,-0.0003
 3089,0.00012317,0.00006125,0.00004651,-0.00080935,0.00090857,-0.000487
 69,0.00055335,-0.00039814,0.00017524,0.00012677,0.00001343,-0.00007475
 ,0.02347843,-0.05314599,-0.31815590,-0.00081155,-0.00010852,-0.0029467
 7,-0.03133619,0.05722728,0.33558306,0.00013060,0.00019808,-0.00003687,
 -0.00003849,-0.00001646,0.00001234,-0.00003733,-0.00002326,0.00001042,
 -0.00001295,-0.00002193,-0.00000146,-0.00006957,-0.00004968,0.00002545
 ,0.00000886,-0.00000074,-0.00004230,-0.00000287,-0.00000581,-0.0000088
 2,-0.00001729,0.00001123,0.00002531,0.00111181,0.00036769,-0.00033324,
 -0.00040673,-0.00001757,-0.00007951,0.00004092,-0.00003487,-0.00000162
 ,-0.03714839,0.01948169,-0.01275895,0.00019415,0.00111494,-0.00098613,
 -0.00034656,-0.00033190,0.00003660,0.00331444,-0.00614192,0.00297688,-
 0.00302404,0.00242546,-0.00137754,-0.00035142,0.00005728,0.00025383,-0
 .13344488,0.08942135,-0.08878131,0.00640001,-0.00294892,0.00411133,0.0
 0548376,-0.00245634,0.00134387,0.15821599,-0.00000066,0.00003828,-0.00
 000041,-0.00000377,-0.00000079,0.00000012,-0.00000368,-0.00000718,0.00
 000216,-0.00000731,-0.00000638,-0.00000380,0.00000658,-0.00001518,0.00
 000077,0.00000798,0.00000240,0.00000299,-0.00000387,-0.00000171,0.0000
 0039,-0.00000427,0.00000395,0.00000139,0.00007617,0.00010525,-0.000011
 69,-0.00005750,-0.00002479,-0.00001225,-0.00000049,-0.00000695,0.00000
 599,-0.01057833,0.00792508,-0.00462611,-0.00017946,0.00087889,-0.00086
 770,-0.00002020,-0.00007291,-0.00002611,0.00026043,-0.00133278,0.00071
 381,-0.00079110,0.00075483,-0.00050744,-0.00015493,-0.00001171,0.00002
 769,0.09997154,-0.15650139,0.09693077,0.01777169,-0.01477763,0.0185586
 0,-0.00526048,0.00611955,-0.00518730,-0.10102833,0.15693118,-0.0000363
 4,-0.00003685,0.00002031,0.00001291,0.00000325,-0.00000478,0.00001245,
 0.00000591,-0.00000497,-0.00000208,0.00000386,-0.00000056,0.00002716,0
 .00000300,-0.00000427,0.00000140,-0.00000009,0.00001701,-0.00000108,0.
 00000148,0.00000012,0.00000442,-0.00000141,-0.00000738,-0.00036912,-0.
 00006981,0.00013359,0.00013654,-0.00000245,0.00001847,-0.00000875,0.00
 001013,0.00000450,0.01371639,-0.00971439,0.00880623,-0.00113669,-0.000
 20500,0.00034262,0.00010918,0.00005840,-0.00002250,-0.00076333,0.00208
 272,-0.00125758,0.00120312,-0.00105637,0.00057623,0.00022399,-0.000054
 15,-0.00011151,-0.09667418,0.09982515,-0.15001129,0.00542476,-0.005149
 92,0.00557110,-0.01749247,0.01929843,-0.01416132,0.09561171,-0.1050018
 8,0.15009598||0.00013893,0.00004290,0.00022657,-0.00001026,-0.00000349
 ,0.00000675,-0.00007654,0.00005133,-0.00012089,0.00000459,-0.00000032,
 -0.00001001,-0.00003790,0.00014065,0.00026739,-0.00004985,-0.00010018,
 0.00006527,-0.00010433,-0.00005736,-0.00013008,-0.00003476,-0.00002517
 ,0.00014671,-0.00018311,-0.00020273,-0.00016363,-0.00010448,-0.0006146
 4,0.00026311,0.00029661,0.00009948,-0.00010652,-0.00055884,-0.00039107
 ,-0.00024088,0.00046776,0.00060599,0.00037450,-0.00030327,0.00088648,-
 0.00033835,0.00079603,-0.00068699,-0.00090068,-0.00073220,0.00032146,0
 .00051505,0.00020489,0.00008428,-0.00002871,0.00026675,-0.00017637,0.0
 0020933,-0.00002447,-0.00000521,-0.00001357,-0.00001421,0.00001036,0.0
 0000587,0.00005866,0.00002059,-0.00002723|||@


 MUD THROWN IS GROUND LOST -- FROM A TEA BAG
 Job cpu time:  0 days  0 hours 19 minutes 28.0 seconds.
 File lengths (MBytes):  RWF=     81 Int=      0 D2E=      0 Chk=      3 Scr=      1
 Normal termination of Gaussian 09 at Wed Sep 30 09:34:58 2015.
