 Entering Link 1 = C:\G09W\l1.exe PID=      5916.
  
 Copyright (c) 1988,1990,1992,1993,1995,1998,2003,2009, Gaussian, Inc.
                  All Rights Reserved.
  
 This is part of the Gaussian(R) 09 program.  It is based on
 the Gaussian(R) 03 system (copyright 2003, Gaussian, Inc.),
 the Gaussian(R) 98 system (copyright 1998, Gaussian, Inc.),
 the Gaussian(R) 94 system (copyright 1995, Gaussian, Inc.),
 the Gaussian 92(TM) system (copyright 1992, Gaussian, Inc.),
 the Gaussian 90(TM) system (copyright 1990, Gaussian, Inc.),
 the Gaussian 88(TM) system (copyright 1988, Gaussian, Inc.),
 the Gaussian 86(TM) system (copyright 1986, Carnegie Mellon
 University), and the Gaussian 82(TM) system (copyright 1983,
 Carnegie Mellon University). Gaussian is a federally registered
 trademark of Gaussian, Inc.
  
 This software contains proprietary and confidential information,
 including trade secrets, belonging to Gaussian, Inc.
  
 This software is provided under written license and may be
 used, copied, transmitted, or stored only in accord with that
 written license.
  
 The following legend is applicable only to US Government
 contracts under FAR:
  
                    RESTRICTED RIGHTS LEGEND
  
 Use, reproduction and disclosure by the US Government is
 subject to restrictions as set forth in subparagraphs (a)
 and (c) of the Commercial Computer Software - Restricted
 Rights clause in FAR 52.227-19.
  
 Gaussian, Inc.
 340 Quinnipiac St., Bldg. 40, Wallingford CT 06492
  
  
 ---------------------------------------------------------------
 Warning -- This program may not be used in any manner that
 competes with the business of Gaussian, Inc. or will provide
 assistance to any competitor of Gaussian, Inc.  The licensee
 of this program is prohibited from giving any competitor of
 Gaussian, Inc. access to this program.  By using this program,
 the user acknowledges that Gaussian, Inc. is engaged in the
 business of creating and licensing software in the field of
 computational chemistry and represents and warrants to the
 licensee that it is not a competitor of Gaussian, Inc. and that
 it will not use this program in any manner prohibited above.
 ---------------------------------------------------------------
  

 Cite this work as:
 Gaussian 09, Revision A.02,
 M. J. Frisch, G. W. Trucks, H. B. Schlegel, G. E. Scuseria, 
 M. A. Robb, J. R. Cheeseman, G. Scalmani, V. Barone, B. Mennucci, 
 G. A. Petersson, H. Nakatsuji, M. Caricato, X. Li, H. P. Hratchian, 
 A. F. Izmaylov, J. Bloino, G. Zheng, J. L. Sonnenberg, M. Hada, 
 M. Ehara, K. Toyota, R. Fukuda, J. Hasegawa, M. Ishida, T. Nakajima, 
 Y. Honda, O. Kitao, H. Nakai, T. Vreven, J. A. Montgomery, Jr., 
 J. E. Peralta, F. Ogliaro, M. Bearpark, J. J. Heyd, E. Brothers, 
 K. N. Kudin, V. N. Staroverov, R. Kobayashi, J. Normand, 
 K. Raghavachari, A. Rendell, J. C. Burant, S. S. Iyengar, J. Tomasi, 
 M. Cossi, N. Rega, J. M. Millam, M. Klene, J. E. Knox, J. B. Cross, 
 V. Bakken, C. Adamo, J. Jaramillo, R. Gomperts, R. E. Stratmann, 
 O. Yazyev, A. J. Austin, R. Cammi, C. Pomelli, J. W. Ochterski, 
 R. L. Martin, K. Morokuma, V. G. Zakrzewski, G. A. Voth, 
 P. Salvador, J. J. Dannenberg, S. Dapprich, A. D. Daniels, 
 O. Farkas, J. B. Foresman, J. V. Ortiz, J. Cioslowski, 
 and D. J. Fox, Gaussian, Inc., Wallingford CT, 2009.
 
 ******************************************
 Gaussian 09:  IA32W-G09RevA.02 11-Jun-2009
                13-Nov-2015 
 ******************************************
 --------------------------------------------------------
 # opt=maxcycle=15 freq x3lyp/6-31+g(d) geom=connectivity
 --------------------------------------------------------
 1/6=15,14=-1,18=20,19=15,26=3,38=1,57=2/1,3;
 2/9=110,12=2,17=6,18=5,40=1/2;
 3/5=1,6=6,7=11,11=2,16=1,25=1,30=1,71=1,74=-33/1,2,3;
 4//1;
 5/5=2,38=5/2;
 6/7=2,8=2,9=2,10=2,28=1/1;
 7//1,2,3,16;
 1/6=15,14=-1,18=20,19=15/3(2);
 2/9=110/2;
 99//99;
 2/9=110/2;
 3/5=1,6=6,7=11,11=2,16=1,25=1,30=1,71=1,74=-33/1,2,3;
 4/5=5,16=3/1;
 5/5=2,38=5/2;
 7//1,2,3,16;
 1/6=15,14=-1,18=20,19=15/3(-5);
 2/9=110/2;
 6/7=2,8=2,9=2,10=2,19=2,28=1/1;
 99/9=1/99;
 ---
 rxt
 ---
 Symbolic Z-matrix:
 Charge =  1 Multiplicity = 1
 C                    -2.49532   0.23042   0.1717 
 H                    -2.80267   0.60073  -0.81001 
 H                    -2.55695   1.02889   0.9127 
 H                    -3.18017  -0.57364   0.45475 
 C                    -1.09759  -0.33962   0.04842 
 O                    -0.19329   0.73223  -0.54531 
 O                    -0.37873  -0.66456   1.22679 
 H                    -0.90962  -1.25344   1.79317 
 O                    -1.11664  -1.34826  -0.85704 
 H                    -0.28732  -1.86152  -0.8546 
 C                    -0.13143   2.04865   0.10964 
 H                     0.71598   2.55872  -0.34763 
 H                    -1.05323   2.57687  -0.123 
 H                     0.00959   1.9194    1.18354 
 H                     0.79004   0.28514  -0.51596 
 C                     3.21398   0.04804  -0.02316 
 H                     3.44486   0.59624  -0.93583 
 H                     3.92978  -0.76482   0.10925 
 H                     3.22628   0.71739   0.84135 
 O                     1.88681  -0.51902  -0.20168 
 H                     1.59937  -0.93514   0.6327 
 

 GradGradGradGradGradGradGradGradGradGradGradGradGradGradGradGradGradGrad
 Berny optimization.
 Initialization pass.
                           ----------------------------
                           !    Initial Parameters    !
                           ! (Angstroms and Degrees)  !
 --------------------------                            --------------------------
 ! Name  Definition              Value          Derivative Info.                !
 --------------------------------------------------------------------------------
 ! R1    R(1,2)                  1.0933         estimate D2E/DX2                !
 ! R2    R(1,3)                  1.0911         estimate D2E/DX2                !
 ! R3    R(1,4)                  1.0935         estimate D2E/DX2                !
 ! R4    R(1,5)                  1.5145         estimate D2E/DX2                !
 ! R5    R(5,6)                  1.5229         estimate D2E/DX2                !
 ! R6    R(5,7)                  1.4181         estimate D2E/DX2                !
 ! R7    R(5,9)                  1.3556         estimate D2E/DX2                !
 ! R8    R(6,11)                 1.4716         estimate D2E/DX2                !
 ! R9    R(6,15)                 1.0806         estimate D2E/DX2                !
 ! R10   R(7,8)                  0.9744         estimate D2E/DX2                !
 ! R11   R(9,10)                 0.9753         estimate D2E/DX2                !
 ! R12   R(11,12)                1.0897         estimate D2E/DX2                !
 ! R13   R(11,13)                1.0876         estimate D2E/DX2                !
 ! R14   R(11,14)                1.0908         estimate D2E/DX2                !
 ! R15   R(15,20)                1.3958         estimate D2E/DX2                !
 ! R16   R(16,17)                1.0894         estimate D2E/DX2                !
 ! R17   R(16,18)                1.0912         estimate D2E/DX2                !
 ! R18   R(16,19)                1.0934         estimate D2E/DX2                !
 ! R19   R(16,20)                1.4542         estimate D2E/DX2                !
 ! R20   R(20,21)                0.9757         estimate D2E/DX2                !
 ! A1    A(2,1,3)              110.2473         estimate D2E/DX2                !
 ! A2    A(2,1,4)              107.784          estimate D2E/DX2                !
 ! A3    A(2,1,5)              108.29           estimate D2E/DX2                !
 ! A4    A(3,1,4)              109.0842         estimate D2E/DX2                !
 ! A5    A(3,1,5)              112.5109         estimate D2E/DX2                !
 ! A6    A(4,1,5)              108.8028         estimate D2E/DX2                !
 ! A7    A(1,5,6)              108.351          estimate D2E/DX2                !
 ! A8    A(1,5,7)              119.1068         estimate D2E/DX2                !
 ! A9    A(1,5,9)              108.751          estimate D2E/DX2                !
 ! A10   A(6,5,7)              100.6166         estimate D2E/DX2                !
 ! A11   A(6,5,9)              105.7615         estimate D2E/DX2                !
 ! A12   A(7,5,9)              113.059          estimate D2E/DX2                !
 ! A13   A(5,6,11)             118.7539         estimate D2E/DX2                !
 ! A14   A(5,6,15)             103.8016         estimate D2E/DX2                !
 ! A15   A(11,6,15)            108.6482         estimate D2E/DX2                !
 ! A16   A(5,7,8)              110.2006         estimate D2E/DX2                !
 ! A17   A(5,9,10)             112.2062         estimate D2E/DX2                !
 ! A18   A(6,11,12)            105.3465         estimate D2E/DX2                !
 ! A19   A(6,11,13)            107.675          estimate D2E/DX2                !
 ! A20   A(6,11,14)            109.7304         estimate D2E/DX2                !
 ! A21   A(12,11,13)           109.9996         estimate D2E/DX2                !
 ! A22   A(12,11,14)           111.5968         estimate D2E/DX2                !
 ! A23   A(13,11,14)           112.1921         estimate D2E/DX2                !
 ! A24   A(6,15,20)            163.6376         estimate D2E/DX2                !
 ! A25   A(17,16,18)           109.7246         estimate D2E/DX2                !
 ! A26   A(17,16,19)           110.6064         estimate D2E/DX2                !
 ! A27   A(17,16,20)           106.6657         estimate D2E/DX2                !
 ! A28   A(18,16,19)           110.6533         estimate D2E/DX2                !
 ! A29   A(18,16,20)           108.8502         estimate D2E/DX2                !
 ! A30   A(19,16,20)           110.2449         estimate D2E/DX2                !
 ! A31   A(15,20,16)           121.3378         estimate D2E/DX2                !
 ! A32   A(15,20,21)           101.9331         estimate D2E/DX2                !
 ! A33   A(16,20,21)           109.2797         estimate D2E/DX2                !
 ! D1    D(2,1,5,6)             54.7328         estimate D2E/DX2                !
 ! D2    D(2,1,5,7)            168.7392         estimate D2E/DX2                !
 ! D3    D(2,1,5,9)            -59.776          estimate D2E/DX2                !
 ! D4    D(3,1,5,6)            -67.3761         estimate D2E/DX2                !
 ! D5    D(3,1,5,7)             46.6304         estimate D2E/DX2                !
 ! D6    D(3,1,5,9)            178.1151         estimate D2E/DX2                !
 ! D7    D(4,1,5,6)            171.6275         estimate D2E/DX2                !
 ! D8    D(4,1,5,7)            -74.366          estimate D2E/DX2                !
 ! D9    D(4,1,5,9)             57.1187         estimate D2E/DX2                !
 ! D10   D(1,5,6,11)            54.3005         estimate D2E/DX2                !
 ! D11   D(1,5,6,15)           174.9887         estimate D2E/DX2                !
 ! D12   D(7,5,6,11)           -71.404          estimate D2E/DX2                !
 ! D13   D(7,5,6,15)            49.2842         estimate D2E/DX2                !
 ! D14   D(9,5,6,11)           170.7579         estimate D2E/DX2                !
 ! D15   D(9,5,6,15)           -68.5538         estimate D2E/DX2                !
 ! D16   D(1,5,7,8)             53.2464         estimate D2E/DX2                !
 ! D17   D(6,5,7,8)            171.3442         estimate D2E/DX2                !
 ! D18   D(9,5,7,8)            -76.3125         estimate D2E/DX2                !
 ! D19   D(1,5,9,10)          -169.1874         estimate D2E/DX2                !
 ! D20   D(6,5,9,10)            74.6265         estimate D2E/DX2                !
 ! D21   D(7,5,9,10)           -34.5334         estimate D2E/DX2                !
 ! D22   D(5,6,11,12)          168.1959         estimate D2E/DX2                !
 ! D23   D(5,6,11,13)          -74.4373         estimate D2E/DX2                !
 ! D24   D(5,6,11,14)           47.9364         estimate D2E/DX2                !
 ! D25   D(15,6,11,12)          50.0079         estimate D2E/DX2                !
 ! D26   D(15,6,11,13)         167.3747         estimate D2E/DX2                !
 ! D27   D(15,6,11,14)         -70.2516         estimate D2E/DX2                !
 ! D28   D(5,6,15,20)          -20.8924         estimate D2E/DX2                !
 ! D29   D(11,6,15,20)         106.3868         estimate D2E/DX2                !
 ! D30   D(6,15,20,16)        -136.1292         estimate D2E/DX2                !
 ! D31   D(6,15,20,21)         -14.5419         estimate D2E/DX2                !
 ! D32   D(17,16,20,15)        -55.6941         estimate D2E/DX2                !
 ! D33   D(17,16,20,21)       -173.6937         estimate D2E/DX2                !
 ! D34   D(18,16,20,15)       -174.0188         estimate D2E/DX2                !
 ! D35   D(18,16,20,21)         67.9817         estimate D2E/DX2                !
 ! D36   D(19,16,20,15)         64.4369         estimate D2E/DX2                !
 ! D37   D(19,16,20,21)        -53.5627         estimate D2E/DX2                !
 --------------------------------------------------------------------------------
 Trust Radius=3.00D-01 FncErr=1.00D-07 GrdErr=1.00D-06
 Number of steps in this run=  15 maximum allowed number of steps= 126.
 GradGradGradGradGradGradGradGradGradGradGradGradGradGradGradGradGradGrad

                          Input orientation:                          
 ---------------------------------------------------------------------
 Center     Atomic      Atomic             Coordinates (Angstroms)
 Number     Number       Type             X           Y           Z
 ---------------------------------------------------------------------
      1          6           0       -2.495320    0.230423    0.171702
      2          1           0       -2.802668    0.600732   -0.810008
      3          1           0       -2.556949    1.028891    0.912701
      4          1           0       -3.180167   -0.573643    0.454754
      5          6           0       -1.097585   -0.339624    0.048418
      6          8           0       -0.193293    0.732229   -0.545308
      7          8           0       -0.378729   -0.664563    1.226788
      8          1           0       -0.909619   -1.253435    1.793167
      9          8           0       -1.116638   -1.348263   -0.857042
     10          1           0       -0.287315   -1.861516   -0.854596
     11          6           0       -0.131426    2.048647    0.109644
     12          1           0        0.715978    2.558719   -0.347630
     13          1           0       -1.053229    2.576868   -0.123004
     14          1           0        0.009589    1.919401    1.183535
     15          1           0        0.790043    0.285137   -0.515955
     16          6           0        3.213977    0.048037   -0.023156
     17          1           0        3.444855    0.596243   -0.935830
     18          1           0        3.929778   -0.764820    0.109248
     19          1           0        3.226279    0.717390    0.841350
     20          8           0        1.886806   -0.519020   -0.201679
     21          1           0        1.599367   -0.935137    0.632704
 ---------------------------------------------------------------------
                    Distance matrix (angstroms):
                    1          2          3          4          5
     1  C    0.000000
     2  H    1.093319   0.000000
     3  H    1.091068   1.792045   0.000000
     4  H    1.093461   1.766716   1.779391   0.000000
     5  C    1.514535   2.128021   2.179349   2.134718   0.000000
     6  O    2.462771   2.626061   2.792968   3.409816   1.522867
     7  O    2.528668   3.409544   2.776883   2.907294   1.418060
     8  H    2.710246   3.714578   2.949225   2.721921   1.978517
     9  O    2.334808   2.577497   3.295049   2.564956   1.355571
    10  H    3.210106   3.520178   4.077871   3.426603   1.946311
    11  C    2.982915   3.174547   2.750993   4.036128   2.577024
    12  H    4.000388   4.053193   3.826338   5.063147   3.441839
    13  H    2.769888   2.727201   2.393761   3.844917   2.921862
    14  H    3.186067   3.690785   2.730106   4.113506   2.759985
    15  H    3.357004   3.618513   3.714375   4.176404   2.066878
    16  C    5.715532   6.092998   5.928026   6.442046   4.329546
    17  H    6.053605   6.248791   6.294911   6.869736   4.741134
    18  H    6.502022   6.930771   6.777947   7.120902   5.045678
    19  H    5.781199   6.252103   5.792051   6.546661   4.521263
    20  O    4.461402   4.859534   4.835786   5.109609   3.000220
    21  H    4.282232   4.880392   4.605515   4.796487   2.823044
                    6          7          8          9         10
     6  O    0.000000
     7  O    2.264009   0.000000
     8  H    3.150309   0.974371   0.000000
     9  O    2.297431   2.313937   2.659973   0.000000
    10  H    2.613812   2.402751   2.787055   0.975301   0.000000
    11  C    1.471647   2.944602   3.787292   3.666623   4.030314
    12  H    2.049858   3.750563   4.664557   4.345399   4.560931
    13  H    2.078587   3.575439   4.285272   3.993681   4.563015
    14  H    2.106997   2.613337   3.359090   4.013723   4.305515
    15  H    1.080603   2.303283   3.253936   2.533726   2.425592
    16  C    3.514292   3.870103   4.690086   4.625932   4.073909
    17  H    3.661573   4.570158   5.461701   4.959287   4.469482
    18  H    4.435010   4.452211   5.147241   5.171116   4.462691
    19  H    3.690056   3.880005   4.679290   5.100234   4.676786
    20  O    2.451636   2.682228   3.512658   3.183994   2.637309
    21  H    2.716883   2.083029   2.782624   3.125172   2.574841
                   11         12         13         14         15
    11  C    0.000000
    12  H    1.089663   0.000000
    13  H    1.087595   1.783502   0.000000
    14  H    1.090794   1.803380   1.808007   0.000000
    15  H    2.085772   2.281007   2.967169   2.483585   0.000000
    16  C    3.900230   3.556516   4.961250   3.902078   2.484859
    17  H    3.999035   3.412340   4.981598   4.247765   2.705755
    18  H    4.940544   4.645768   6.004263   4.871039   3.369158
    19  H    3.685352   3.332533   4.764643   3.450944   2.822121
    20  O    3.280716   3.296152   4.270189   3.374709   1.395825
    21  H    3.488868   3.734764   4.465595   3.313487   1.861046
                   16         17         18         19         20
    16  C    0.000000
    17  H    1.089407   0.000000
    18  H    1.091164   1.783208   0.000000
    19  H    1.093415   1.794665   1.796616   0.000000
    20  O    1.454238   2.051903   2.081064   2.100192   0.000000
    21  H    2.000937   2.865528   2.394542   2.328352   0.975689
                   21
    21  H    0.000000
 Stoichiometry    C4H13O4(1+)
 Framework group  C1[X(C4H13O4)]
 Deg. of freedom    57
 Full point group                 C1      NOp   1
 Largest Abelian subgroup         C1      NOp   1
 Largest concise Abelian subgroup C1      NOp   1
                         Standard orientation:                         
 ---------------------------------------------------------------------
 Center     Atomic      Atomic             Coordinates (Angstroms)
 Number     Number       Type             X           Y           Z
 ---------------------------------------------------------------------
      1          6           0       -2.516882    0.226315    0.089874
      2          1           0       -2.797859    0.564217   -0.911236
      3          1           0       -2.586486    1.051477    0.800290
      4          1           0       -3.216746   -0.560059    0.385615
      5          6           0       -1.123061   -0.361971    0.019193
      6          8           0       -0.193853    0.678610   -0.591452
      7          8           0       -0.434656   -0.651651    1.224631
      8          1           0       -0.984658   -1.214366    1.799305
      9          8           0       -1.132702   -1.402247   -0.849891
     10          1           0       -0.309332   -1.923483   -0.810055
     11          6           0       -0.132365    2.017014    0.017351
     12          1           0        0.730717    2.501686   -0.438225
     13          1           0       -1.042813    2.545877   -0.255141
     14          1           0       -0.017107    1.925010    1.098129
     15          1           0        0.783598    0.222889   -0.523552
     16          6           0        3.193014   -0.020977    0.033015
     17          1           0        3.450485    0.491707   -0.893091
     18          1           0        3.896667   -0.835785    0.210773
     19          1           0        3.193107    0.678846    0.873135
     20          8           0        1.864074   -0.580563   -0.155635
     21          1           0        1.553282   -0.963488    0.686236
 ---------------------------------------------------------------------
 Rotational constants (GHZ):      2.8268638      1.2243047      1.0322786
 Standard basis: 6-31+G(d) (6D, 7F)
 There are   178 symmetry adapted basis functions of A   symmetry.
 Integral buffers will be    262144 words long.
 Raffenetti 2 integral format.
 Two-electron integral symmetry is turned on.
   178 basis functions,   308 primitive gaussians,   178 cartesian basis functions
    34 alpha electrons       34 beta electrons
       nuclear repulsion energy       461.2536610134 Hartrees.
 NAtoms=   21 NActive=   21 NUniq=   21 SFac= 7.50D-01 NAtFMM=   80 NAOKFM=F Big=F
 One-electron integrals computed using PRISM.
 NBasis=   178 RedAO= T  NBF=   178
 NBsUse=   178 1.00D-06 NBFU=   178
 Harris functional with IExCor= 3102 diagonalized for initial guess.
 ExpMin= 4.38D-02 ExpMax= 5.48D+03 ExpMxC= 8.25D+02 IAcc=2 IRadAn=         0 AccDes= 0.00D+00
 HarFok:  IExCor= 3102 AccDes= 0.00D+00 IRadAn=         0 IDoV= 1
 ScaDFX=  1.000000  1.000000  1.000000  1.000000
 FoFCou: FMM=F IPFlag=           0 FMFlag=      100000 FMFlg1=           0
         NFxFlg=           0 DoJE=T BraDBF=F KetDBF=T FulRan=T
         Omega=  0.000000  0.000000  1.000000  0.000000  0.000000 ICntrl=     500 IOpCl=  0
         NMat0=    1 NMatS0=    1 NMatT0=    0 NMatD0=    1 NMtDS0=    0 NMtDT0=    0
         I1Cent=           4 NGrid=           0.
 Petite list used in FoFCou.
 Initial guess orbital symmetries:
       Occupied  (A) (A) (A) (A) (A) (A) (A) (A) (A) (A) (A) (A)
                 (A) (A) (A) (A) (A) (A) (A) (A) (A) (A) (A) (A)
                 (A) (A) (A) (A) (A) (A) (A) (A) (A) (A)
       Virtual   (A) (A) (A) (A) (A) (A) (A) (A) (A) (A) (A) (A)
                 (A) (A) (A) (A) (A) (A) (A) (A) (A) (A) (A) (A)
                 (A) (A) (A) (A) (A) (A) (A) (A) (A) (A) (A) (A)
                 (A) (A) (A) (A) (A) (A) (A) (A) (A) (A) (A) (A)
                 (A) (A) (A) (A) (A) (A) (A) (A) (A) (A) (A) (A)
                 (A) (A) (A) (A) (A) (A) (A) (A) (A) (A) (A) (A)
                 (A) (A) (A) (A) (A) (A) (A) (A) (A) (A) (A) (A)
                 (A) (A) (A) (A) (A) (A) (A) (A) (A) (A) (A) (A)
                 (A) (A) (A) (A) (A) (A) (A) (A) (A) (A) (A) (A)
                 (A) (A) (A) (A) (A) (A) (A) (A) (A) (A) (A) (A)
                 (A) (A) (A) (A) (A) (A) (A) (A) (A) (A) (A) (A)
                 (A) (A) (A) (A) (A) (A) (A) (A) (A) (A) (A) (A)
 The electronic state of the initial guess is 1-A.
 Requested convergence on RMS density matrix=1.00D-08 within 128 cycles.
 Requested convergence on MAX density matrix=1.00D-06.
 Requested convergence on             energy=1.00D-06.
 No special actions if energy rises.
 SCF Done:  E(RX3LYP) =  -460.689453117     A.U. after   12 cycles
             Convg  =    0.3922D-08             -V/T =  2.0088

 **********************************************************************

            Population analysis using the SCF density.

 **********************************************************************

 Orbital symmetries:
       Occupied  (A) (A) (A) (A) (A) (A) (A) (A) (A) (A) (A) (A)
                 (A) (A) (A) (A) (A) (A) (A) (A) (A) (A) (A) (A)
                 (A) (A) (A) (A) (A) (A) (A) (A) (A) (A)
       Virtual   (A) (A) (A) (A) (A) (A) (A) (A) (A) (A) (A) (A)
                 (A) (A) (A) (A) (A) (A) (A) (A) (A) (A) (A) (A)
                 (A) (A) (A) (A) (A) (A) (A) (A) (A) (A) (A) (A)
                 (A) (A) (A) (A) (A) (A) (A) (A) (A) (A) (A) (A)
                 (A) (A) (A) (A) (A) (A) (A) (A) (A) (A) (A) (A)
                 (A) (A) (A) (A) (A) (A) (A) (A) (A) (A) (A) (A)
                 (A) (A) (A) (A) (A) (A) (A) (A) (A) (A) (A) (A)
                 (A) (A) (A) (A) (A) (A) (A) (A) (A) (A) (A) (A)
                 (A) (A) (A) (A) (A) (A) (A) (A) (A) (A) (A) (A)
                 (A) (A) (A) (A) (A) (A) (A) (A) (A) (A) (A) (A)
                 (A) (A) (A) (A) (A) (A) (A) (A) (A) (A) (A) (A)
                 (A) (A) (A) (A) (A) (A) (A) (A) (A) (A) (A) (A)
 The electronic state is 1-A.
 Alpha  occ. eigenvalues --  -19.44832 -19.40239 -19.40051 -19.38795 -10.57398
 Alpha  occ. eigenvalues --  -10.44490 -10.41902 -10.37602  -1.32718  -1.25231
 Alpha  occ. eigenvalues --   -1.23121  -1.21566  -0.94650  -0.91025  -0.86968
 Alpha  occ. eigenvalues --   -0.81753  -0.77256  -0.76567  -0.70870  -0.70540
 Alpha  occ. eigenvalues --   -0.65655  -0.64277  -0.62778  -0.61997  -0.61632
 Alpha  occ. eigenvalues --   -0.59201  -0.57304  -0.56682  -0.54472  -0.54067
 Alpha  occ. eigenvalues --   -0.53432  -0.52039  -0.49567  -0.48417
 Alpha virt. eigenvalues --   -0.16036  -0.12574  -0.12122  -0.11331  -0.10748
 Alpha virt. eigenvalues --   -0.08848  -0.08227  -0.07935  -0.06637  -0.06276
 Alpha virt. eigenvalues --   -0.06007  -0.04570  -0.04122  -0.03327  -0.02074
 Alpha virt. eigenvalues --   -0.00923  -0.00669   0.00417   0.00870   0.01967
 Alpha virt. eigenvalues --    0.02480   0.03026   0.03309   0.03735   0.04626
 Alpha virt. eigenvalues --    0.06198   0.06763   0.07726   0.08271   0.08552
 Alpha virt. eigenvalues --    0.09544   0.10657   0.10915   0.11248   0.12441
 Alpha virt. eigenvalues --    0.13538   0.14259   0.15457   0.15580   0.15944
 Alpha virt. eigenvalues --    0.17607   0.18223   0.19553   0.20225   0.21602
 Alpha virt. eigenvalues --    0.21906   0.24470   0.26009   0.26646   0.28358
 Alpha virt. eigenvalues --    0.35738   0.46520   0.48938   0.50708   0.51592
 Alpha virt. eigenvalues --    0.52549   0.54008   0.56930   0.57898   0.59468
 Alpha virt. eigenvalues --    0.62033   0.65040   0.68421   0.75124   0.77723
 Alpha virt. eigenvalues --    0.79874   0.82688   0.83672   0.84765   0.86034
 Alpha virt. eigenvalues --    0.90317   0.91581   0.92353   0.93148   0.93578
 Alpha virt. eigenvalues --    0.97576   0.98815   1.00937   1.01690   1.03837
 Alpha virt. eigenvalues --    1.04404   1.06590   1.08858   1.11805   1.13192
 Alpha virt. eigenvalues --    1.15680   1.16777   1.20884   1.24654   1.28473
 Alpha virt. eigenvalues --    1.31695   1.33206   1.34515   1.39569   1.40575
 Alpha virt. eigenvalues --    1.42102   1.44238   1.48093   1.50565   1.54592
 Alpha virt. eigenvalues --    1.58287   1.58637   1.61018   1.63479   1.67067
 Alpha virt. eigenvalues --    1.70553   1.72169   1.81755   1.82492   1.84833
 Alpha virt. eigenvalues --    1.86038   1.91645   1.93391   1.95892   1.98786
 Alpha virt. eigenvalues --    2.01289   2.02655   2.10049   2.12853   2.13465
 Alpha virt. eigenvalues --    2.15307   2.17994   2.18803   2.22398   2.23882
 Alpha virt. eigenvalues --    2.33487   2.35509   2.41771   2.49524   2.55624
 Alpha virt. eigenvalues --    2.61268   2.66657   2.69136   2.71598   2.82434
 Alpha virt. eigenvalues --    2.84364   3.93617   4.04119   4.07601   4.09512
 Alpha virt. eigenvalues --    4.18180   4.19575   4.31202   4.45987
          Condensed to atoms (all electrons):
              1          2          3          4          5          6
     1  C    6.116318   0.406737   0.375384   0.350953  -0.269476  -0.130227
     2  H    0.406737   0.422563  -0.023663  -0.017159  -0.073552   0.003164
     3  H    0.375384  -0.023663   0.463756  -0.021881  -0.038090  -0.005191
     4  H    0.350953  -0.017159  -0.021881   0.425840   0.001861   0.005293
     5  C   -0.269476  -0.073552  -0.038090   0.001861   5.275239   0.144897
     6  O   -0.130227   0.003164  -0.005191   0.005293   0.144897   8.866610
     7  O   -0.139243   0.007481  -0.003297  -0.005453   0.249745  -0.164168
     8  H   -0.017857  -0.000046  -0.000126   0.001127   0.028784   0.014350
     9  O   -0.156522  -0.002710   0.007819  -0.006630   0.334975  -0.105872
    10  H    0.034869  -0.000083  -0.000231  -0.000082  -0.016581  -0.010567
    11  C    0.011096  -0.001426   0.001823  -0.001109  -0.090089   0.031721
    12  H    0.000217  -0.000013   0.000135  -0.000002   0.004873  -0.033743
    13  H    0.006493  -0.000051  -0.001627   0.000024  -0.006707  -0.030346
    14  H   -0.002006   0.000150  -0.000245   0.000017  -0.019567  -0.057918
    15  H    0.002883   0.000082  -0.000068  -0.000094   0.004080   0.055261
    16  C   -0.003162   0.000009  -0.000065   0.000022  -0.008355   0.006472
    17  H    0.000382   0.000000   0.000000   0.000000  -0.000067   0.000593
    18  H   -0.000304   0.000000   0.000000   0.000000  -0.000686  -0.000516
    19  H   -0.000346   0.000000   0.000000   0.000000  -0.001415  -0.000629
    20  O   -0.001519   0.000242  -0.000215   0.000086   0.016716  -0.087333
    21  H    0.004495  -0.000009   0.000007  -0.000004  -0.001858   0.003233
              7          8          9         10         11         12
     1  C   -0.139243  -0.017857  -0.156522   0.034869   0.011096   0.000217
     2  H    0.007481  -0.000046  -0.002710  -0.000083  -0.001426  -0.000013
     3  H   -0.003297  -0.000126   0.007819  -0.000231   0.001823   0.000135
     4  H   -0.005453   0.001127  -0.006630  -0.000082  -0.001109  -0.000002
     5  C    0.249745   0.028784   0.334975  -0.016581  -0.090089   0.004873
     6  O   -0.164168   0.014350  -0.105872  -0.010567   0.031721  -0.033743
     7  O    8.642850   0.170456  -0.074817  -0.001795   0.015147  -0.000184
     8  H    0.170456   0.264047  -0.005889  -0.000261  -0.002899   0.000010
     9  O   -0.074817  -0.005889   8.386704   0.174065  -0.000462   0.000093
    10  H   -0.001795  -0.000261   0.174065   0.288576  -0.000160  -0.000003
    11  C    0.015147  -0.002899  -0.000462  -0.000160   5.273224   0.378737
    12  H   -0.000184   0.000010   0.000093  -0.000003   0.378737   0.442192
    13  H   -0.002264   0.000014  -0.000994   0.000003   0.386280  -0.018477
    14  H    0.016607  -0.000437   0.000944  -0.000016   0.395277  -0.024418
    15  H    0.005366  -0.000273   0.001690   0.001580  -0.003948  -0.000991
    16  C   -0.002300  -0.000238   0.002074   0.000212  -0.001812   0.000202
    17  H    0.000007   0.000000  -0.000070   0.000006  -0.001805  -0.000008
    18  H    0.000198   0.000002   0.000051  -0.000007   0.000532   0.000002
    19  H    0.000285  -0.000006  -0.000016   0.000013   0.001941  -0.000009
    20  O   -0.003020   0.000861   0.023381   0.007359  -0.005142  -0.000377
    21  H    0.023213  -0.000710  -0.005396   0.000668  -0.002374   0.000021
             13         14         15         16         17         18
     1  C    0.006493  -0.002006   0.002883  -0.003162   0.000382  -0.000304
     2  H   -0.000051   0.000150   0.000082   0.000009   0.000000   0.000000
     3  H   -0.001627  -0.000245  -0.000068  -0.000065   0.000000   0.000000
     4  H    0.000024   0.000017  -0.000094   0.000022   0.000000   0.000000
     5  C   -0.006707  -0.019567   0.004080  -0.008355  -0.000067  -0.000686
     6  O   -0.030346  -0.057918   0.055261   0.006472   0.000593  -0.000516
     7  O   -0.002264   0.016607   0.005366  -0.002300   0.000007   0.000198
     8  H    0.000014  -0.000437  -0.000273  -0.000238   0.000000   0.000002
     9  O   -0.000994   0.000944   0.001690   0.002074  -0.000070   0.000051
    10  H    0.000003  -0.000016   0.001580   0.000212   0.000006  -0.000007
    11  C    0.386280   0.395277  -0.003948  -0.001812  -0.001805   0.000532
    12  H   -0.018477  -0.024418  -0.000991   0.000202  -0.000008   0.000002
    13  H    0.429203  -0.025926   0.001350   0.000245   0.000002   0.000000
    14  H   -0.025926   0.450220  -0.000140  -0.000283   0.000007   0.000000
    15  H    0.001350  -0.000140   0.222858  -0.010182  -0.001319   0.001061
    16  C    0.000245  -0.000283  -0.010182   5.140571   0.397818   0.390516
    17  H    0.000002   0.000007  -0.001319   0.397818   0.453939  -0.020238
    18  H    0.000000   0.000000   0.001061   0.390516  -0.020238   0.454810
    19  H    0.000002   0.000017   0.000204   0.395955  -0.027901  -0.029200
    20  O   -0.000200   0.001436   0.116637   0.083550  -0.045203  -0.036874
    21  H    0.000007   0.000068  -0.008684  -0.019399   0.004161  -0.003513
             19         20         21
     1  C   -0.000346  -0.001519   0.004495
     2  H    0.000000   0.000242  -0.000009
     3  H    0.000000  -0.000215   0.000007
     4  H    0.000000   0.000086  -0.000004
     5  C   -0.001415   0.016716  -0.001858
     6  O   -0.000629  -0.087333   0.003233
     7  O    0.000285  -0.003020   0.023213
     8  H   -0.000006   0.000861  -0.000710
     9  O   -0.000016   0.023381  -0.005396
    10  H    0.000013   0.007359   0.000668
    11  C    0.001941  -0.005142  -0.002374
    12  H   -0.000009  -0.000377   0.000021
    13  H    0.000002  -0.000200   0.000007
    14  H    0.000017   0.001436   0.000068
    15  H    0.000204   0.116637  -0.008684
    16  C    0.395955   0.083550  -0.019399
    17  H   -0.027901  -0.045203   0.004161
    18  H   -0.029200  -0.036874  -0.003513
    19  H    0.502713  -0.060325  -0.003746
    20  O   -0.060325   8.622395   0.192127
    21  H   -0.003746   0.192127   0.263174
 Mulliken atomic charges:
              1
     1  C   -0.589164
     2  H    0.278283
     3  H    0.245775
     4  H    0.267190
     5  C    0.465271
     6  O   -0.505085
     7  O   -0.734813
     8  H    0.549092
     9  O   -0.572418
    10  H    0.522436
    11  C   -0.384552
    12  H    0.251745
    13  H    0.262969
    14  H    0.266212
    15  H    0.612646
    16  C   -0.371851
    17  H    0.239696
    18  H    0.244167
    19  H    0.222464
    20  O   -0.824582
    21  H    0.554520
 Sum of Mulliken atomic charges =   1.00000
 Mulliken charges with hydrogens summed into heavy atoms:
              1
     1  C    0.202083
     5  C    0.465271
     6  O    0.107561
     7  O   -0.185721
     9  O   -0.049982
    11  C    0.396374
    16  C    0.334476
    20  O   -0.270062
 Sum of Mulliken charges with hydrogens summed into heavy atoms =   1.00000
 Electronic spatial extent (au):  <R**2>=           1228.9310
 Charge=              1.0000 electrons
 Dipole moment (field-independent basis, Debye):
    X=              1.3080    Y=              1.1357    Z=              2.4067  Tot=              2.9653
 Quadrupole moment (field-independent basis, Debye-Ang):
   XX=            -26.0971   YY=            -36.2909   ZZ=            -46.3534
   XY=             -0.8840   XZ=             -2.5204   YZ=             -3.9323
 Traceless Quadrupole moment (field-independent basis, Debye-Ang):
   XX=             10.1500   YY=             -0.0438   ZZ=            -10.1063
   XY=             -0.8840   XZ=             -2.5204   YZ=             -3.9323
 Octapole moment (field-independent basis, Debye-Ang**2):
  XXX=             30.4450  YYY=              1.5006  ZZZ=              8.8230  XYY=              1.1126
  XXY=              0.6812  XXZ=              7.3506  XZZ=             -0.3026  YZZ=             -6.9591
  YYZ=              3.5610  XYZ=              2.9492
 Hexadecapole moment (field-independent basis, Debye-Ang**3):
 XXXX=           -771.0899 YYYY=           -307.8710 ZZZZ=           -149.7226 XXXY=             -8.1609
 XXXZ=             -3.1500 YYYX=             -5.9366 YYYZ=             -4.8202 ZZZX=            -11.4044
 ZZZY=            -14.4700 XXYY=           -218.4131 XXZZ=           -181.6026 YYZZ=            -75.4072
 XXYZ=            -19.4866 YYXZ=             -6.7969 ZZXY=              5.8167
 N-N= 4.612536610134D+02 E-N=-1.988324279889D+03  KE= 4.566735439731D+02
 Calling FoFJK, ICntrl=      2127 FMM=F ISym2X=0 I1Cent= 0 IOpClX= 0 NMat=1 NMatS=1 NMatT=0.
 ***** Axes restored to original set *****
 -------------------------------------------------------------------
 Center     Atomic                   Forces (Hartrees/Bohr)
 Number     Number              X              Y              Z
 -------------------------------------------------------------------
      1        6           0.001973531   -0.001456200    0.003787483
      2        1          -0.000458582   -0.000015557    0.000569654
      3        1           0.000533092   -0.000234646    0.000466623
      4        1           0.000344001   -0.000182461    0.000607887
      5        6          -0.000349870   -0.000683859   -0.001077450
      6        8           0.002447369    0.001074759    0.000562431
      7        8          -0.010942097    0.000990661   -0.003761361
      8        1          -0.001094675    0.000987835   -0.000056141
      9        8           0.000881553   -0.002392810    0.000059770
     10        1          -0.000208795    0.000897434   -0.000411872
     11        6          -0.000607734    0.001127014   -0.000133241
     12        1          -0.000113977    0.000207924    0.000008846
     13        1          -0.000144245   -0.000060376   -0.000096543
     14        1          -0.000113156    0.000144603   -0.000024184
     15        1           0.000086265    0.000067622    0.000301363
     16        6           0.002918832    0.000103967   -0.001936818
     17        1           0.000129426   -0.000198914   -0.000315543
     18        1           0.000266648    0.000058282   -0.000074531
     19        1           0.000336855    0.000201394   -0.000321242
     20        8           0.003512827   -0.000335758    0.001907777
     21        1           0.000602734   -0.000300914   -0.000062909
 -------------------------------------------------------------------
 Cartesian Forces:  Max     0.010942097 RMS     0.001812461

 GradGradGradGradGradGradGradGradGradGradGradGradGradGradGradGradGradGrad
 Berny optimization.
 Internal  Forces:  Max     0.015150116 RMS     0.003260246
 Search for a local minimum.
 Step number   1 out of a maximum of   15
 All quantities printed in internal units (Hartrees-Bohrs-Radians)
 Mixed Optimization -- RFO/linear search
 Second derivative matrix not updated -- first step.
     Eigenvalues ---    0.00230   0.00230   0.00230   0.00574   0.00744
     Eigenvalues ---    0.00974   0.01453   0.02199   0.02279   0.02978
     Eigenvalues ---    0.05516   0.05596   0.06112   0.07006   0.07620
     Eigenvalues ---    0.07623   0.08006   0.08121   0.10692   0.11549
     Eigenvalues ---    0.13679   0.14520   0.16000   0.16000   0.16000
     Eigenvalues ---    0.16000   0.16000   0.16000   0.16000   0.16000
     Eigenvalues ---    0.16000   0.16000   0.16000   0.16000   0.17380
     Eigenvalues ---    0.18414   0.18947   0.25000   0.30092   0.30899
     Eigenvalues ---    0.34416   0.34421   0.34432   0.34678   0.34690
     Eigenvalues ---    0.34721   0.34852   0.34881   0.35092   0.35544
     Eigenvalues ---    0.35922   0.37695   0.42754   0.52231   0.52308
     Eigenvalues ---    0.52494   0.538531000.000001000.000001000.00000
     Eigenvalues --- 1000.000001000.000001000.000001000.000001000.00000
     Eigenvalues --- 1000.000001000.000001000.000001000.000001000.00000
     Eigenvalues --- 1000.000001000.000001000.000001000.000001000.00000
     Eigenvalues --- 1000.000001000.000001000.000001000.000001000.00000
     Eigenvalues --- 1000.000001000.000001000.000001000.000001000.00000
     Eigenvalues --- 1000.000001000.000001000.000001000.000001000.00000
 RFO step:  Lambda=-1.15704205D-02 EMin= 2.30000000D-03
 Linear search not attempted -- first point.
 Maximum step size (   0.300) exceeded in Quadratic search.
    -- Step size scaled by   0.433
 Iteration  1 RMS(Cart)=  0.14779807 RMS(Int)=  0.01007298
 Iteration  2 RMS(Cart)=  0.02132637 RMS(Int)=  0.00023232
 Iteration  3 RMS(Cart)=  0.00040764 RMS(Int)=  0.00012013
 Iteration  4 RMS(Cart)=  0.00000012 RMS(Int)=  0.00012013
 Variable       Old X    -DE/DX   Delta X   Delta X   Delta X     New X
                                 (Linear)    (Quad)   (Total)
    R1        2.06607  -0.00039   0.00000  -0.00047  -0.00047   2.06560
    R2        2.06182   0.00012   0.00000   0.00014   0.00014   2.06196
    R3        2.06634   0.00008   0.00000   0.00009   0.00009   2.06643
    R4        2.86206  -0.00248   0.00000  -0.00334  -0.00334   2.85871
    R5        2.87780   0.00708   0.00000   0.00981   0.00981   2.88761
    R6        2.67975  -0.00973   0.00000  -0.00959  -0.00959   2.67015
    R7        2.56166   0.00134   0.00000   0.00105   0.00105   2.56271
    R8        2.78101   0.00112   0.00000   0.00132   0.00132   2.78233
    R9        2.04204   0.00730   0.00000   0.00853   0.00853   2.05057
   R10        1.84130  -0.00003   0.00000  -0.00003  -0.00003   1.84127
   R11        1.84305  -0.00065   0.00000  -0.00053  -0.00053   1.84252
   R12        2.05917   0.00000   0.00000   0.00001   0.00001   2.05917
   R13        2.05526   0.00011   0.00000   0.00014   0.00014   2.05539
   R14        2.06130  -0.00005   0.00000  -0.00007  -0.00007   2.06124
   R15        2.63773   0.00620   0.00000   0.01711   0.01711   2.65484
   R16        2.05868   0.00019   0.00000   0.00023   0.00023   2.05891
   R17        2.06200   0.00012   0.00000   0.00015   0.00015   2.06215
   R18        2.06625  -0.00013   0.00000  -0.00015  -0.00015   2.06610
   R19        2.74811   0.00307   0.00000   0.00342   0.00342   2.75153
   R20        1.84379  -0.00010   0.00000  -0.00008  -0.00008   1.84370
    A1        1.92418   0.00009   0.00000   0.00103   0.00103   1.92521
    A2        1.88119   0.00003   0.00000   0.00113   0.00113   1.88232
    A3        1.89002   0.00134   0.00000   0.00431   0.00431   1.89433
    A4        1.90388   0.00030   0.00000  -0.00100  -0.00101   1.90286
    A5        1.96369  -0.00111   0.00000  -0.00329  -0.00329   1.96039
    A6        1.89897  -0.00061   0.00000  -0.00202  -0.00202   1.89694
    A7        1.89108   0.00118   0.00000   0.00484   0.00490   1.89598
    A8        2.07881  -0.00859   0.00000  -0.02484  -0.02485   2.05396
    A9        1.89806   0.00353   0.00000   0.00590   0.00583   1.90389
   A10        1.75609   0.00497   0.00000   0.01396   0.01400   1.77009
   A11        1.84589  -0.00224   0.00000   0.00118   0.00113   1.84701
   A12        1.97325   0.00170   0.00000   0.00252   0.00242   1.97567
   A13        2.07265  -0.00188   0.00000   0.00434   0.00380   2.07645
   A14        1.81168   0.00849   0.00000   0.04384   0.04356   1.85524
   A15        1.89627  -0.00324   0.00000   0.00513   0.00446   1.90073
   A16        1.92336  -0.00160   0.00000  -0.00405  -0.00405   1.91932
   A17        1.95837  -0.00029   0.00000  -0.00072  -0.00072   1.95765
   A18        1.83864   0.00033   0.00000   0.00094   0.00094   1.83958
   A19        1.87928  -0.00035   0.00000  -0.00107  -0.00107   1.87821
   A20        1.91516   0.00024   0.00000   0.00066   0.00066   1.91582
   A21        1.91986  -0.00009   0.00000  -0.00038  -0.00038   1.91948
   A22        1.94773  -0.00006   0.00000   0.00022   0.00022   1.94795
   A23        1.95812  -0.00005   0.00000  -0.00033  -0.00033   1.95779
   A24        2.85602   0.01515   0.00000   0.02508   0.02508   2.88110
   A25        1.91505  -0.00027   0.00000  -0.00125  -0.00125   1.91380
   A26        1.93045  -0.00015   0.00000  -0.00038  -0.00038   1.93007
   A27        1.86167  -0.00031   0.00000  -0.00106  -0.00106   1.86061
   A28        1.93126  -0.00020   0.00000   0.00002   0.00001   1.93128
   A29        1.89979   0.00025   0.00000   0.00065   0.00064   1.90044
   A30        1.92414   0.00069   0.00000   0.00200   0.00200   1.92614
   A31        2.11774   0.00143   0.00000   0.00723   0.00716   2.12491
   A32        1.77907  -0.00040   0.00000   0.00509   0.00497   1.78404
   A33        1.90729   0.00152   0.00000   0.00958   0.00949   1.91678
    D1        0.95527  -0.00073   0.00000   0.00166   0.00168   0.95694
    D2        2.94506   0.00136   0.00000   0.00825   0.00822   2.95328
    D3       -1.04329  -0.00055   0.00000  -0.00533  -0.00532  -1.04861
    D4       -1.17593  -0.00105   0.00000  -0.00051  -0.00048  -1.17642
    D5        0.81385   0.00104   0.00000   0.00609   0.00606   0.81992
    D6        3.10870  -0.00087   0.00000  -0.00749  -0.00748   3.10122
    D7        2.99547  -0.00029   0.00000   0.00427   0.00429   2.99975
    D8       -1.29793   0.00180   0.00000   0.01087   0.01084  -1.28710
    D9        0.99691  -0.00011   0.00000  -0.00272  -0.00271   0.99420
   D10        0.94772  -0.00374   0.00000  -0.02173  -0.02189   0.92584
   D11        3.05413  -0.00243   0.00000   0.02192   0.02212   3.07624
   D12       -1.24623   0.00292   0.00000  -0.00294  -0.00313  -1.24936
   D13        0.86017   0.00423   0.00000   0.04071   0.04088   0.90105
   D14        2.98029  -0.00022   0.00000  -0.01198  -0.01216   2.96813
   D15       -1.19649   0.00109   0.00000   0.03168   0.03184  -1.16465
   D16        0.92932  -0.00142   0.00000  -0.01706  -0.01697   0.91235
   D17        2.99052  -0.00069   0.00000  -0.01345  -0.01352   2.97700
   D18       -1.33190   0.00005   0.00000  -0.00364  -0.00366  -1.33556
   D19       -2.95288   0.00264   0.00000   0.00668   0.00673  -2.94614
   D20        1.30248   0.00072   0.00000  -0.00239  -0.00239   1.30009
   D21       -0.60272  -0.00465   0.00000  -0.02056  -0.02060  -0.62332
   D22        2.93557   0.00382   0.00000   0.03347   0.03338   2.96895
   D23       -1.29918   0.00372   0.00000   0.03300   0.03291  -1.26627
   D24        0.83665   0.00358   0.00000   0.03232   0.03223   0.86888
   D25        0.87280  -0.00356   0.00000  -0.03174  -0.03165   0.84115
   D26        2.92124  -0.00367   0.00000  -0.03221  -0.03213   2.88911
   D27       -1.22612  -0.00380   0.00000  -0.03289  -0.03280  -1.25892
   D28       -0.36464  -0.00468   0.00000  -0.14640  -0.14670  -0.51134
   D29        1.85680  -0.00358   0.00000  -0.11151  -0.11122   1.74559
   D30       -2.37590  -0.00578   0.00000  -0.15123  -0.15124  -2.52715
   D31       -0.25380  -0.00322   0.00000  -0.12972  -0.12971  -0.38351
   D32       -0.97205   0.00062   0.00000   0.00647   0.00650  -0.96555
   D33       -3.03153  -0.00119   0.00000  -0.01413  -0.01416  -3.04568
   D34       -3.03720   0.00098   0.00000   0.00819   0.00821  -3.02899
   D35        1.18650  -0.00083   0.00000  -0.01241  -0.01244   1.17407
   D36        1.12464   0.00063   0.00000   0.00650   0.00652   1.13116
   D37       -0.93485  -0.00117   0.00000  -0.01410  -0.01413  -0.94897
         Item               Value     Threshold  Converged?
 Maximum Force            0.015150     0.000450     NO 
 RMS     Force            0.003260     0.000300     NO 
 Maximum Displacement     0.545983     0.001800     NO 
 RMS     Displacement     0.162329     0.001200     NO 
 Predicted change in Energy=-4.449602D-03
 GradGradGradGradGradGradGradGradGradGradGradGradGradGradGradGradGradGrad

                          Input orientation:                          
 ---------------------------------------------------------------------
 Center     Atomic      Atomic             Coordinates (Angstroms)
 Number     Number       Type             X           Y           Z
 ---------------------------------------------------------------------
      1          6           0       -2.531190    0.239549    0.090332
      2          1           0       -2.766065    0.637657   -0.900195
      3          1           0       -2.626976    1.021569    0.845223
      4          1           0       -3.247186   -0.557311    0.309707
      5          6           0       -1.140740   -0.355147    0.052329
      6          8           0       -0.167848    0.709941   -0.451680
      7          8           0       -0.547357   -0.716232    1.282791
      8          1           0       -1.151054   -1.290968    1.787371
      9          8           0       -1.109118   -1.350321   -0.868385
     10          1           0       -0.292281   -1.879520   -0.810143
     11          6           0       -0.138800    2.022211    0.215334
     12          1           0        0.734557    2.533128   -0.189123
     13          1           0       -1.044409    2.554705   -0.066344
     14          1           0       -0.060326    1.885774    1.294677
     15          1           0        0.821588    0.267405   -0.400149
     16          6           0        3.299500    0.053480   -0.153850
     17          1           0        3.421026    0.404086   -1.178243
     18          1           0        4.018193   -0.742105    0.049460
     19          1           0        3.427162    0.878252    0.552428
     20          8           0        1.952888   -0.491931   -0.057716
     21          1           0        1.762170   -0.741524    0.865979
 ---------------------------------------------------------------------
                    Distance matrix (angstroms):
                    1          2          3          4          5
     1  C    0.000000
     2  H    1.093069   0.000000
     3  H    1.091142   1.792545   0.000000
     4  H    1.093509   1.767283   1.778848   0.000000
     5  C    1.512765   2.129470   2.175528   2.131720   0.000000
     6  O    2.469905   2.637636   2.797567   3.415840   1.528057
     7  O    2.504210   3.394276   2.745220   2.874235   1.412983
     8  H    2.669681   3.681150   2.900657   2.667492   1.971354
     9  O    2.338614   2.588154   3.296393   2.566730   1.356129
    10  H    3.211545   3.530425   4.075212   3.425459   1.946139
    11  C    2.986141   3.172368   2.754826   4.040409   2.585012
    12  H    4.000462   4.043858   3.828131   5.064970   3.452126
    13  H    2.755904   2.708225   2.384529   3.831225   2.913863
    14  H    3.204008   3.700849   2.745278   4.134599   2.780728
    15  H    3.388578   3.641207   3.743301   4.211766   2.107851
    16  C    5.838766   6.139167   6.087566   6.591438   4.463767
    17  H    6.088122   6.197739   6.407342   6.899518   4.785442
    18  H    6.622668   6.987972   6.921131   7.272387   5.173426
    19  H    6.010277   6.365852   6.062909   6.831302   4.757847
    20  O    4.545760   4.924861   4.907253   5.213449   3.098605
    21  H    4.471809   5.052368   4.730067   5.043513   3.039441
                    6          7          8          9         10
     6  O    0.000000
     7  O    2.277364   0.000000
     8  H    3.159696   0.974357   0.000000
     9  O    2.303109   2.311969   2.656750   0.000000
    10  H    2.617114   2.408043   2.798386   0.975021   0.000000
    11  C    1.472347   2.967399   3.804355   3.672865   4.037161
    12  H    2.051166   3.790538   4.699550   4.352207   4.572913
    13  H    2.078460   3.572989   4.270460   3.987064   4.558649
    14  H    2.108058   2.647221   3.394720   4.031267   4.319897
    15  H    1.085116   2.381982   3.332429   2.562012   2.453179
    16  C    3.541489   4.177883   5.038185   4.681573   4.131356
    17  H    3.674433   4.802069   5.707188   4.867870   4.374815
    18  H    4.458982   4.729273   5.481122   5.244205   4.540134
    19  H    3.736397   4.344262   5.214467   5.250056   4.826610
    20  O    2.469256   2.845786   3.698278   3.281752   2.744510
    21  H    2.750990   2.346974   3.104469   3.409244   2.885341
                   11         12         13         14         15
    11  C    0.000000
    12  H    1.089667   0.000000
    13  H    1.087667   1.783328   0.000000
    14  H    1.090759   1.803488   1.807835   0.000000
    15  H    2.092966   2.277193   2.970708   2.503861   0.000000
    16  C    3.979210   3.567749   5.013315   4.091938   2.499295
    17  H    4.151235   3.567674   5.079527   4.520016   2.716836
    18  H    4.994953   4.643958   6.042541   5.009055   3.382240
    19  H    3.760102   3.246327   4.815426   3.705213   2.840697
    20  O    3.281863   3.263829   4.273857   3.396392   1.404881
    21  H    3.416908   3.590624   4.428458   3.226138   1.872355
                   16         17         18         19         20
    16  C    0.000000
    17  H    1.089529   0.000000
    18  H    1.091242   1.782587   0.000000
    19  H    1.093333   1.794462   1.796622   0.000000
    20  O    1.456049   2.052768   2.083161   2.103132   0.000000
    21  H    2.008847   2.871075   2.399238   2.343968   0.975645
                   21
    21  H    0.000000
 Stoichiometry    C4H13O4(1+)
 Framework group  C1[X(C4H13O4)]
 Deg. of freedom    57
 Full point group                 C1      NOp   1
 Largest Abelian subgroup         C1      NOp   1
 Largest concise Abelian subgroup C1      NOp   1
                         Standard orientation:                         
 ---------------------------------------------------------------------
 Center     Atomic      Atomic             Coordinates (Angstroms)
 Number     Number       Type             X           Y           Z
 ---------------------------------------------------------------------
      1          6           0       -2.540088    0.265168   -0.049217
      2          1           0       -2.732605    0.608117   -1.069081
      3          1           0       -2.643936    1.092589    0.654474
      4          1           0       -3.280511   -0.502655    0.191583
      5          6           0       -1.162635   -0.358525   -0.003509
      6          8           0       -0.150008    0.654860   -0.535104
      7          8           0       -0.619166   -0.657409    1.266070
      8          1           0       -1.252077   -1.188790    1.782239
      9          8           0       -1.122026   -1.407281   -0.862315
     10          1           0       -0.319514   -1.948352   -0.744489
     11          6           0       -0.114440    2.003733    0.054033
     12          1           0        0.783128    2.471982   -0.349067
     13          1           0       -0.998052    2.536546   -0.290000
     14          1           0       -0.075404    1.930373    1.141621
     15          1           0        0.827104    0.196416   -0.423049
     16          6           0        3.289978   -0.052130   -0.078151
     17          1           0        3.453665    0.234238   -1.116551
     18          1           0        3.983650   -0.848436    0.196670
     19          1           0        3.411980    0.810574    0.582328
     20          8           0        1.929163   -0.563696    0.002847
     21          1           0        1.701967   -0.753869    0.932417
 ---------------------------------------------------------------------
 Rotational constants (GHZ):      2.8344968      1.1652557      0.9941108
 Standard basis: 6-31+G(d) (6D, 7F)
 There are   178 symmetry adapted basis functions of A   symmetry.
 Integral buffers will be    262144 words long.
 Raffenetti 2 integral format.
 Two-electron integral symmetry is turned on.
   178 basis functions,   308 primitive gaussians,   178 cartesian basis functions
    34 alpha electrons       34 beta electrons
       nuclear repulsion energy       457.1853522316 Hartrees.
 NAtoms=   21 NActive=   21 NUniq=   21 SFac= 7.50D-01 NAtFMM=   80 NAOKFM=F Big=F
 One-electron integrals computed using PRISM.
 NBasis=   178 RedAO= T  NBF=   178
 NBsUse=   178 1.00D-06 NBFU=   178
 Initial guess read from the read-write file.
 B after Tr=     0.000000    0.000000    0.000000
         Rot=    1.000000    0.000000    0.000000    0.000000 Ang=   0.00 deg.
 Initial guess orbital symmetries:
       Occupied  (A) (A) (A) (A) (A) (A) (A) (A) (A) (A) (A) (A)
                 (A) (A) (A) (A) (A) (A) (A) (A) (A) (A) (A) (A)
                 (A) (A) (A) (A) (A) (A) (A) (A) (A) (A)
       Virtual   (A) (A) (A) (A) (A) (A) (A) (A) (A) (A) (A) (A)
                 (A) (A) (A) (A) (A) (A) (A) (A) (A) (A) (A) (A)
                 (A) (A) (A) (A) (A) (A) (A) (A) (A) (A) (A) (A)
                 (A) (A) (A) (A) (A) (A) (A) (A) (A) (A) (A) (A)
                 (A) (A) (A) (A) (A) (A) (A) (A) (A) (A) (A) (A)
                 (A) (A) (A) (A) (A) (A) (A) (A) (A) (A) (A) (A)
                 (A) (A) (A) (A) (A) (A) (A) (A) (A) (A) (A) (A)
                 (A) (A) (A) (A) (A) (A) (A) (A) (A) (A) (A) (A)
                 (A) (A) (A) (A) (A) (A) (A) (A) (A) (A) (A) (A)
                 (A) (A) (A) (A) (A) (A) (A) (A) (A) (A) (A) (A)
                 (A) (A) (A) (A) (A) (A) (A) (A) (A) (A) (A) (A)
                 (A) (A) (A) (A) (A) (A) (A) (A) (A) (A) (A) (A)
 Harris functional with IExCor= 3102 diagonalized for initial guess.
 ExpMin= 4.38D-02 ExpMax= 5.48D+03 ExpMxC= 8.25D+02 IAcc=2 IRadAn=         0 AccDes= 0.00D+00
 HarFok:  IExCor= 3102 AccDes= 0.00D+00 IRadAn=         0 IDoV= 1
 ScaDFX=  1.000000  1.000000  1.000000  1.000000
 FoFCou: FMM=F IPFlag=           0 FMFlag=      100000 FMFlg1=           0
         NFxFlg=           0 DoJE=T BraDBF=F KetDBF=T FulRan=T
         Omega=  0.000000  0.000000  1.000000  0.000000  0.000000 ICntrl=     500 IOpCl=  0
         NMat0=    1 NMatS0=    1 NMatT0=    0 NMatD0=    1 NMtDS0=    0 NMtDT0=    0
         I1Cent=           4 NGrid=           0.
 Petite list used in FoFCou.
 Requested convergence on RMS density matrix=1.00D-08 within 128 cycles.
 Requested convergence on MAX density matrix=1.00D-06.
 Requested convergence on             energy=1.00D-06.
 No special actions if energy rises.
 SCF Done:  E(RX3LYP) =  -460.692418122     A.U. after   12 cycles
             Convg  =    0.5182D-08             -V/T =  2.0089
 Calling FoFJK, ICntrl=      2127 FMM=F ISym2X=0 I1Cent= 0 IOpClX= 0 NMat=1 NMatS=1 NMatT=0.
 ***** Axes restored to original set *****
 -------------------------------------------------------------------
 Center     Atomic                   Forces (Hartrees/Bohr)
 Number     Number              X              Y              Z
 -------------------------------------------------------------------
      1        6           0.001431679   -0.000104237    0.001227501
      2        1          -0.001136673    0.000126463    0.000405799
      3        1           0.000458205   -0.000203356    0.000351780
      4        1           0.000364860   -0.000268920    0.000447401
      5        6           0.000003179   -0.003504015    0.002291318
      6        8           0.004118725   -0.000115490    0.000873497
      7        8          -0.004444566    0.003869142   -0.006852132
      8        1          -0.000075076    0.000832399   -0.000309320
      9        8           0.001019623   -0.000617477   -0.000983697
     10        1           0.000285374    0.000785882    0.001042487
     11        6          -0.000614204    0.000074949   -0.000337683
     12        1          -0.000084315    0.000177074   -0.000004081
     13        1          -0.000030694   -0.000018086   -0.000021725
     14        1          -0.000202400    0.000033322    0.000083639
     15        1          -0.004016567   -0.000201313    0.001196150
     16        6           0.002523235   -0.000331109   -0.001473573
     17        1          -0.000400732   -0.000213149   -0.000165557
     18        1          -0.000030681   -0.000101644    0.000060331
     19        1           0.000176520    0.000034747   -0.000395910
     20        8          -0.000492681    0.002757482    0.003577049
     21        1           0.001147191   -0.003012663   -0.001013274
 -------------------------------------------------------------------
 Cartesian Forces:  Max     0.006852132 RMS     0.001723185

 GradGradGradGradGradGradGradGradGradGradGradGradGradGradGradGradGradGrad
 Berny optimization.
 Using GEDIIS/GDIIS optimizer.
 Internal  Forces:  Max     0.009342065 RMS     0.001618983
 Search for a local minimum.
 Step number   2 out of a maximum of   15
 All quantities printed in internal units (Hartrees-Bohrs-Radians)
 Mixed Optimization -- RFO/linear search
 Update second derivatives using D2CorX and points    1    2
 DE= -2.97D-03 DEPred=-4.45D-03 R= 6.66D-01
 SS=  1.41D+00  RLast= 3.00D-01 DXNew= 5.0454D-01 8.9998D-01
 Trust test= 6.66D-01 RLast= 3.00D-01 DXMaxT set to 5.05D-01
 Use linear search instead of GDIIS.
     Eigenvalues ---    0.00229   0.00230   0.00539   0.00574   0.00744
     Eigenvalues ---    0.00974   0.01455   0.02264   0.02386   0.02890
     Eigenvalues ---    0.05590   0.05971   0.06093   0.06664   0.07600
     Eigenvalues ---    0.07620   0.08009   0.08118   0.10773   0.13601
     Eigenvalues ---    0.13890   0.14251   0.15654   0.16000   0.16000
     Eigenvalues ---    0.16000   0.16000   0.16000   0.16000   0.16000
     Eigenvalues ---    0.16000   0.16000   0.16000   0.16116   0.17242
     Eigenvalues ---    0.18657   0.20089   0.23985   0.30780   0.30865
     Eigenvalues ---    0.34416   0.34421   0.34432   0.34678   0.34689
     Eigenvalues ---    0.34721   0.34852   0.34881   0.35092   0.35545
     Eigenvalues ---    0.36741   0.37660   0.42289   0.52235   0.52311
     Eigenvalues ---    0.52509   0.538981000.000001000.000001000.00000
     Eigenvalues --- 1000.000001000.000001000.000001000.000001000.00000
     Eigenvalues --- 1000.000001000.000001000.000001000.000001000.00000
     Eigenvalues --- 1000.000001000.000001000.000001000.000001000.00000
     Eigenvalues --- 1000.000001000.000001000.000001000.000001000.00000
     Eigenvalues --- 1000.000001000.000001000.000001000.000001000.00000
     Eigenvalues --- 1000.000001000.000001000.000001000.000001000.00000
 RFO step:  Lambda=-3.68997013D-03 EMin= 2.28500292D-03
 Quartic linear search produced a step of  0.64780.
 Iteration  1 RMS(Cart)=  0.18501302 RMS(Int)=  0.02338001
 Iteration  2 RMS(Cart)=  0.07579192 RMS(Int)=  0.00288478
 Iteration  3 RMS(Cart)=  0.00443650 RMS(Int)=  0.00062294
 Iteration  4 RMS(Cart)=  0.00001382 RMS(Int)=  0.00062290
 Iteration  5 RMS(Cart)=  0.00000003 RMS(Int)=  0.00062290
 Variable       Old X    -DE/DX   Delta X   Delta X   Delta X     New X
                                 (Linear)    (Quad)   (Total)
    R1        2.06560  -0.00008  -0.00031   0.00023  -0.00008   2.06552
    R2        2.06196   0.00006   0.00009   0.00008   0.00017   2.06213
    R3        2.06643   0.00005   0.00006   0.00010   0.00016   2.06660
    R4        2.85871  -0.00115  -0.00217  -0.00170  -0.00387   2.85484
    R5        2.88761  -0.00010   0.00635  -0.01240  -0.00605   2.88156
    R6        2.67015  -0.00934  -0.00622  -0.02242  -0.02864   2.64151
    R7        2.56271  -0.00013   0.00068  -0.00165  -0.00097   2.56174
    R8        2.78233   0.00010   0.00086  -0.00115  -0.00030   2.78204
    R9        2.05057  -0.00048   0.00552  -0.01244  -0.00692   2.04365
   R10        1.84127  -0.00060  -0.00002  -0.00176  -0.00178   1.83949
   R11        1.84252  -0.00013  -0.00034   0.00026  -0.00008   1.84245
   R12        2.05917   0.00001   0.00000   0.00005   0.00006   2.05923
   R13        2.05539   0.00002   0.00009  -0.00007   0.00002   2.05541
   R14        2.06124   0.00007  -0.00004   0.00040   0.00035   2.06159
   R15        2.65484   0.00296   0.01109   0.01059   0.02167   2.67652
   R16        2.05891   0.00004   0.00015  -0.00009   0.00006   2.05897
   R17        2.06215   0.00006   0.00010   0.00011   0.00020   2.06235
   R18        2.06610  -0.00021  -0.00010  -0.00075  -0.00085   2.06525
   R19        2.75153   0.00200   0.00222   0.00412   0.00634   2.75787
   R20        1.84370  -0.00042  -0.00005  -0.00114  -0.00119   1.84251
    A1        1.92521  -0.00027   0.00067   0.00107   0.00176   1.92697
    A2        1.88232  -0.00030   0.00073  -0.00082  -0.00004   1.88227
    A3        1.89433   0.00217   0.00279   0.01998   0.02280   1.91712
    A4        1.90286   0.00040  -0.00066  -0.00308  -0.00391   1.89896
    A5        1.96039  -0.00108  -0.00213  -0.00803  -0.01024   1.95015
    A6        1.89694  -0.00090  -0.00131  -0.00900  -0.01038   1.88656
    A7        1.89598   0.00274   0.00317   0.01800   0.02072   1.91669
    A8        2.05396  -0.00313  -0.01610  -0.00646  -0.02246   2.03149
    A9        1.90389   0.00192   0.00378   0.02455   0.02811   1.93200
   A10        1.77009  -0.00115   0.00907  -0.04236  -0.03322   1.73687
   A11        1.84701  -0.00134   0.00073  -0.00067  -0.00052   1.84649
   A12        1.97567   0.00098   0.00157   0.00328   0.00484   1.98051
   A13        2.07645  -0.00043   0.00246   0.00016   0.00220   2.07865
   A14        1.85524  -0.00052   0.02822  -0.04181  -0.01402   1.84122
   A15        1.90073   0.00164   0.00289   0.03366   0.03614   1.93687
   A16        1.91932  -0.00061  -0.00262  -0.00096  -0.00359   1.91573
   A17        1.95765  -0.00244  -0.00047  -0.02259  -0.02306   1.93459
   A18        1.83958   0.00030   0.00061   0.00233   0.00294   1.84252
   A19        1.87821  -0.00015  -0.00069  -0.00086  -0.00155   1.87666
   A20        1.91582   0.00005   0.00043  -0.00027   0.00015   1.91598
   A21        1.91948  -0.00010  -0.00024  -0.00077  -0.00102   1.91846
   A22        1.94795   0.00002   0.00014   0.00137   0.00151   1.94946
   A23        1.95779  -0.00009  -0.00022  -0.00163  -0.00185   1.95594
   A24        2.88110   0.00619   0.01625   0.00796   0.02421   2.90531
   A25        1.91380   0.00023  -0.00081   0.00217   0.00134   1.91515
   A26        1.93007   0.00005  -0.00025   0.00029   0.00006   1.93013
   A27        1.86061  -0.00083  -0.00069  -0.00777  -0.00846   1.85215
   A28        1.93128  -0.00001   0.00001   0.00198   0.00198   1.93326
   A29        1.90044  -0.00010   0.00042  -0.00133  -0.00093   1.89951
   A30        1.92614   0.00062   0.00130   0.00431   0.00561   1.93174
   A31        2.12491   0.00071   0.00464   0.02476   0.02690   2.15181
   A32        1.78404   0.00116   0.00322   0.05085   0.05046   1.83449
   A33        1.91678   0.00097   0.00615   0.03599   0.03892   1.95570
    D1        0.95694   0.00089   0.00109   0.03639   0.03770   0.99465
    D2        2.95328  -0.00049   0.00533  -0.00874  -0.00340   2.94988
    D3       -1.04861  -0.00002  -0.00345   0.01443   0.01077  -1.03784
    D4       -1.17642   0.00043  -0.00031   0.02638   0.02634  -1.15008
    D5        0.81992  -0.00096   0.00393  -0.01875  -0.01477   0.80515
    D6        3.10122  -0.00049  -0.00485   0.00442  -0.00060   3.10062
    D7        2.99975   0.00123   0.00278   0.04148   0.04442   3.04417
    D8       -1.28710  -0.00015   0.00702  -0.00366   0.00331  -1.28378
    D9        0.99420   0.00032  -0.00175   0.01952   0.01748   1.01169
   D10        0.92584  -0.00234  -0.01418   0.05325   0.03898   0.96482
   D11        3.07624  -0.00088   0.01433   0.06302   0.07734  -3.12960
   D12       -1.24936   0.00061  -0.00202   0.07540   0.07347  -1.17589
   D13        0.90105   0.00207   0.02648   0.08516   0.11183   1.01288
   D14        2.96813   0.00054  -0.00788   0.09029   0.08227   3.05040
   D15       -1.16465   0.00200   0.02063   0.10005   0.12063  -1.04402
   D16        0.91235  -0.00038  -0.01100   0.00003  -0.01123   0.90112
   D17        2.97700   0.00060  -0.00876  -0.01081  -0.01923   2.95778
   D18       -1.33556  -0.00119  -0.00237  -0.03360  -0.03604  -1.37160
   D19       -2.94614   0.00177   0.00436   0.01383   0.01808  -2.92807
   D20        1.30009  -0.00166  -0.00155  -0.01888  -0.02045   1.27964
   D21       -0.62332   0.00000  -0.01335   0.03002   0.01681  -0.60652
   D22        2.96895   0.00025   0.02162  -0.01705   0.00462   2.97357
   D23       -1.26627   0.00021   0.02132  -0.01718   0.00418  -1.26209
   D24        0.86888   0.00004   0.02088  -0.01988   0.00104   0.86992
   D25        0.84115  -0.00013  -0.02050   0.01082  -0.00972   0.83142
   D26        2.88911  -0.00017  -0.02081   0.01069  -0.01017   2.87895
   D27       -1.25892  -0.00035  -0.02125   0.00799  -0.01330  -1.27223
   D28       -0.51134  -0.00076  -0.09503  -0.04175  -0.13694  -0.64828
   D29        1.74559  -0.00056  -0.07205  -0.04791  -0.11979   1.62579
   D30       -2.52715  -0.00270  -0.09798  -0.25800  -0.35683  -2.88398
   D31       -0.38351   0.00009  -0.08403  -0.14871  -0.23187  -0.61539
   D32       -0.96555   0.00136   0.00421   0.05087   0.05566  -0.90989
   D33       -3.04568  -0.00169  -0.00917  -0.07182  -0.08156  -3.12724
   D34       -3.02899   0.00159   0.00532   0.05327   0.05916  -2.96983
   D35        1.17407  -0.00146  -0.00806  -0.06942  -0.07805   1.09601
   D36        1.13116   0.00127   0.00423   0.04896   0.05375   1.18491
   D37       -0.94897  -0.00178  -0.00915  -0.07373  -0.08346  -1.03244
         Item               Value     Threshold  Converged?
 Maximum Force            0.009342     0.000450     NO 
 RMS     Force            0.001619     0.000300     NO 
 Maximum Displacement     0.931093     0.001800     NO 
 RMS     Displacement     0.249871     0.001200     NO 
 Predicted change in Energy=-1.372369D-03
 GradGradGradGradGradGradGradGradGradGradGradGradGradGradGradGradGradGrad

                          Input orientation:                          
 ---------------------------------------------------------------------
 Center     Atomic      Atomic             Coordinates (Angstroms)
 Number     Number       Type             X           Y           Z
 ---------------------------------------------------------------------
      1          6           0       -2.546906    0.188782   -0.067087
      2          1           0       -2.726859    0.576574   -1.073041
      3          1           0       -2.755566    0.956630    0.679678
      4          1           0       -3.225887   -0.653243    0.093936
      5          6           0       -1.129924   -0.324255    0.038853
      6          8           0       -0.149376    0.788396   -0.315719
      7          8           0       -0.674989   -0.632251    1.324192
      8          1           0       -1.309445   -1.224620    1.764759
      9          8           0       -0.909296   -1.311872   -0.863162
     10          1           0       -0.071929   -1.773969   -0.673772
     11          6           0       -0.218453    2.063749    0.416433
     12          1           0        0.669855    2.620319    0.118813
     13          1           0       -1.112144    2.585578    0.081697
     14          1           0       -0.233549    1.872513    1.490382
     15          1           0        0.833488    0.345504   -0.229888
     16          6           0        3.324428   -0.087039   -0.344349
     17          1           0        3.249220   -0.038608   -1.430231
     18          1           0        3.997028   -0.897168   -0.057395
     19          1           0        3.672325    0.866951    0.059715
     20          8           0        1.982935   -0.394037    0.141460
     21          1           0        1.948778   -0.445238    1.114528
 ---------------------------------------------------------------------
                    Distance matrix (angstroms):
                    1          2          3          4          5
     1  C    0.000000
     2  H    1.093027   0.000000
     3  H    1.091232   1.793681   0.000000
     4  H    1.093595   1.767290   1.776510   0.000000
     5  C    1.510718   2.144295   2.166573   2.122340   0.000000
     6  O    2.483849   2.694777   2.794879   3.422143   1.524857
     7  O    2.472614   3.379075   2.696060   2.832145   1.397828
     8  H    2.623867   3.647804   2.833112   2.605930   1.954901
     9  O    2.359548   2.629413   3.306837   2.591606   1.355616
    10  H    3.216515   3.568350   4.060777   3.434072   1.931025
    11  C    3.028364   3.274496   2.780639   4.065798   2.583778
    12  H    4.036643   4.139454   3.849149   5.088579   3.451973
    13  H    2.797375   2.824327   2.389956   3.867560   2.910202
    14  H    3.257649   3.803576   2.802972   4.157354   2.781405
    15  H    3.387939   3.666111   3.752612   4.192956   2.091838
    16  C    5.884345   6.131024   6.253336   6.589333   4.477093
    17  H    5.958603   6.018269   6.442025   6.680410   4.627819
    18  H    6.633435   6.958025   7.041121   7.228617   5.159761
    19  H    6.257381   6.505153   6.458342   7.063815   4.947828
    20  O    4.571940   4.959764   4.956549   5.215484   3.115332
    21  H    4.691414   5.262237   4.928000   5.278449   3.263452
                    6          7          8          9         10
     6  O    0.000000
     7  O    2.232446   0.000000
     8  H    3.118715   0.973414   0.000000
     9  O    2.299630   2.302456   2.659643   0.000000
    10  H    2.588419   2.378878   2.789205   0.974980   0.000000
    11  C    1.472190   2.881122   3.717744   3.675520   3.992254
    12  H    2.053266   3.720317   4.627130   4.349727   4.526390
    13  H    2.077191   3.476970   4.170040   4.015472   4.545154
    14  H    2.108173   2.548789   3.290147   4.016977   4.243407
    15  H    1.081453   2.376273   3.322058   2.487012   2.347121
    16  C    3.582530   4.367679   5.216819   4.437770   3.806506
    17  H    3.671039   4.831012   5.691750   4.385889   3.822792
    18  H    4.483361   4.879212   5.620153   4.989315   4.207744
    19  H    3.840901   4.769240   5.665675   5.156571   4.640247
    20  O    2.480708   2.918932   3.763607   3.196356   2.606008
    21  H    2.823067   2.638766   3.412660   3.582025   3.007789
                   11         12         13         14         15
    11  C    0.000000
    12  H    1.089697   0.000000
    13  H    1.087676   1.782724   0.000000
    14  H    1.090946   1.804593   1.806872   0.000000
    15  H    2.115816   2.307196   2.983370   2.535676   0.000000
    16  C    4.213868   3.819825   5.196880   4.457048   2.530806
    17  H    4.455876   4.015291   5.309781   4.930724   2.724725
    18  H    5.173183   4.844982   6.184861   5.288149   3.403230
    19  H    4.086285   3.477444   5.083827   4.279464   2.900822
    20  O    3.310957   3.288014   4.296649   3.445234   1.416351
    21  H    3.388102   3.467669   4.429653   3.205586   1.917446
                   16         17         18         19         20
    16  C    0.000000
    17  H    1.089560   0.000000
    18  H    1.091349   1.783542   0.000000
    19  H    1.092885   1.794155   1.797571   0.000000
    20  O    1.459404   2.049395   2.085486   2.109694   0.000000
    21  H    2.036920   2.886572   2.402702   2.409374   0.975013
                   21
    21  H    0.000000
 Stoichiometry    C4H13O4(1+)
 Framework group  C1[X(C4H13O4)]
 Deg. of freedom    57
 Full point group                 C1      NOp   1
 Largest Abelian subgroup         C1      NOp   1
 Largest concise Abelian subgroup C1      NOp   1
                         Standard orientation:                         
 ---------------------------------------------------------------------
 Center     Atomic      Atomic             Coordinates (Angstroms)
 Number     Number       Type             X           Y           Z
 ---------------------------------------------------------------------
      1          6           0       -2.561153    0.051619   -0.269968
      2          1           0       -2.698267    0.277158   -1.330647
      3          1           0       -2.820338    0.918551    0.339983
      4          1           0       -3.231830   -0.773155   -0.013276
      5          6           0       -1.142032   -0.403021   -0.021643
      6          8           0       -0.165574    0.667391   -0.496973
      7          8           0       -0.745556   -0.500206    1.315251
      8          1           0       -1.390103   -1.034652    1.811699
      9          8           0       -0.859239   -1.510403   -0.750634
     10          1           0       -0.023974   -1.916802   -0.454392
     11          6           0       -0.293875    2.037092    0.027241
     12          1           0        0.597771    2.564387   -0.310941
     13          1           0       -1.179299    2.478962   -0.424216
     14          1           0       -0.358470    2.011124    1.115964
     15          1           0        0.819747    0.267925   -0.299208
     16          6           0        3.320753   -0.113318   -0.231382
     17          1           0        3.298355   -0.232565   -1.314165
     18          1           0        3.992992   -0.852945    0.206896
     19          1           0        3.630882    0.899595    0.037364
     20          8           0        1.962725   -0.376960    0.233498
     21          1           0        1.881526   -0.280399    1.200314
 ---------------------------------------------------------------------
 Rotational constants (GHZ):      2.8089209      1.1537098      0.9882786
 Standard basis: 6-31+G(d) (6D, 7F)
 There are   178 symmetry adapted basis functions of A   symmetry.
 Integral buffers will be    262144 words long.
 Raffenetti 2 integral format.
 Two-electron integral symmetry is turned on.
   178 basis functions,   308 primitive gaussians,   178 cartesian basis functions
    34 alpha electrons       34 beta electrons
       nuclear repulsion energy       456.7153727808 Hartrees.
 NAtoms=   21 NActive=   21 NUniq=   21 SFac= 7.50D-01 NAtFMM=   80 NAOKFM=F Big=F
 One-electron integrals computed using PRISM.
 NBasis=   178 RedAO= T  NBF=   178
 NBsUse=   178 1.00D-06 NBFU=   178
 Initial guess read from the read-write file.
 B after Tr=     0.000000    0.000000    0.000000
         Rot=    1.000000    0.000000    0.000000    0.000000 Ang=   0.00 deg.
 Initial guess orbital symmetries:
       Occupied  (A) (A) (A) (A) (A) (A) (A) (A) (A) (A) (A) (A)
                 (A) (A) (A) (A) (A) (A) (A) (A) (A) (A) (A) (A)
                 (A) (A) (A) (A) (A) (A) (A) (A) (A) (A)
       Virtual   (A) (A) (A) (A) (A) (A) (A) (A) (A) (A) (A) (A)
                 (A) (A) (A) (A) (A) (A) (A) (A) (A) (A) (A) (A)
                 (A) (A) (A) (A) (A) (A) (A) (A) (A) (A) (A) (A)
                 (A) (A) (A) (A) (A) (A) (A) (A) (A) (A) (A) (A)
                 (A) (A) (A) (A) (A) (A) (A) (A) (A) (A) (A) (A)
                 (A) (A) (A) (A) (A) (A) (A) (A) (A) (A) (A) (A)
                 (A) (A) (A) (A) (A) (A) (A) (A) (A) (A) (A) (A)
                 (A) (A) (A) (A) (A) (A) (A) (A) (A) (A) (A) (A)
                 (A) (A) (A) (A) (A) (A) (A) (A) (A) (A) (A) (A)
                 (A) (A) (A) (A) (A) (A) (A) (A) (A) (A) (A) (A)
                 (A) (A) (A) (A) (A) (A) (A) (A) (A) (A) (A) (A)
                 (A) (A) (A) (A) (A) (A) (A) (A) (A) (A) (A) (A)
 Harris functional with IExCor= 3102 diagonalized for initial guess.
[...]
      8          1           0       -2.261452   -0.422696    1.728169
      9          8           0       -0.331117   -1.335679   -0.396357
     10          1           0        0.068152   -1.896684    0.294194
     11          6           0       -0.316798    1.993788    1.105313
     12          1           0        0.451916    2.740757    0.904591
     13          1           0       -1.295627    2.411324    0.871308
     14          1           0       -0.270766    1.640679    2.136775
     15          1           0        0.912924    0.555665    0.250704
     16          6           0        3.052502   -0.295419   -0.865114
     17          1           0        2.314039   -0.645879   -1.585677
     18          1           0        3.768381   -1.091870   -0.651099
     19          1           0        3.562468    0.591795   -1.248091
     20          8           0        2.315851    0.028846    0.349002
     21          1           0        2.921632    0.374598    1.024383
 ---------------------------------------------------------------------
                    Distance matrix (angstroms):
                    1          2          3          4          5
     1  C    0.000000
     2  H    1.091409   0.000000
     3  H    1.093487   1.780953   0.000000
     4  H    1.094234   1.775042   1.785008   0.000000
     5  C    1.506906   2.137579   2.164051   2.121948   0.000000
     6  O    2.475626   2.671084   2.707360   3.448549   1.617343
     7  O    2.460565   3.359825   2.762088   2.764230   1.360707
     8  H    2.481444   3.530852   2.495843   2.612985   1.950441
     9  O    2.381778   2.589405   3.318582   2.703241   1.352713
    10  H    3.184388   3.537345   4.039505   3.392720   1.919116
    11  C    3.263739   3.632850   2.986244   4.243832   2.653105
    12  H    4.115391   4.263622   3.849591   5.157540   3.544637
    13  H    2.975476   3.386161   2.362964   3.933456   2.873447
    14  H    3.793589   4.373643   3.535037   4.622724   2.925080
    15  H    3.322111   3.406294   3.710703   4.202410   2.203183
    16  C    5.298588   5.020420   5.946915   6.016599   4.267069
    17  H    4.684502   4.281484   5.448862   5.323401   3.837745
    18  H    6.110745   5.892966   6.825520   6.723143   4.976498
    19  H    5.842772   5.452245   6.378424   6.663772   4.954432
    20  O    4.667630   4.663665   5.175412   5.436650   3.429211
    21  H    5.443786   5.509112   5.838588   6.239569   4.163625
                    6          7          8          9         10
     6  O    0.000000
     7  O    2.377897   0.000000
     8  H    2.985370   0.972057   0.000000
     9  O    2.316265   2.244944   3.012199   0.000000
    10  H    2.794608   2.234128   3.107407   0.975194   0.000000
    11  C    1.457965   2.851690   3.163704   3.652474   3.992728
    12  H    2.052735   3.871466   4.248303   4.350050   4.693157
    13  H    2.068799   3.110838   3.114273   4.071521   4.555424
    14  H    2.102426   2.604670   2.896085   3.908850   4.002862
    15  H    1.043106   2.836385   3.635486   2.354465   2.594137
    16  C    3.502845   4.997268   5.914340   3.570819   3.579719
    17  H    3.344287   4.775204   5.653893   2.981133   3.184719
    18  H    4.402220   5.559924   6.516716   4.114635   3.902947
    19  H    3.917339   5.749737   6.618562   4.427258   4.558664
    20  O    2.544631   3.891032   4.801843   3.069842   2.960206
    21  H    3.152653   4.410593   5.291063   3.940041   3.719441
                   11         12         13         14         15
    11  C    0.000000
    12  H    1.090492   0.000000
    13  H    1.089587   1.778634   0.000000
    14  H    1.091201   1.802975   1.801566   0.000000
    15  H    2.076239   2.326956   2.950646   2.477023   0.000000
    16  C    4.524957   4.371873   5.408128   4.878927   2.558748
    17  H    4.596800   4.597634   5.330380   5.076043   2.603676
    18  H    5.412482   5.301711   6.343049   5.617275   3.417785
    19  H    4.748979   4.350588   5.603894   5.220265   3.044302
    20  O    3.371030   3.337273   4.357955   3.533373   1.501801
    21  H    3.621568   3.422361   4.685825   3.609956   2.160156
                   16         17         18         19         20
    16  C    0.000000
    17  H    1.089661   0.000000
    18  H    1.092071   1.785345   0.000000
    19  H    1.092651   1.790077   1.798201   0.000000
    20  O    1.456668   2.048961   2.089510   2.102778   0.000000
    21  H    2.009042   2.867570   2.382174   2.371073   0.970904
                   21
    21  H    0.000000
 Stoichiometry    C4H13O4(1+)
 Framework group  C1[X(C4H13O4)]
 Deg. of freedom    57
 Full point group                 C1      NOp   1
 Largest Abelian subgroup         C1      NOp   1
 Largest concise Abelian subgroup C1      NOp   1
                         Standard orientation:                         
 ---------------------------------------------------------------------
 Center     Atomic      Atomic             Coordinates (Angstroms)
 Number     Number       Type             X           Y           Z
 ---------------------------------------------------------------------
      1          6           0       -2.128701   -0.633148   -1.029857
      2          1           0       -1.622931   -0.869034   -1.967795
      3          1           0       -2.713434    0.282088   -1.156921
      4          1           0       -2.799477   -1.459957   -0.777280
      5          6           0       -1.112113   -0.495085    0.073888
      6          8           0       -0.150153    0.715323   -0.400815
      7          8           0       -1.554352   -0.148006    1.313034
      8          1           0       -2.501879    0.068853    1.320781
      9          8           0       -0.252380   -1.538207    0.124766
     10          1           0        0.057885   -1.670295    1.039802
     11          6           0       -0.562086    2.090867   -0.148125
     12          1           0        0.204423    2.728329   -0.590031
     13          1           0       -1.508152    2.253749   -0.663516
     14          1           0       -0.657668    2.266407    0.924614
     15          1           0        0.823862    0.547030   -0.067582
     16          6           0        3.129692   -0.514479   -0.389352
     17          1           0        2.516609   -1.230504   -0.935976
     18          1           0        3.830428   -1.045270    0.258606
     19          1           0        3.662932    0.136099   -1.086697
     20          8           0        2.212557    0.265863    0.430289
     21          1           0        2.701271    0.943793    0.924478
 ---------------------------------------------------------------------
 Rotational constants (GHZ):      2.5300208      1.1480804      0.9776140

 **********************************************************************

            Population analysis using the SCF density.

 **********************************************************************

 Orbital symmetries:
       Occupied  (A) (A) (A) (A) (A) (A) (A) (A) (A) (A) (A) (A)
                 (A) (A) (A) (A) (A) (A) (A) (A) (A) (A) (A) (A)
                 (A) (A) (A) (A) (A) (A) (A) (A) (A) (A)
       Virtual   (A) (A) (A) (A) (A) (A) (A) (A) (A) (A) (A) (A)
                 (A) (A) (A) (A) (A) (A) (A) (A) (A) (A) (A) (A)
                 (A) (A) (A) (A) (A) (A) (A) (A) (A) (A) (A) (A)
                 (A) (A) (A) (A) (A) (A) (A) (A) (A) (A) (A) (A)
                 (A) (A) (A) (A) (A) (A) (A) (A) (A) (A) (A) (A)
                 (A) (A) (A) (A) (A) (A) (A) (A) (A) (A) (A) (A)
                 (A) (A) (A) (A) (A) (A) (A) (A) (A) (A) (A) (A)
                 (A) (A) (A) (A) (A) (A) (A) (A) (A) (A) (A) (A)
                 (A) (A) (A) (A) (A) (A) (A) (A) (A) (A) (A) (A)
                 (A) (A) (A) (A) (A) (A) (A) (A) (A) (A) (A) (A)
                 (A) (A) (A) (A) (A) (A) (A) (A) (A) (A) (A) (A)
                 (A) (A) (A) (A) (A) (A) (A) (A) (A) (A) (A) (A)
 The electronic state is 1-A.
 Alpha  occ. eigenvalues --  -19.43002 -19.40026 -19.38879 -19.38296 -10.56985
 Alpha  occ. eigenvalues --  -10.43571 -10.40519 -10.37626  -1.31608  -1.24724
 Alpha  occ. eigenvalues --   -1.22031  -1.21071  -0.94256  -0.89195  -0.85379
 Alpha  occ. eigenvalues --   -0.82557  -0.76422  -0.75601  -0.70712  -0.68181
 Alpha  occ. eigenvalues --   -0.66037  -0.64241  -0.60849  -0.60317  -0.59695
 Alpha  occ. eigenvalues --   -0.58359  -0.57789  -0.56400  -0.54812  -0.53758
 Alpha  occ. eigenvalues --   -0.51373  -0.50282  -0.49985  -0.46923
 Alpha virt. eigenvalues --   -0.15367  -0.13383  -0.12098  -0.10864  -0.10126
 Alpha virt. eigenvalues --   -0.09173  -0.08321  -0.07942  -0.06692  -0.06040
 Alpha virt. eigenvalues --   -0.05082  -0.04549  -0.03980  -0.03746  -0.01660
 Alpha virt. eigenvalues --   -0.01280  -0.01024   0.01078   0.01433   0.01685
 Alpha virt. eigenvalues --    0.02642   0.03862   0.04132   0.04287   0.05167
 Alpha virt. eigenvalues --    0.06071   0.07035   0.08103   0.08561   0.09041
 Alpha virt. eigenvalues --    0.10388   0.11162   0.12539   0.12817   0.13269
 Alpha virt. eigenvalues --    0.13750   0.14142   0.15125   0.16088   0.17413
 Alpha virt. eigenvalues --    0.17857   0.18563   0.19249   0.20797   0.21884
 Alpha virt. eigenvalues --    0.22298   0.24434   0.25068   0.26710   0.29389
 Alpha virt. eigenvalues --    0.32208   0.47931   0.48874   0.50836   0.52162
 Alpha virt. eigenvalues --    0.53887   0.55545   0.58495   0.60337   0.60504
 Alpha virt. eigenvalues --    0.62451   0.66495   0.69204   0.77394   0.78703
 Alpha virt. eigenvalues --    0.80119   0.82012   0.83042   0.83839   0.88803
 Alpha virt. eigenvalues --    0.90214   0.91554   0.92486   0.93218   0.94484
 Alpha virt. eigenvalues --    0.96213   0.99071   1.00722   1.02987   1.03820
 Alpha virt. eigenvalues --    1.06068   1.07545   1.08750   1.13531   1.13914
 Alpha virt. eigenvalues --    1.14441   1.16294   1.17858   1.22018   1.24333
 Alpha virt. eigenvalues --    1.26243   1.32803   1.34595   1.36802   1.40969
 Alpha virt. eigenvalues --    1.41218   1.46617   1.49480   1.51516   1.55731
 Alpha virt. eigenvalues --    1.56392   1.57555   1.63066   1.64705   1.65736
 Alpha virt. eigenvalues --    1.70109   1.73392   1.79824   1.84515   1.86767
 Alpha virt. eigenvalues --    1.87976   1.91776   1.95546   1.98233   2.00379
 Alpha virt. eigenvalues --    2.03981   2.05101   2.06455   2.10006   2.12494
 Alpha virt. eigenvalues --    2.17214   2.18526   2.20113   2.22233   2.31791
 Alpha virt. eigenvalues --    2.32385   2.34709   2.43465   2.53782   2.54984
 Alpha virt. eigenvalues --    2.60836   2.66865   2.67095   2.71288   2.81031
 Alpha virt. eigenvalues --    2.82886   3.98121   4.00727   4.06004   4.12444
 Alpha virt. eigenvalues --    4.16511   4.17216   4.31319   4.47010
          Condensed to atoms (all electrons):
              1          2          3          4          5          6
     1  C    5.944912   0.397871   0.322580   0.426639  -0.232148  -0.017398
     2  H    0.397871   0.418842  -0.022126  -0.017095  -0.054607   0.000046
     3  H    0.322580  -0.022126   0.482198  -0.024621   0.017392  -0.000367
     4  H    0.426639  -0.017095  -0.024621   0.431230  -0.090404   0.005925
     5  C   -0.232148  -0.054607   0.017392  -0.090404   5.398419  -0.098175
     6  O   -0.017398   0.000046  -0.000367   0.005925  -0.098175   8.968517
     7  O   -0.096896   0.005872  -0.007746   0.001127   0.357636  -0.118808
     8  H    0.001755   0.000089   0.000688  -0.000316   0.004965  -0.002283
     9  O   -0.139413  -0.004257   0.007943  -0.003268   0.376561  -0.103450
    10  H    0.011255  -0.000013  -0.000219  -0.000093   0.012489  -0.009089
    11  C   -0.022300   0.001085  -0.004768   0.001353  -0.073080   0.050620
    12  H    0.004335  -0.000019   0.000030   0.000002  -0.004326  -0.029848
    13  H   -0.024265   0.000007   0.002145  -0.000087   0.037108  -0.035251
    14  H    0.001071   0.000001  -0.000069   0.000011  -0.018205  -0.054924
    15  H   -0.015122  -0.000146   0.000142  -0.000071   0.036453   0.059741
    16  C    0.002555  -0.000116   0.000076  -0.000011  -0.012689   0.003216
    17  H    0.000858   0.000002   0.000000   0.000000  -0.005351   0.003314
    18  H   -0.000576   0.000000   0.000000   0.000000   0.000871  -0.001218
    19  H    0.000290   0.000000   0.000000   0.000000  -0.000607  -0.000033
    20  O   -0.005352  -0.000073  -0.000033   0.000047   0.006627  -0.076381
    21  H    0.000603   0.000000   0.000000   0.000000  -0.002652   0.004718
              7          8          9         10         11         12
     1  C   -0.096896   0.001755  -0.139413   0.011255  -0.022300   0.004335
     2  H    0.005872   0.000089  -0.004257  -0.000013   0.001085  -0.000019
     3  H   -0.007746   0.000688   0.007943  -0.000219  -0.004768   0.000030
     4  H    0.001127  -0.000316  -0.003268  -0.000093   0.001353   0.000002
     5  C    0.357636   0.004965   0.376561   0.012489  -0.073080  -0.004326
     6  O   -0.118808  -0.002283  -0.103450  -0.009089   0.050620  -0.029848
     7  O    8.335693   0.192043  -0.097692  -0.001991   0.003594   0.000169
     8  H    0.192043   0.279258   0.007567  -0.000174  -0.007724   0.000006
     9  O   -0.097692   0.007567   8.410044   0.174683  -0.009456  -0.000274
    10  H   -0.001991  -0.000174   0.174683   0.272877  -0.001500  -0.000001
    11  C    0.003594  -0.007724  -0.009456  -0.001500   5.248130   0.382291
    12  H    0.000169   0.000006  -0.000274  -0.000001   0.382291   0.442858
    13  H   -0.007558   0.000316  -0.000275   0.000000   0.382443  -0.018848
    14  H    0.009905  -0.000566  -0.000106   0.000007   0.400939  -0.025979
    15  H    0.003314  -0.000019  -0.001902   0.001183  -0.011990  -0.002512
    16  C   -0.000911   0.000070  -0.004014   0.000312  -0.003173  -0.000661
    17  H    0.000015   0.000000   0.003171  -0.000205   0.000414  -0.000001
    18  H    0.000025   0.000000  -0.000487   0.000026   0.000030   0.000000
    19  H   -0.000006   0.000000   0.000003  -0.000001  -0.000162  -0.000001
    20  O    0.004045  -0.000047  -0.005577   0.000273   0.010675   0.000743
    21  H   -0.000111  -0.000001   0.001556  -0.000054   0.000048  -0.000136
             13         14         15         16         17         18
     1  C   -0.024265   0.001071  -0.015122   0.002555   0.000858  -0.000576
     2  H    0.000007   0.000001  -0.000146  -0.000116   0.000002   0.000000
     3  H    0.002145  -0.000069   0.000142   0.000076   0.000000   0.000000
     4  H   -0.000087   0.000011  -0.000071  -0.000011   0.000000   0.000000
     5  C    0.037108  -0.018205   0.036453  -0.012689  -0.005351   0.000871
     6  O   -0.035251  -0.054924   0.059741   0.003216   0.003314  -0.001218
     7  O   -0.007558   0.009905   0.003314  -0.000911   0.000015   0.000025
     8  H    0.000316  -0.000566  -0.000019   0.000070   0.000000   0.000000
     9  O   -0.000275  -0.000106  -0.001902  -0.004014   0.003171  -0.000487
    10  H    0.000000   0.000007   0.001183   0.000312  -0.000205   0.000026
    11  C    0.382443   0.400939  -0.011990  -0.003173   0.000414   0.000030
    12  H   -0.018848  -0.025979  -0.002512  -0.000661  -0.000001   0.000000
    13  H    0.451821  -0.028714   0.002491   0.000141   0.000001   0.000000
    14  H   -0.028714   0.457105  -0.000863  -0.000245   0.000000   0.000000
    15  H    0.002491  -0.000863   0.203848  -0.007398  -0.002302   0.000931
    16  C    0.000141  -0.000245  -0.007398   5.128404   0.398800   0.390263
    17  H    0.000001   0.000000  -0.002302   0.398800   0.459856  -0.023357
    18  H    0.000000   0.000000   0.000931   0.390263  -0.023357   0.473203
    19  H   -0.000001   0.000000   0.000114   0.393950  -0.025947  -0.030790
    20  O   -0.000326   0.000326   0.103315   0.084171  -0.048469  -0.037551
    21  H    0.000009   0.000055  -0.005335  -0.016458   0.004504  -0.003440
             19         20         21
     1  C    0.000290  -0.005352   0.000603
     2  H    0.000000  -0.000073   0.000000
     3  H    0.000000  -0.000033   0.000000
     4  H    0.000000   0.000047   0.000000
     5  C   -0.000607   0.006627  -0.002652
     6  O   -0.000033  -0.076381   0.004718
     7  O   -0.000006   0.004045  -0.000111
     8  H    0.000000  -0.000047  -0.000001
     9  O    0.000003  -0.005577   0.001556
    10  H   -0.000001   0.000273  -0.000054
    11  C   -0.000162   0.010675   0.000048
    12  H   -0.000001   0.000743  -0.000136
    13  H   -0.000001  -0.000326   0.000009
    14  H    0.000000   0.000326   0.000055
    15  H    0.000114   0.103315  -0.005335
    16  C    0.393950   0.084171  -0.016458
    17  H   -0.025947  -0.048469   0.004504
    18  H   -0.030790  -0.037551  -0.003440
    19  H    0.489393  -0.051122  -0.003255
    20  O   -0.051122   8.606081   0.202846
    21  H   -0.003255   0.202846   0.277614
 Mulliken atomic charges:
              1
     1  C   -0.561254
     2  H    0.274637
     3  H    0.226756
     4  H    0.269631
     5  C    0.343724
     6  O   -0.548873
     7  O   -0.581720
     8  H    0.524373
     9  O   -0.611357
    10  H    0.540236
    11  C   -0.347470
    12  H    0.252170
    13  H    0.238843
    14  H    0.260250
    15  H    0.636126
    16  C   -0.356283
    17  H    0.234698
    18  H    0.232069
    19  H    0.228174
    20  O   -0.794218
    21  H    0.539488
 Sum of Mulliken atomic charges =   1.00000
 Mulliken charges with hydrogens summed into heavy atoms:
              1
     1  C    0.209770
     5  C    0.343724
     6  O    0.087254
     7  O   -0.057347
     9  O   -0.071121
    11  C    0.403793
    16  C    0.338658
    20  O   -0.254731
 Sum of Mulliken charges with hydrogens summed into heavy atoms =   1.00000
 Electronic spatial extent (au):  <R**2>=           1302.5849
 Charge=              1.0000 electrons
 Dipole moment (field-independent basis, Debye):
    X=              0.0824    Y=              2.5034    Z=              0.5472  Tot=              2.5638
 Quadrupole moment (field-independent basis, Debye-Ang):
   XX=            -16.7346   YY=            -38.5485   ZZ=            -45.4914
   XY=              0.2203   XZ=              1.1044   YZ=             -0.1704
 Traceless Quadrupole moment (field-independent basis, Debye-Ang):
   XX=             16.8569   YY=             -4.9570   ZZ=            -11.8999
   XY=              0.2203   XZ=              1.1044   YZ=             -0.1704
 Octapole moment (field-independent basis, Debye-Ang**2):
  XXX=             24.9210  YYY=             17.3430  ZZZ=              4.4646  XYY=              2.9266
  XXY=              1.5288  XXZ=              7.9580  XZZ=             -0.0798  YZZ=             -2.1201
  YYZ=              5.5900  XYZ=              1.4587
 Hexadecapole moment (field-independent basis, Debye-Ang**3):
 XXXX=           -717.4192 YYYY=           -359.7924 ZZZZ=           -196.2999 XXXY=             10.4461
 XXXZ=            -14.4061 YYYX=             -0.9310 YYYZ=            -14.7923 ZZZX=              0.2437
 ZZZY=              2.4756 XXYY=           -205.0853 XXZZ=           -170.9186 YYZZ=            -88.0581
 XXYZ=             14.4349 YYXZ=              7.3563 ZZXY=              3.7290
 N-N= 4.509933867738D+02 E-N=-1.968339817013D+03  KE= 4.566334427036D+02


 THE MORE POWERFUL THE METHOD, THE MORE CATASTROPHIC THE ERRORS.
     -- M.D. KAMEN
 Error termination request processed by link 9999.
 Error termination via Lnk1e in C:\G09W\l9999.exe at Fri Nov 13 14:42:43 2015.
 Job cpu time:  0 days  0 hours 44 minutes 31.0 seconds.
 File lengths (MBytes):  RWF=     28 Int=      0 D2E=      0 Chk=      3 Scr=      1
