 Entering Gaussian System, Link 0=g09
 Input=tsb-3smdfreq.com
 Output=tsb-3smdfreq.log
 Initial command:
 /apps/gaussian/g09/l1.exe "/data/sawal/gaussian/Gau-9506.inp" -scrdir="/data/sawal/gaussian/"
 Entering Link 1 = /apps/gaussian/g09/l1.exe PID=      9507.
  
 Copyright (c) 1988,1990,1992,1993,1995,1998,2003,2009,2013,
            Gaussian, Inc.  All Rights Reserved.
  
 This is part of the Gaussian(R) 09 program.  It is based on
 the Gaussian(R) 03 system (copyright 2003, Gaussian, Inc.),
 the Gaussian(R) 98 system (copyright 1998, Gaussian, Inc.),
 the Gaussian(R) 94 system (copyright 1995, Gaussian, Inc.),
 the Gaussian 92(TM) system (copyright 1992, Gaussian, Inc.),
 the Gaussian 90(TM) system (copyright 1990, Gaussian, Inc.),
 the Gaussian 88(TM) system (copyright 1988, Gaussian, Inc.),
 the Gaussian 86(TM) system (copyright 1986, Carnegie Mellon
 University), and the Gaussian 82(TM) system (copyright 1983,
 Carnegie Mellon University). Gaussian is a federally registered
 trademark of Gaussian, Inc.
  
 This software contains proprietary and confidential information,
 including trade secrets, belonging to Gaussian, Inc.
  
 This software is provided under written license and may be
 used, copied, transmitted, or stored only in accord with that
 written license.
  
 The following legend is applicable only to US Government
 contracts under FAR:
  
                    RESTRICTED RIGHTS LEGEND
  
 Use, reproduction and disclosure by the US Government is
 subject to restrictions as set forth in subparagraphs (a)
 and (c) of the Commercial Computer Software - Restricted
 Rights clause in FAR 52.227-19.
  
 Gaussian, Inc.
 340 Quinnipiac St., Bldg. 40, Wallingford CT 06492
  
  
 ---------------------------------------------------------------
 Warning -- This program may not be used in any manner that
 competes with the business of Gaussian, Inc. or will provide
 assistance to any competitor of Gaussian, Inc.  The licensee
 of this program is prohibited from giving any competitor of
 Gaussian, Inc. access to this program.  By using this program,
 the user acknowledges that Gaussian, Inc. is engaged in the
 business of creating and licensing software in the field of
 computational chemistry and represents and warrants to the
 licensee that it is not a competitor of Gaussian, Inc. and that
 it will not use this program in any manner prohibited above.
 ---------------------------------------------------------------
  

 Cite this work as:
 Gaussian 09, Revision D.01,
 M. J. Frisch, G. W. Trucks, H. B. Schlegel, G. E. Scuseria, 
 M. A. Robb, J. R. Cheeseman, G. Scalmani, V. Barone, B. Mennucci, 
 G. A. Petersson, H. Nakatsuji, M. Caricato, X. Li, H. P. Hratchian, 
 A. F. Izmaylov, J. Bloino, G. Zheng, J. L. Sonnenberg, M. Hada, 
 M. Ehara, K. Toyota, R. Fukuda, J. Hasegawa, M. Ishida, T. Nakajima, 
 Y. Honda, O. Kitao, H. Nakai, T. Vreven, J. A. Montgomery, Jr., 
 J. E. Peralta, F. Ogliaro, M. Bearpark, J. J. Heyd, E. Brothers, 
 K. N. Kudin, V. N. Staroverov, T. Keith, R. Kobayashi, J. Normand, 
 K. Raghavachari, A. Rendell, J. C. Burant, S. S. Iyengar, J. Tomasi, 
 M. Cossi, N. Rega, J. M. Millam, M. Klene, J. E. Knox, J. B. Cross, 
 V. Bakken, C. Adamo, J. Jaramillo, R. Gomperts, R. E. Stratmann, 
 O. Yazyev, A. J. Austin, R. Cammi, C. Pomelli, J. W. Ochterski, 
 R. L. Martin, K. Morokuma, V. G. Zakrzewski, G. A. Voth, 
 P. Salvador, J. J. Dannenberg, S. Dapprich, A. D. Daniels, 
 O. Farkas, J. B. Foresman, J. V. Ortiz, J. Cioslowski, 
 and D. J. Fox, Gaussian, Inc., Wallingford CT, 2013.
 
 ******************************************
 Gaussian 09:  ES64L-G09RevD.01 24-Apr-2013
                23-Sep-2015 
 ******************************************
 %nprocshared=8
 Will use up to    8 processors via shared memory.
 %nprocl=1
 Will use up to    1 processors via Linda.
 ----------------------------------------------------------------------
 # freq=noraman x3lyp/6-31+g(d) scrf=(solvent=methanol,smd) geom=connec
 tivity
 ----------------------------------------------------------------------
 1/10=4,30=1,38=1,57=2/1,3;
 2/12=2,17=6,18=5,40=1/2;
 3/5=1,6=6,7=11,11=2,16=1,25=1,30=1,70=32201,71=2,72=3,74=-33,140=1/1,2,3;
 4//1;
 5/5=2,38=5,53=3,98=1/2;
 8/6=4,10=90,11=11/1;
 11/6=1,8=1,9=11,15=111,16=1/1,2,10;
 10/6=1/2;
 6/7=2,8=2,9=2,10=2,18=1,28=1/1;
 7/8=1,10=1,25=1/1,2,3,16;
 1/10=4,30=1/3;
 99//99;
 ---------
 tsb-3freq
 ---------
 Symbolic Z-matrix:
 Charge =  1 Multiplicity = 1
 C                    -2.48426   0.42545   0.25554 
 H                    -2.84261   0.95702  -0.64734 
 H                    -2.37572   1.13998   1.07235 
 H                    -3.23613  -0.31373   0.54357 
 C                    -1.21007  -0.30287  -0.03217 
 O                    -0.16285   0.67168  -0.56017 
 O                    -0.34227  -0.99363   1.25981 
 H                    -0.89643  -1.7339    1.64299 
 O                    -1.38639  -1.22383  -1.02965 
 H                    -0.64     -1.84756  -1.0328 
 C                    -0.01359   1.98057   0.09249 
 H                     0.88646   2.41776  -0.33868 
 H                    -0.88585   2.57993  -0.15927 
 H                     0.09225   1.83946   1.17083 
 H                     0.78246   0.16191  -0.51919 
 C                     3.16606   0.03867   0.0558 
 H                     3.45794   0.60999  -0.8271 
 H                     3.94029  -0.69691   0.29367 
 H                     3.01337   0.71015   0.9067 
 O                     1.9378   -0.64882  -0.27743 
 H                     1.58474  -1.11825   0.52388 
 

 GradGradGradGradGradGradGradGradGradGradGradGradGradGradGradGradGradGrad
 Berny optimization.
 Initialization pass.
 Trust Radius=3.00D-01 FncErr=1.00D-07 GrdErr=1.00D-07
 Number of steps in this run=      2 maximum allowed number of steps=      2.
 GradGradGradGradGradGradGradGradGradGradGradGradGradGradGradGradGradGrad

                          Input orientation:                          
 ---------------------------------------------------------------------
 Center     Atomic      Atomic             Coordinates (Angstroms)
 Number     Number       Type             X           Y           Z
 ---------------------------------------------------------------------
      1          6           0       -2.484263    0.425449    0.255542
      2          1           0       -2.842614    0.957020   -0.647340
      3          1           0       -2.375716    1.139975    1.072355
      4          1           0       -3.236127   -0.313733    0.543567
      5          6           0       -1.210070   -0.302868   -0.032165
      6          8           0       -0.162845    0.671681   -0.560174
      7          8           0       -0.342267   -0.993631    1.259805
      8          1           0       -0.896427   -1.733899    1.642988
      9          8           0       -1.386385   -1.223825   -1.029647
     10          1           0       -0.639996   -1.847564   -1.032804
     11          6           0       -0.013587    1.980573    0.092491
     12          1           0        0.886460    2.417760   -0.338680
     13          1           0       -0.885848    2.579929   -0.159267
     14          1           0        0.092246    1.839460    1.170828
     15          1           0        0.782462    0.161912   -0.519189
     16          6           0        3.166055    0.038669    0.055798
     17          1           0        3.457935    0.609986   -0.827097
     18          1           0        3.940291   -0.696910    0.293668
     19          1           0        3.013375    0.710148    0.906700
     20          8           0        1.937799   -0.648822   -0.277434
     21          1           0        1.584740   -1.118248    0.523878
 ---------------------------------------------------------------------
                    Distance matrix (angstroms):
                    1          2          3          4          5
     1  C    0.000000
     2  H    1.107330   0.000000
     3  H    1.090648   1.791317   0.000000
     4  H    1.092999   1.785476   1.770082   0.000000
     5  C    1.495590   2.151966   2.158817   2.106298   0.000000
     6  O    2.472853   2.696327   2.789489   3.410916   1.524867
     7  O    2.758710   3.700537   2.953359   3.057725   1.702769
     8  H    3.018114   4.034141   3.282235   2.949541   2.225390
     9  O    2.361599   2.650065   3.314323   2.593225   1.369021
    10  H    3.198084   3.586893   4.045962   3.402570   1.926746
    11  C    2.923908   3.098129   2.691912   3.981466   2.580933
    12  H    3.960325   4.016843   3.776976   5.023459   3.448363
    13  H    2.714550   2.588626   2.410408   3.793556   2.903755
    14  H    3.078242   3.563403   2.567063   4.013448   2.780789
    15  H    3.367663   3.713461   3.669293   4.183867   2.103187
    16  C    5.667062   6.118977   5.740861   6.430400   4.390314
    17  H    6.042837   6.312659   6.157945   6.895103   4.822395
    18  H    6.521966   7.044770   6.623628   7.190984   5.175679
    19  H    5.543382   6.063711   5.408742   6.343223   4.443552
    20  O    4.581785   5.056472   4.860878   5.249365   3.176306
    21  H    4.360251   5.027917   4.591907   4.887575   2.963949
                    6          7          8          9         10
     6  O    0.000000
     7  O    2.473415   0.000000
     8  H    3.343483   1.000959   0.000000
     9  O    2.304430   2.526809   2.764636   0.000000
    10  H    2.607230   2.464528   2.690453   0.972706   0.000000
    11  C    1.470186   3.211937   4.120771   3.662231   4.038974
    12  H    2.049120   3.962640   4.933758   4.347919   4.583106
    13  H    2.079632   3.883243   4.675184   3.934036   4.519536
    14  H    2.103603   2.867599   3.737553   4.051192   4.357329
    15  H    1.074779   2.401065   3.329831   2.623877   2.514991
    16  C    3.444082   3.850143   4.707964   4.847349   4.385083
    17  H    3.631130   4.622584   5.527711   5.183756   4.782772
    18  H    4.408833   4.400201   5.127363   5.513826   4.905360
    19  H    3.498796   3.779931   4.669265   5.181465   4.863197
    20  O    2.497274   2.771407   3.591413   3.456393   2.941529
    21  H    2.726365   2.066513   2.790631   3.354425   2.811514
                   11         12         13         14         15
    11  C    0.000000
    12  H    1.089553   0.000000
    13  H    1.087864   1.788732   0.000000
    14  H    1.092668   1.801061   1.809452   0.000000
    15  H    2.077348   2.265447   2.959664   2.479259   0.000000
    16  C    3.725917   3.318470   4.787711   3.732887   2.455059
    17  H    3.843906   3.181050   4.816132   4.102581   2.730153
    18  H    4.779387   4.407598   5.851021   4.691485   3.371972
    19  H    3.382220   2.998446   4.453797   3.142945   2.703830
    20  O    3.295219   3.242374   4.290895   3.419806   1.431970
    21  H    3.513323   3.706070   4.499667   3.375518   1.835878
                   16         17         18         19         20
    16  C    0.000000
    17  H    1.091376   0.000000
    18  H    1.094121   1.787948   0.000000
    19  H    1.094637   1.792685   1.792985   0.000000
    20  O    1.446479   2.048790   2.082893   2.099008   0.000000
    21  H    2.014476   2.884577   2.403985   2.351719   0.993535
                   21
    21  H    0.000000
 Stoichiometry    C4H13O4(1+)
 Framework group  C1[X(C4H13O4)]
 Deg. of freedom    57
 Full point group                 C1      NOp   1
 Largest Abelian subgroup         C1      NOp   1
 Largest concise Abelian subgroup C1      NOp   1
                         Standard orientation:                         
 ---------------------------------------------------------------------
 Center     Atomic      Atomic             Coordinates (Angstroms)
 Number     Number       Type             X           Y           Z
 ---------------------------------------------------------------------
      1          6           0       -2.484263    0.425449    0.255542
      2          1           0       -2.842614    0.957020   -0.647340
      3          1           0       -2.375716    1.139975    1.072355
      4          1           0       -3.236127   -0.313733    0.543567
      5          6           0       -1.210070   -0.302868   -0.032165
      6          8           0       -0.162845    0.671681   -0.560174
      7          8           0       -0.342267   -0.993631    1.259805
      8          1           0       -0.896427   -1.733899    1.642988
      9          8           0       -1.386385   -1.223825   -1.029647
     10          1           0       -0.639996   -1.847564   -1.032804
     11          6           0       -0.013587    1.980573    0.092491
     12          1           0        0.886460    2.417760   -0.338680
     13          1           0       -0.885848    2.579929   -0.159267
     14          1           0        0.092246    1.839460    1.170828
     15          1           0        0.782462    0.161912   -0.519189
     16          6           0        3.166055    0.038669    0.055798
     17          1           0        3.457935    0.609986   -0.827097
     18          1           0        3.940291   -0.696910    0.293668
     19          1           0        3.013375    0.710148    0.906700
     20          8           0        1.937799   -0.648822   -0.277434
     21          1           0        1.584740   -1.118248    0.523878
 ---------------------------------------------------------------------
 Rotational constants (GHZ):      2.6576266      1.1725960      1.0036838
 Standard basis: 6-31+G(d) (6D, 7F)
 There are   178 symmetry adapted cartesian basis functions of A   symmetry.
 There are   178 symmetry adapted basis functions of A   symmetry.
   178 basis functions,   308 primitive gaussians,   178 cartesian basis functions
    34 alpha electrons       34 beta electrons
       nuclear repulsion energy       450.4867418331 Hartrees.
 NAtoms=   21 NActive=   21 NUniq=   21 SFac= 1.00D+00 NAtFMM=   60 NAOKFM=F Big=F
 Integral buffers will be    131072 words long.
 Raffenetti 2 integral format.
 Two-electron integral symmetry is turned on.
 Force inversion solution in PCM.
 ------------------------------------------------------------------------------
 Polarizable Continuum Model (PCM)
 =================================
 Model                : PCM (using non-symmetric T matrix).
 Atomic radii         : SMD-Coulomb.
 Polarization charges : Total charges.
 Charge compensation  : None.
 Solution method      : Matrix inversion.
 Cavity type          : VdW (van der Waals Surface) (Alpha=1.000).
 Cavity algorithm     : GePol (No added spheres)
                        Default sphere list used, NSphG=   21.
                        Lebedev-Laikov grids with approx.  5.0 points / Ang**2.
                        Smoothing algorithm: Karplus/York (Gamma=1.0000).
                        Polarization charges: spherical gaussians, with
                                              point-specific exponents (IZeta= 3).
                        Self-potential: point-specific (ISelfS= 7).
                        Self-field    : sphere-specific E.n sum rule (ISelfD= 2).
 1st derivatives      : Analytical E(r).r(x)/FMM algorithm (CHGder, D1EAlg=3).
                        Cavity 1st derivative terms included.
 2nd derivatives      : Analytical E(r).r(xy)/FMM algorithm (CHGder, D2EAlg=3).
                        Cavity 2nd derivative terms included.
 Solvent              : Methanol, Eps=  32.613000 Eps(inf)=   1.765709
 ------------------------------------------------------------------------------
 ------------------------------------------------------------------------------
 Atomic radii for non-electrostatic terms: SMD-CDS.
 ------------------------------------------------------------------------------
 Nuclear repulsion after PCM non-electrostatic terms =      450.4910068034 Hartrees.
 One-electron integrals computed using PRISM.
 NBasis=   178 RedAO= T EigKep=  5.89D-05  NBF=   178
 NBsUse=   178 1.00D-06 EigRej= -1.00D+00 NBFU=   178
 ExpMin= 4.38D-02 ExpMax= 5.48D+03 ExpMxC= 8.25D+02 IAcc=2 IRadAn=         4 AccDes= 0.00D+00
 Harris functional with IExCor= 3102 and IRadAn=       4 diagonalized for initial guess.
 HarFok:  IExCor= 3102 AccDes= 0.00D+00 IRadAn=         4 IDoV= 1 UseB2=F ITyADJ=14
 ICtDFT=  3500011 ScaDFX=  1.000000  1.000000  1.000000  1.000000
 FoFCou: FMM=F IPFlag=           0 FMFlag=      100000 FMFlg1=           0
         NFxFlg=           0 DoJE=T BraDBF=F KetDBF=T FulRan=T
         wScrn=  0.000000 ICntrl=     500 IOpCl=  0 I1Cent=   200000004 NGrid=           0
         NMat0=    1 NMatS0=      1 NMatT0=    0 NMatD0=    1 NMtDS0=    0 NMtDT0=    0
 Petite list used in FoFCou.
 Requested convergence on RMS density matrix=1.00D-08 within 128 cycles.
 Requested convergence on MAX density matrix=1.00D-06.
 Requested convergence on             energy=1.00D-06.
 No special actions if energy rises.
 Inv3:  Mode=1 IEnd=     6351075.
 Iteration    1 A*A^-1 deviation from unit magnitude is 5.11D-15 for   1446.
 Iteration    1 A*A^-1 deviation from orthogonality  is 4.07D-15 for   1304    377.
 Iteration    1 A^-1*A deviation from unit magnitude is 5.33D-15 for   1446.
 Iteration    1 A^-1*A deviation from orthogonality  is 3.85D-11 for   1447   1426.
 Error on total polarization charges =  0.04554
 SCF Done:  E(RX3LYP) =  -460.760088069     A.U. after   12 cycles
            NFock= 12  Conv=0.88D-08     -V/T= 2.0102
 SMD-CDS (non-electrostatic) energy       (kcal/mol) =       2.68
 (included in total energy above)
 DoSCS=F DFT=T ScalE2(SS,OS)=  1.000000  1.000000
 Range of M.O.s used for correlation:     1   178
 NBasis=   178 NAE=    34 NBE=    34 NFC=     0 NFV=     0
 NROrb=    178 NOA=    34 NOB=    34 NVA=   144 NVB=   144

 **** Warning!!: The largest alpha MO coefficient is  0.34579995D+02

 Symmetrizing basis deriv contribution to polar:
 IMax=3 JMax=2 DiffMx= 0.00D+00
 G2DrvN: will do    22 centers at a time, making    1 passes.
 Calling FoFCou, ICntrl=  3107 FMM=F I1Cent=   0 AccDes= 0.00D+00.
 NEqPCM:  Using equilibrium solvation (IEInf=0, Eps=  32.6130, EpsInf=   1.7657)
 G2PCM: DoFxE=T DoFxN=T DoGrad=T DoDP/DQ/DG/TGxP=FFFF NFrqRd=   0 IEInf=0 SqF1=F DoCFld=F IF1Alg=4.
 End of G2Drv F.D. properties file   721 does not exist.
 End of G2Drv F.D. properties file   722 does not exist.
 End of G2Drv F.D. properties file   788 does not exist.
          IDoAtm=111111111111111111111
 NEqPCM:  Using equilibrium solvation (IEInf=0, Eps=  32.6130, EpsInf=   1.7657)
          Differentiating once with respect to electric field.
                with respect to dipole field.
          Differentiating once with respect to nuclear coordinates.
          There are    66 degrees of freedom in the 1st order CPHF.  IDoFFX=6 NUNeed=     3.
     63 vectors produced by pass  0 Test12= 7.42D-15 1.52D-09 XBig12= 4.05D+01 1.49D+00.
 AX will form    63 AO Fock derivatives at one time.
     63 vectors produced by pass  1 Test12= 7.42D-15 1.52D-09 XBig12= 2.30D+00 2.47D-01.
     63 vectors produced by pass  2 Test12= 7.42D-15 1.52D-09 XBig12= 1.85D-02 1.78D-02.
     63 vectors produced by pass  3 Test12= 7.42D-15 1.52D-09 XBig12= 3.73D-05 8.47D-04.
     63 vectors produced by pass  4 Test12= 7.42D-15 1.52D-09 XBig12= 4.83D-08 2.43D-05.
     37 vectors produced by pass  5 Test12= 7.42D-15 1.52D-09 XBig12= 4.77D-11 6.41D-07.
      3 vectors produced by pass  6 Test12= 7.42D-15 1.52D-09 XBig12= 4.78D-14 1.96D-08.
      1 vectors produced by pass  7 Test12= 7.42D-15 1.52D-09 XBig12= 1.78D-16 2.08D-09.
 InvSVY:  IOpt=1 It=  1 EMax= 6.22D-15
 Solved reduced A of dimension   356 with    66 vectors.
 Isotropic polarizability for W=    0.000000       92.84 Bohr**3.
 End of Minotr F.D. properties file   721 does not exist.
 End of Minotr F.D. properties file   722 does not exist.
 End of Minotr F.D. properties file   788 does not exist.

 **********************************************************************

            Population analysis using the SCF density.

 **********************************************************************

 Orbital symmetries:
       Occupied  (A) (A) (A) (A) (A) (A) (A) (A) (A) (A) (A) (A)
                 (A) (A) (A) (A) (A) (A) (A) (A) (A) (A) (A) (A)
                 (A) (A) (A) (A) (A) (A) (A) (A) (A) (A)
       Virtual   (A) (A) (A) (A) (A) (A) (A) (A) (A) (A) (A) (A)
                 (A) (A) (A) (A) (A) (A) (A) (A) (A) (A) (A) (A)
                 (A) (A) (A) (A) (A) (A) (A) (A) (A) (A) (A) (A)
                 (A) (A) (A) (A) (A) (A) (A) (A) (A) (A) (A) (A)
                 (A) (A) (A) (A) (A) (A) (A) (A) (A) (A) (A) (A)
                 (A) (A) (A) (A) (A) (A) (A) (A) (A) (A) (A) (A)
                 (A) (A) (A) (A) (A) (A) (A) (A) (A) (A) (A) (A)
                 (A) (A) (A) (A) (A) (A) (A) (A) (A) (A) (A) (A)
                 (A) (A) (A) (A) (A) (A) (A) (A) (A) (A) (A) (A)
                 (A) (A) (A) (A) (A) (A) (A) (A) (A) (A) (A) (A)
                 (A) (A) (A) (A) (A) (A) (A) (A) (A) (A) (A) (A)
                 (A) (A) (A) (A) (A) (A) (A) (A) (A) (A) (A) (A)
 The electronic state is 1-A.
 Alpha  occ. eigenvalues --  -19.30010 -19.24997 -19.23317 -19.22735 -10.43166
 Alpha  occ. eigenvalues --  -10.28203 -10.26064 -10.23045  -1.15487  -1.09247
 Alpha  occ. eigenvalues --   -1.06072  -0.99854  -0.79972  -0.74824  -0.70628
 Alpha  occ. eigenvalues --   -0.64879  -0.60784  -0.58250  -0.53674  -0.53406
 Alpha  occ. eigenvalues --   -0.49069  -0.47188  -0.46382  -0.45676  -0.45597
 Alpha  occ. eigenvalues --   -0.43368  -0.42042  -0.41597  -0.38829  -0.37817
 Alpha  occ. eigenvalues --   -0.37097  -0.35693  -0.33124  -0.32099
 Alpha virt. eigenvalues --   -0.01930   0.00586   0.01511   0.02374   0.03289
 Alpha virt. eigenvalues --    0.03741   0.04531   0.04944   0.06245   0.06912
 Alpha virt. eigenvalues --    0.07414   0.08049   0.08410   0.09330   0.10703
 Alpha virt. eigenvalues --    0.12028   0.12903   0.13258   0.14744   0.15549
 Alpha virt. eigenvalues --    0.16686   0.16766   0.17497   0.18561   0.19311
 Alpha virt. eigenvalues --    0.20766   0.21187   0.21701   0.22277   0.22496
 Alpha virt. eigenvalues --    0.23804   0.24910   0.25214   0.25391   0.26172
 Alpha virt. eigenvalues --    0.27699   0.27999   0.28371   0.29124   0.30151
 Alpha virt. eigenvalues --    0.31650   0.32107   0.32737   0.34245   0.35015
 Alpha virt. eigenvalues --    0.35368   0.37769   0.38602   0.40284   0.43366
 Alpha virt. eigenvalues --    0.49531   0.61227   0.64683   0.65410   0.66344
 Alpha virt. eigenvalues --    0.68039   0.69163   0.71736   0.74113   0.75763
 Alpha virt. eigenvalues --    0.77710   0.81193   0.85659   0.90843   0.93112
 Alpha virt. eigenvalues --    0.95271   0.98237   0.98529   1.00466   1.01679
 Alpha virt. eigenvalues --    1.05535   1.07308   1.08124   1.09149   1.09732
 Alpha virt. eigenvalues --    1.12705   1.13886   1.15466   1.19314   1.19893
 Alpha virt. eigenvalues --    1.21049   1.23203   1.25020   1.27586   1.28907
 Alpha virt. eigenvalues --    1.29501   1.31504   1.34988   1.36808   1.41317
 Alpha virt. eigenvalues --    1.44521   1.46139   1.46599   1.54159   1.55214
 Alpha virt. eigenvalues --    1.56810   1.58607   1.60595   1.66021   1.68989
 Alpha virt. eigenvalues --    1.73206   1.74636   1.75361   1.77846   1.78843
 Alpha virt. eigenvalues --    1.82683   1.86404   1.88544   1.98364   1.98866
 Alpha virt. eigenvalues --    2.01868   2.02378   2.06345   2.11137   2.12194
 Alpha virt. eigenvalues --    2.15981   2.18341   2.20101   2.24029   2.27063
 Alpha virt. eigenvalues --    2.31454   2.32260   2.35261   2.36851   2.39242
 Alpha virt. eigenvalues --    2.46580   2.49168   2.52505   2.58151   2.60460
 Alpha virt. eigenvalues --    2.69509   2.76142   2.84369   2.85721   2.87793
 Alpha virt. eigenvalues --    2.97763   4.11465   4.15528   4.18974   4.22207
 Alpha virt. eigenvalues --    4.31964   4.33764   4.40872   4.55769
          Condensed to atoms (all electrons):
               1          2          3          4          5          6
     1  C    6.391246   0.397540   0.371559   0.379149  -0.558444  -0.130592
     2  H    0.397540   0.420475  -0.022303  -0.019587  -0.066366   0.002347
     3  H    0.371559  -0.022303   0.430157  -0.020077  -0.033825  -0.005882
     4  H    0.379149  -0.019587  -0.020077   0.421835  -0.037320   0.007082
     5  C   -0.558444  -0.066366  -0.033825  -0.037320   5.619859   0.116630
     6  O   -0.130592   0.002347  -0.005882   0.007082   0.116630   8.785045
     7  O   -0.138524   0.005562  -0.002765  -0.004016   0.341356  -0.108809
     8  H   -0.011777  -0.000045   0.000001   0.000435   0.021012   0.005747
     9  O   -0.126462  -0.002675   0.007230  -0.004929   0.322268  -0.100037
    10  H    0.033500  -0.000013  -0.000179  -0.000027  -0.024126  -0.006295
    11  C    0.025054  -0.003182   0.001753   0.000795  -0.125159   0.031627
    12  H    0.000675  -0.000009   0.000156  -0.000003   0.003629  -0.032505
    13  H    0.013157  -0.000037  -0.002391   0.000066  -0.021361  -0.028492
    14  H   -0.009848   0.000191  -0.000116  -0.000003  -0.004172  -0.050403
    15  H    0.008612   0.000046  -0.000076  -0.000070  -0.003099   0.035850
    16  C   -0.003806   0.000024  -0.000096  -0.000011  -0.003498   0.013785
    17  H    0.000213   0.000000   0.000000   0.000000  -0.000070  -0.000155
    18  H   -0.000137   0.000000   0.000000   0.000000  -0.000693  -0.000779
    19  H   -0.000151   0.000000   0.000000   0.000000  -0.000662   0.001070
    20  O    0.000452   0.000179  -0.000083   0.000002   0.001037  -0.059882
    21  H    0.002827  -0.000006   0.000004   0.000000   0.000405   0.001210
               7          8          9         10         11         12
     1  C   -0.138524  -0.011777  -0.126462   0.033500   0.025054   0.000675
     2  H    0.005562  -0.000045  -0.002675  -0.000013  -0.003182  -0.000009
     3  H   -0.002765   0.000001   0.007230  -0.000179   0.001753   0.000156
     4  H   -0.004016   0.000435  -0.004929  -0.000027   0.000795  -0.000003
     5  C    0.341356   0.021012   0.322268  -0.024126  -0.125159   0.003629
     6  O   -0.108809   0.005747  -0.100037  -0.006295   0.031627  -0.032505
     7  O    8.532754   0.183487  -0.046389  -0.003932   0.005032   0.000025
     8  H    0.183487   0.261136  -0.003802  -0.000180  -0.000339   0.000003
     9  O   -0.046389  -0.003802   8.388401   0.194522   0.001738  -0.000165
    10  H   -0.003932  -0.000180   0.194522   0.233490  -0.000560  -0.000002
    11  C    0.005032  -0.000339   0.001738  -0.000560   5.320336   0.378857
    12  H    0.000025   0.000003  -0.000165  -0.000002   0.378857   0.426681
    13  H   -0.000866   0.000000  -0.000777   0.000003   0.387734  -0.019559
    14  H    0.008249  -0.000117   0.000550  -0.000010   0.393389  -0.022572
    15  H    0.005235   0.000013   0.003155   0.000998   0.000766  -0.000937
    16  C   -0.000934  -0.000165   0.000501  -0.000190  -0.007921  -0.000821
    17  H   -0.000121   0.000000  -0.000051   0.000001  -0.002136   0.000065
    18  H    0.000153   0.000001   0.000024  -0.000001   0.001561   0.000011
    19  H    0.000829  -0.000006  -0.000007   0.000003  -0.000464  -0.000132
    20  O   -0.019658   0.000657   0.010520   0.000656   0.000331  -0.000457
    21  H    0.022775  -0.000545  -0.003138   0.000507  -0.002125   0.000023
              13         14         15         16         17         18
     1  C    0.013157  -0.009848   0.008612  -0.003806   0.000213  -0.000137
     2  H   -0.000037   0.000191   0.000046   0.000024   0.000000   0.000000
     3  H   -0.002391  -0.000116  -0.000076  -0.000096   0.000000   0.000000
     4  H    0.000066  -0.000003  -0.000070  -0.000011   0.000000   0.000000
     5  C   -0.021361  -0.004172  -0.003099  -0.003498  -0.000070  -0.000693
     6  O   -0.028492  -0.050403   0.035850   0.013785  -0.000155  -0.000779
     7  O   -0.000866   0.008249   0.005235  -0.000934  -0.000121   0.000153
     8  H    0.000000  -0.000117   0.000013  -0.000165   0.000000   0.000001
     9  O   -0.000777   0.000550   0.003155   0.000501  -0.000051   0.000024
    10  H    0.000003  -0.000010   0.000998  -0.000190   0.000001  -0.000001
    11  C    0.387734   0.393389   0.000766  -0.007921  -0.002136   0.001561
    12  H   -0.019559  -0.022572  -0.000937  -0.000821   0.000065   0.000011
    13  H    0.426113  -0.025802   0.001180   0.000635   0.000001   0.000000
    14  H   -0.025802   0.435569  -0.000755  -0.000944   0.000022  -0.000001
    15  H    0.001180  -0.000755   0.201376  -0.015612  -0.001510   0.001270
    16  C    0.000635  -0.000944  -0.015612   5.146173   0.397985   0.387666
    17  H    0.000001   0.000022  -0.001510   0.397985   0.466147  -0.025093
    18  H    0.000000  -0.000001   0.001270   0.387666  -0.025093   0.484305
    19  H    0.000010  -0.000033   0.000112   0.402571  -0.028431  -0.029723
    20  O   -0.000044   0.000318   0.118707   0.080317  -0.043113  -0.040434
    21  H   -0.000002   0.000073  -0.007868  -0.018717   0.003447  -0.003454
              19         20         21
     1  C   -0.000151   0.000452   0.002827
     2  H    0.000000   0.000179  -0.000006
     3  H    0.000000  -0.000083   0.000004
     4  H    0.000000   0.000002   0.000000
     5  C   -0.000662   0.001037   0.000405
     6  O    0.001070  -0.059882   0.001210
     7  O    0.000829  -0.019658   0.022775
     8  H   -0.000006   0.000657  -0.000545
     9  O   -0.000007   0.010520  -0.003138
    10  H    0.000003   0.000656   0.000507
    11  C   -0.000464   0.000331  -0.002125
    12  H   -0.000132  -0.000457   0.000023
    13  H    0.000010  -0.000044  -0.000002
    14  H   -0.000033   0.000318   0.000073
    15  H    0.000112   0.118707  -0.007868
    16  C    0.402571   0.080317  -0.018717
    17  H   -0.028431  -0.043113   0.003447
    18  H   -0.029723  -0.040434  -0.003454
    19  H    0.495871  -0.064492  -0.002141
    20  O   -0.064492   8.647447   0.190452
    21  H   -0.002141   0.190452   0.229367
 Mulliken charges:
               1
     1  C   -0.644245
     2  H    0.287859
     3  H    0.276932
     4  H    0.276680
     5  C    0.452600
     6  O   -0.476563
     7  O   -0.779446
     8  H    0.544483
     9  O   -0.640479
    10  H    0.571833
    11  C   -0.407089
    12  H    0.267035
    13  H    0.270431
    14  H    0.276413
    15  H    0.652605
    16  C   -0.376942
    17  H    0.232799
    18  H    0.225323
    19  H    0.225776
    20  O   -0.822912
    21  H    0.586907
 Sum of Mulliken charges =   1.00000
 Mulliken charges with hydrogens summed into heavy atoms:
               1
     1  C    0.197225
     5  C    0.452600
     6  O    0.176042
     7  O   -0.234962
     9  O   -0.068646
    11  C    0.406790
    16  C    0.306956
    20  O   -0.236005
 APT charges:
               1
     1  C   -0.218466
     2  H    0.066536
     3  H    0.071339
     4  H    0.069990
     5  C    2.008705
     6  O   -1.276673
     7  O   -0.992117
     8  H    0.355806
     9  O   -1.021434
    10  H    0.438245
    11  C    0.483781
    12  H    0.048605
    13  H    0.050055
    14  H    0.033416
    15  H    0.909545
    16  C    0.567764
    17  H    0.012334
    18  H   -0.019897
    19  H   -0.023286
    20  O   -1.038391
    21  H    0.474143
 Sum of APT charges =   1.00000
 APT charges with hydrogens summed into heavy atoms:
               1
     1  C   -0.010601
     5  C    2.008705
     6  O   -0.367129
     7  O   -0.636310
     9  O   -0.583189
    11  C    0.615857
    16  C    0.536916
    20  O   -0.564248
 Electronic spatial extent (au):  <R**2>=           1272.2082
 Charge=              1.0000 electrons
 Dipole moment (field-independent basis, Debye):
    X=              0.5955    Y=              1.4343    Z=              2.0317  Tot=              2.5573
 Quadrupole moment (field-independent basis, Debye-Ang):
   XX=            -30.4423   YY=            -33.6697   ZZ=            -49.7497
   XY=              0.4762   XZ=             -2.2378   YZ=             -2.8725
 Traceless Quadrupole moment (field-independent basis, Debye-Ang):
   XX=              7.5116   YY=              4.2842   ZZ=            -11.7958
   XY=              0.4762   XZ=             -2.2378   YZ=             -2.8725
 Octapole moment (field-independent basis, Debye-Ang**2):
  XXX=             20.4178  YYY=             -5.6758  ZZZ=              2.7841  XYY=             -3.7571
  XXY=              6.4110  XXZ=             11.9233  XZZ=              0.7214  YZZ=             -6.3188
  YYZ=              5.2793  XYZ=              2.2826
 Hexadecapole moment (field-independent basis, Debye-Ang**3):
 XXXX=           -854.3562 YYYY=           -305.6455 ZZZZ=           -187.1281 XXXY=             -9.3791
 XXXZ=             -4.2637 YYYX=              7.3991 YYYZ=             -9.6245 ZZZX=             -8.5961
 ZZZY=             -9.4545 XXYY=           -223.8953 XXZZ=           -199.9063 YYZZ=            -73.6720
 XXYZ=            -24.5435 YYXZ=             -6.4279 ZZXY=              6.0753
 N-N= 4.504910068034D+02 E-N=-1.965928382041D+03  KE= 4.561176253986D+02
  Exact polarizability:  97.180  -0.831  93.321   4.290  -3.238  88.019
 Approx polarizability:  92.032  -0.826  90.009   5.320  -3.814  89.200
 D2PCM: PCM CHGder 2nd derivatives, FixD1E=F FixD2E=F DoIter=F DoCFld=F I1PDM=0
 Calling FoFJK, ICntrl=    100127 FMM=F ISym2X=0 I1Cent= 0 IOpClX= 0 NMat=1 NMatS=1 NMatT=0.
 Full mass-weighted force constant matrix:
 Low frequencies --- -193.9194   -0.0007    0.0005    0.0008   15.0575   55.8854
 Low frequencies ---   72.1432  111.1174  120.6036
 ******    1 imaginary frequencies (negative Signs) ****** 
 Diagonal vibrational polarizability:
      273.3868441     150.2088021     260.5448893
 Harmonic frequencies (cm**-1), IR intensities (KM/Mole), Raman scattering
 activities (A**4/AMU), depolarization ratios for plane and unpolarized
 incident light, reduced masses (AMU), force constants (mDyne/A),
 and normal coordinates:
                      1                      2                      3
                      A                      A                      A
 Frequencies --   -191.1224               108.5454               112.6199
 Red. masses --      2.8617                 2.8971                 3.7375
 Frc consts  --      0.0616                 0.0201                 0.0279
 IR Inten    --    319.7354                23.6934                 4.4286
  Atom  AN      X      Y      Z        X      Y      Z        X      Y      Z
     1   6    -0.01   0.02  -0.03     0.05  -0.04   0.10    -0.05  -0.05  -0.18
     2   1    -0.04   0.08   0.02    -0.03  -0.05   0.12     0.01  -0.12  -0.25
     3   1     0.01  -0.03   0.01     0.08  -0.03   0.09    -0.20   0.02  -0.22
     4   1     0.02  -0.01  -0.06     0.09  -0.06   0.15    -0.03  -0.09  -0.22
     5   6    -0.01   0.09  -0.14     0.05   0.00   0.02     0.04   0.04  -0.01
     6   8     0.02  -0.04  -0.01    -0.02   0.05  -0.05    -0.01   0.09   0.05
     7   8     0.18  -0.09   0.19     0.11   0.03  -0.04     0.04   0.09   0.11
     8   1     0.17  -0.13   0.09     0.13   0.02  -0.02     0.04   0.10   0.12
     9   8    -0.04   0.03  -0.03     0.04   0.00   0.02     0.22  -0.04   0.03
    10   1     0.34   0.49  -0.60    -0.02  -0.07   0.10     0.09  -0.20   0.42
    11   6    -0.01  -0.02  -0.04    -0.05   0.07  -0.08    -0.05   0.04   0.16
    12   1     0.00  -0.04  -0.03    -0.06   0.08  -0.08    -0.05   0.09   0.23
    13   1    -0.01  -0.02  -0.08    -0.07   0.04  -0.11    -0.06   0.05   0.18
    14   1    -0.04   0.00  -0.03    -0.06   0.10  -0.08    -0.09  -0.04   0.15
    15   1     0.13  -0.09   0.05    -0.02   0.09  -0.12     0.01   0.08   0.00
    16   6    -0.06  -0.01   0.01    -0.12  -0.08   0.22    -0.04  -0.14  -0.12
    17   1    -0.05  -0.05  -0.01     0.05   0.11   0.40    -0.01  -0.18  -0.13
    18   1    -0.11  -0.06   0.00    -0.14  -0.11   0.23    -0.12  -0.22  -0.13
    19   1    -0.02   0.00   0.00    -0.30  -0.26   0.33     0.04  -0.12  -0.12
    20   8    -0.11   0.04   0.04    -0.03  -0.04  -0.17    -0.12  -0.02  -0.08
    21   1    -0.15   0.05   0.04    -0.19  -0.13  -0.29    -0.13  -0.01  -0.08
                      4                      5                      6
                      A                      A                      A
 Frequencies --    136.4857               171.5060               183.0583
 Red. masses --      2.0044                 1.4690                 1.7296
 Frc consts  --      0.0220                 0.0255                 0.0341
 IR Inten    --      7.8828                40.4097                42.3958
  Atom  AN      X      Y      Z        X      Y      Z        X      Y      Z
     1   6     0.01   0.09  -0.07     0.04   0.01   0.04    -0.05  -0.01  -0.04
     2   1     0.06   0.07  -0.10     0.00   0.01   0.05    -0.01   0.00  -0.05
     3   1     0.02   0.12  -0.10     0.09   0.03   0.02    -0.09  -0.02  -0.03
     4   1    -0.03   0.13  -0.06     0.05   0.02   0.08    -0.06  -0.02  -0.08
     5   6    -0.01   0.03  -0.03     0.02   0.01  -0.03    -0.04  -0.01   0.01
     6   8     0.02  -0.06  -0.01    -0.01   0.01  -0.05    -0.03   0.00  -0.02
     7   8     0.02  -0.04   0.05     0.05  -0.04  -0.04    -0.02   0.06   0.04
     8   1    -0.01  -0.01   0.06     0.05  -0.03  -0.03     0.00   0.04   0.03
     9   8    -0.02  -0.03   0.03     0.00  -0.01  -0.02    -0.03  -0.02   0.03
    10   1    -0.22  -0.27   0.34    -0.25  -0.31   0.34     0.19   0.25  -0.28
    11   6     0.11  -0.10   0.05     0.04  -0.03   0.02     0.07  -0.04   0.07
    12   1     0.15  -0.14   0.09     0.01  -0.01  -0.03     0.00  -0.01  -0.02
    13   1     0.16  -0.01   0.08     0.03  -0.01   0.12     0.03  -0.03   0.24
    14   1     0.09  -0.16   0.05     0.12  -0.09   0.00     0.21  -0.14   0.05
    15   1     0.04  -0.12  -0.03     0.02  -0.01  -0.05    -0.09   0.01  -0.11
    16   6    -0.10   0.14   0.03    -0.04   0.01   0.01    -0.01   0.05   0.04
    17   1    -0.26   0.42   0.16     0.19  -0.36  -0.15     0.25  -0.23  -0.06
    18   1     0.03   0.20  -0.23    -0.20  -0.02   0.41    -0.07   0.13   0.49
    19   1    -0.16  -0.13   0.22    -0.08   0.34  -0.26    -0.24   0.31  -0.21
    20   8    -0.01   0.01  -0.07    -0.08   0.06   0.05     0.09  -0.06  -0.11
    21   1     0.01  -0.07  -0.11    -0.13   0.13   0.08     0.05  -0.04  -0.12
                      7                      8                      9
                      A                      A                      A
 Frequencies --    198.3469               211.9927               242.3071
 Red. masses --      3.3067                 2.1143                 1.3169
 Frc consts  --      0.0766                 0.0560                 0.0456
 IR Inten    --     19.8259                 3.6654                20.6987
  Atom  AN      X      Y      Z        X      Y      Z        X      Y      Z
     1   6     0.06  -0.06   0.05    -0.02  -0.07   0.03     0.03  -0.01   0.02
     2   1     0.04  -0.05   0.07    -0.09  -0.09   0.04    -0.01  -0.04   0.01
     3   1     0.06  -0.09   0.07    -0.02  -0.06   0.02     0.06   0.03  -0.01
     4   1     0.08  -0.09   0.04     0.03  -0.11   0.07     0.05   0.00   0.09
     5   6     0.08  -0.03   0.06     0.00  -0.02  -0.01     0.03  -0.01   0.00
     6   8     0.07   0.01   0.05    -0.05   0.03  -0.12     0.01  -0.01  -0.04
     7   8    -0.06   0.04  -0.06     0.02   0.12  -0.06     0.01   0.08  -0.05
     8   1    -0.05   0.03  -0.07     0.07   0.09  -0.04     0.05   0.07  -0.03
     9   8     0.11   0.04  -0.04    -0.01  -0.04   0.02    -0.02  -0.02   0.02
    10   1     0.26   0.22  -0.26     0.14   0.15  -0.20     0.08   0.11  -0.16
    11   6     0.08   0.04  -0.03     0.11  -0.07   0.05    -0.01  -0.06   0.06
    12   1     0.00   0.07  -0.18    -0.03   0.02  -0.14     0.29  -0.23   0.51
    13   1     0.01  -0.02   0.05     0.02  -0.05   0.42     0.23   0.13  -0.34
    14   1     0.22   0.11  -0.04     0.43  -0.25   0.00    -0.54  -0.10   0.10
    15   1     0.05  -0.09   0.08    -0.06   0.02  -0.12     0.02  -0.02  -0.02
    16   6    -0.23   0.11  -0.07     0.02  -0.05   0.03    -0.02   0.01  -0.01
    17   1    -0.41   0.07  -0.16    -0.11   0.15   0.11     0.00  -0.04  -0.03
    18   1    -0.06   0.30  -0.04     0.04  -0.13  -0.28    -0.03   0.01   0.04
    19   1    -0.32   0.17  -0.14     0.18  -0.24   0.21    -0.02   0.04  -0.04
    20   8    -0.11  -0.17   0.07    -0.06   0.07   0.08    -0.02   0.00   0.01
    21   1    -0.05  -0.09   0.15    -0.11   0.13   0.09    -0.03   0.02   0.02
                     10                     11                     12
                      A                      A                      A
 Frequencies --    264.5304               274.2500               332.8857
 Red. masses --      3.5595                 2.0264                 1.3234
 Frc consts  --      0.1468                 0.0898                 0.0864
 IR Inten    --    154.5554               137.5514                51.9395
  Atom  AN      X      Y      Z        X      Y      Z        X      Y      Z
     1   6     0.01   0.07  -0.02     0.11   0.09  -0.03     0.03   0.01  -0.01
     2   1     0.06   0.19   0.03     0.36   0.40   0.06    -0.25  -0.41  -0.14
     3   1     0.00  -0.04   0.07     0.04  -0.18   0.21     0.12   0.37  -0.33
     4   1    -0.03   0.06  -0.15    -0.06   0.11  -0.41     0.19   0.05   0.51
     5   6    -0.02   0.04  -0.08     0.08  -0.01   0.03     0.03   0.02  -0.02
     6   8    -0.02   0.06  -0.10     0.07  -0.08   0.02     0.06  -0.05   0.03
     7   8     0.18   0.05  -0.04    -0.04   0.05  -0.05    -0.01   0.05   0.00
     8   1     0.20   0.07   0.03    -0.03   0.04  -0.06    -0.01   0.05   0.01
     9   8    -0.07   0.01  -0.01    -0.02  -0.04   0.05    -0.03   0.03  -0.03
    10   1    -0.22  -0.18   0.17     0.09   0.09  -0.15    -0.05   0.00  -0.06
    11   6    -0.17  -0.01   0.10    -0.12  -0.08   0.02    -0.07  -0.05   0.03
    12   1    -0.28   0.22   0.11    -0.26   0.13  -0.07    -0.18   0.09  -0.05
    13   1    -0.30  -0.14   0.24    -0.26  -0.24   0.16    -0.18  -0.17   0.12
    14   1    -0.09  -0.18   0.07     0.04  -0.07   0.01     0.05  -0.05   0.02
    15   1    -0.13   0.06  -0.06     0.18  -0.05   0.08     0.12  -0.06   0.08
    16   6    -0.01   0.02  -0.02    -0.01  -0.01   0.00     0.01   0.00   0.00
    17   1    -0.22   0.07  -0.05     0.06  -0.03   0.01     0.02  -0.01   0.01
    18   1     0.20   0.22  -0.07    -0.09  -0.08   0.03    -0.02  -0.02   0.02
    19   1    -0.06   0.02  -0.02     0.00   0.00   0.00    -0.01   0.00   0.00
    20   8     0.11  -0.23   0.12    -0.05   0.07  -0.04     0.00   0.01  -0.02
    21   1     0.06  -0.01   0.22    -0.03  -0.03  -0.08     0.03  -0.06  -0.04
                     13                     14                     15
                      A                      A                      A
 Frequencies --    346.8166               378.2645               474.3311
 Red. masses --      3.0851                 3.4050                 4.0822
 Frc consts  --      0.2186                 0.2871                 0.5411
 IR Inten    --     13.6825                58.6839                41.6247
  Atom  AN      X      Y      Z        X      Y      Z        X      Y      Z
     1   6    -0.02  -0.08   0.14    -0.15  -0.10  -0.07     0.06  -0.18  -0.05
     2   1    -0.10   0.20   0.34    -0.04  -0.08  -0.10     0.02  -0.18  -0.03
     3   1    -0.02  -0.37   0.39    -0.45  -0.15   0.01    -0.12  -0.23   0.02
     4   1     0.05  -0.24  -0.10    -0.10  -0.27  -0.35     0.18  -0.35  -0.18
     5   6     0.00   0.06  -0.08     0.01   0.06   0.05     0.09  -0.04  -0.04
     6   8     0.01  -0.08  -0.04     0.05  -0.10   0.18     0.22   0.13  -0.09
     7   8    -0.08   0.13   0.16     0.16   0.11  -0.14    -0.07  -0.01   0.12
     8   1    -0.12   0.19   0.19     0.26   0.13   0.04    -0.11  -0.07  -0.05
     9   8     0.06   0.11  -0.17    -0.11   0.08   0.00    -0.23  -0.04   0.04
    10   1    -0.22  -0.24   0.24    -0.28  -0.12   0.10    -0.41  -0.26  -0.13
    11   6    -0.02  -0.11  -0.03     0.06  -0.02  -0.04     0.04   0.14   0.04
    12   1    -0.01  -0.09   0.03     0.06  -0.11  -0.13     0.01   0.32   0.17
    13   1    -0.02  -0.11  -0.05     0.07  -0.04  -0.13    -0.03   0.04   0.04
    14   1    -0.07  -0.13  -0.02     0.08   0.18  -0.01    -0.04   0.06   0.04
    15   1     0.05  -0.11  -0.01     0.11  -0.16   0.22     0.23   0.11   0.03
    16   6     0.03   0.00   0.00     0.00  -0.01   0.02    -0.02   0.00  -0.01
    17   1     0.05   0.00   0.00     0.03  -0.03   0.01    -0.02   0.00  -0.01
    18   1     0.02  -0.01   0.01    -0.04  -0.04   0.04    -0.02   0.00  -0.01
    19   1     0.00   0.00   0.00     0.00   0.00   0.01    -0.02   0.01  -0.01
    20   8     0.03  -0.01  -0.03    -0.02   0.01   0.01    -0.02   0.01  -0.02
    21   1     0.06  -0.05  -0.04     0.04  -0.10  -0.03    -0.03   0.00  -0.02
                     16                     17                     18
                      A                      A                      A
 Frequencies --    500.1879               533.0271               552.7237
 Red. masses --      3.7004                 3.3194                 1.1158
 Frc consts  --      0.5455                 0.5557                 0.2008
 IR Inten    --      8.4053                73.5389               157.8266
  Atom  AN      X      Y      Z        X      Y      Z        X      Y      Z
     1   6     0.16   0.01  -0.04     0.07  -0.04  -0.08     0.00   0.00   0.01
     2   1     0.28   0.09  -0.03     0.39  -0.23  -0.31    -0.02   0.02   0.03
     3   1     0.43   0.00  -0.07    -0.19   0.14  -0.20     0.05  -0.02   0.01
     4   1    -0.07   0.27   0.04    -0.06   0.05  -0.21    -0.01   0.01   0.02
     5   6    -0.02  -0.19  -0.04     0.09  -0.12   0.25    -0.01  -0.01  -0.03
     6   8    -0.12   0.00   0.16    -0.08   0.00  -0.09     0.01   0.01   0.01
     7   8     0.04   0.13   0.08     0.04  -0.05   0.07     0.03  -0.04  -0.04
     8   1     0.27  -0.03   0.08    -0.09   0.17   0.32    -0.40   0.63   0.63
     9   8    -0.09  -0.11  -0.19    -0.01   0.22  -0.04    -0.01  -0.04  -0.01
    10   1    -0.20  -0.25  -0.26    -0.23  -0.03  -0.19     0.05   0.04  -0.05
    11   6     0.04   0.10   0.04    -0.03  -0.09  -0.04     0.01   0.02   0.02
    12   1     0.06  -0.11  -0.13    -0.01  -0.07   0.03     0.00   0.02   0.01
    13   1     0.10   0.18   0.01    -0.01  -0.03  -0.01     0.00   0.02   0.02
    14   1     0.12   0.23   0.05    -0.06  -0.15  -0.04     0.01   0.02   0.02
    15   1    -0.18   0.09  -0.02    -0.13   0.09  -0.24     0.01   0.01   0.05
    16   6    -0.01  -0.01   0.00    -0.01  -0.01   0.00     0.00   0.00   0.00
    17   1    -0.01   0.01   0.01    -0.02   0.01   0.01     0.00   0.00   0.00
    18   1     0.00  -0.01  -0.02     0.00   0.00  -0.01    -0.01  -0.01   0.00
    19   1     0.01  -0.02   0.01     0.01  -0.01   0.01     0.00   0.00   0.00
    20   8     0.00   0.01   0.00    -0.01   0.01   0.01    -0.01   0.01   0.00
    21   1    -0.05   0.09   0.02    -0.06   0.13   0.05     0.07  -0.10  -0.03
                     19                     20                     21
                      A                      A                      A
 Frequencies --    659.6200               745.1728               901.0581
 Red. masses --      4.0697                 1.1232                 4.1585
 Frc consts  --      1.0433                 0.3675                 1.9893
 IR Inten    --    327.5317               343.6776               339.2469
  Atom  AN      X      Y      Z        X      Y      Z        X      Y      Z
     1   6     0.19  -0.09  -0.06     0.02  -0.01  -0.01     0.15  -0.15  -0.11
     2   1     0.02  -0.13  -0.02     0.06  -0.02  -0.02     0.06   0.07   0.05
     3   1    -0.04  -0.11  -0.01     0.01   0.01  -0.02     0.67  -0.31  -0.05
     4   1     0.44  -0.36  -0.13     0.00   0.01  -0.02     0.07   0.02   0.10
     5   6     0.21   0.25  -0.12     0.01   0.01   0.01    -0.22  -0.08  -0.15
     6   8    -0.23  -0.06   0.07    -0.05   0.01  -0.04     0.02   0.13   0.09
     7   8    -0.06  -0.04  -0.02     0.01   0.01   0.01    -0.01   0.02  -0.03
     8   1    -0.33   0.11  -0.15     0.02  -0.06  -0.11     0.14  -0.02   0.11
     9   8    -0.06   0.01   0.10     0.00   0.00   0.00     0.01   0.17   0.17
    10   1    -0.05   0.02   0.02    -0.01  -0.01   0.00    -0.02   0.14   0.23
    11   6    -0.02   0.03   0.02     0.00   0.02   0.00    -0.02  -0.18  -0.08
    12   1     0.04  -0.27  -0.15     0.02  -0.03   0.00    -0.03  -0.11  -0.05
    13   1     0.07   0.15   0.02     0.03   0.08   0.05     0.04  -0.08  -0.05
    14   1     0.06   0.03   0.01     0.02  -0.04  -0.01     0.02  -0.01  -0.05
    15   1    -0.15   0.00  -0.22    -0.05  -0.07   0.32    -0.10   0.10   0.13
    16   6     0.02   0.01   0.00    -0.01   0.00   0.00    -0.02  -0.01   0.00
    17   1     0.00   0.02   0.00    -0.02  -0.06  -0.04    -0.02  -0.01   0.00
    18   1     0.06   0.04   0.00    -0.03  -0.02   0.00     0.01   0.01   0.00
    19   1     0.00   0.00   0.00     0.04   0.05  -0.02     0.00   0.00  -0.01
    20   8     0.03  -0.04   0.00    -0.02   0.03   0.03     0.01   0.01   0.00
    21   1    -0.05   0.12   0.07     0.45  -0.76  -0.24     0.01  -0.04  -0.03
                     22                     23                     24
                      A                      A                      A
 Frequencies --    980.8521               993.5611              1038.0595
 Red. masses --      4.6291                 5.8998                 1.5530
 Frc consts  --      2.6239                 3.4314                 0.9860
 IR Inten    --     67.8126               307.2680                90.7816
  Atom  AN      X      Y      Z        X      Y      Z        X      Y      Z
     1   6    -0.03   0.10   0.04     0.01  -0.04   0.04     0.10  -0.04   0.10
     2   1    -0.17  -0.04   0.01     0.27  -0.08  -0.09     0.48  -0.33  -0.23
     3   1    -0.39   0.10   0.09    -0.01   0.10  -0.09    -0.30   0.24  -0.10
     4   1     0.19  -0.17  -0.07    -0.18   0.12  -0.05    -0.03  -0.05  -0.25
     5   6     0.10   0.04   0.04    -0.01   0.03   0.01    -0.11   0.06  -0.01
     6   8     0.02   0.30   0.14    -0.01   0.09   0.00     0.02   0.01   0.00
     7   8     0.02  -0.01   0.03     0.00   0.00   0.00    -0.01   0.00   0.00
     8   1    -0.19   0.05  -0.16    -0.02   0.01  -0.02     0.05  -0.02   0.03
     9   8    -0.03  -0.14  -0.08    -0.01  -0.02  -0.02    -0.03  -0.04  -0.05
    10   1    -0.03  -0.14  -0.21     0.03   0.02   0.05     0.26   0.30   0.39
    11   6    -0.04  -0.30  -0.14    -0.03  -0.05  -0.04     0.01  -0.01   0.00
    12   1    -0.03  -0.30  -0.12     0.01  -0.09  -0.01    -0.01   0.05   0.02
    13   1     0.11  -0.05  -0.08     0.07   0.14   0.08    -0.01  -0.04  -0.01
    14   1     0.06  -0.08  -0.11     0.05  -0.05  -0.04    -0.02  -0.02   0.00
    15   1    -0.03   0.31  -0.13     0.18  -0.13   0.30    -0.01  -0.03   0.08
    16   6    -0.04  -0.03   0.00     0.40   0.23   0.09    -0.03  -0.02  -0.01
    17   1    -0.10  -0.04  -0.04     0.29   0.18   0.03     0.01   0.00   0.02
    18   1     0.05   0.05  -0.02     0.19   0.04   0.09    -0.04  -0.02   0.00
    19   1     0.00   0.03  -0.04     0.18   0.11   0.11    -0.04  -0.03   0.00
    20   8     0.04   0.01   0.02    -0.31  -0.20  -0.09     0.03   0.01   0.00
    21   1     0.05  -0.15  -0.08    -0.20  -0.05   0.09     0.02   0.07   0.03
                     25                     26                     27
                      A                      A                      A
 Frequencies --   1078.2692              1106.1161              1156.0653
 Red. masses --      1.4220                 1.0988                 1.1926
 Frc consts  --      0.9741                 0.7921                 0.9391
 IR Inten    --    107.3737               118.8185                21.1294
  Atom  AN      X      Y      Z        X      Y      Z        X      Y      Z
     1   6     0.08   0.10  -0.06     0.00   0.01  -0.02     0.00   0.01   0.02
     2   1    -0.39  -0.04   0.05    -0.07   0.03   0.02     0.00  -0.03  -0.01
     3   1    -0.21  -0.15   0.19     0.01  -0.04   0.02    -0.09   0.04   0.00
     4   1     0.57  -0.40  -0.05     0.05  -0.03   0.02     0.00  -0.02  -0.04
     5   6    -0.07  -0.04   0.07     0.01   0.00   0.02     0.01  -0.02  -0.02
     6   8    -0.01  -0.02  -0.01     0.00   0.01  -0.01     0.03  -0.02   0.00
     7   8    -0.01  -0.01  -0.01     0.01   0.00   0.00    -0.02   0.00  -0.01
     8   1     0.28  -0.09   0.26    -0.01   0.00  -0.02     0.13  -0.04   0.14
     9   8    -0.01  -0.01  -0.03     0.00   0.00  -0.01     0.01   0.01   0.01
    10   1     0.11   0.13   0.14    -0.01  -0.01  -0.02    -0.03  -0.03  -0.03
    11   6     0.01   0.02   0.01    -0.02   0.00  -0.01    -0.09   0.03  -0.03
    12   1     0.01   0.06   0.03     0.02  -0.07   0.00     0.10  -0.37  -0.03
    13   1    -0.01  -0.02   0.00     0.03   0.11   0.07     0.17   0.56   0.30
    14   1    -0.02   0.02   0.01     0.03  -0.07  -0.03     0.19  -0.28  -0.10
    15   1    -0.06   0.01  -0.01    -0.01  -0.04   0.26     0.19   0.12   0.30
    16   6     0.03   0.01   0.01    -0.02   0.01  -0.08    -0.01  -0.03   0.01
    17   1     0.00   0.00  -0.01     0.42   0.21   0.20    -0.16  -0.04  -0.05
    18   1     0.03   0.01   0.00    -0.27  -0.17   0.15     0.12   0.09  -0.01
    19   1     0.05   0.03   0.00    -0.27  -0.27   0.10    -0.05   0.04  -0.05
    20   8    -0.03  -0.01  -0.01     0.00  -0.01   0.01     0.03   0.01  -0.01
    21   1    -0.02  -0.05  -0.03     0.42   0.23   0.33    -0.16   0.08  -0.04
                     28                     29                     30
                      A                      A                      A
 Frequencies --   1171.8621              1195.8626              1200.2163
 Red. masses --      1.6965                 1.2733                 1.3947
 Frc consts  --      1.3726                 1.0729                 1.1837
 IR Inten    --    276.1611                13.9362               131.9733
  Atom  AN      X      Y      Z        X      Y      Z        X      Y      Z
     1   6    -0.01  -0.06  -0.09     0.00   0.01   0.01     0.01   0.03   0.04
     2   1    -0.04   0.20   0.09     0.01  -0.03  -0.01     0.03  -0.10  -0.04
     3   1     0.40  -0.21  -0.01    -0.05   0.03   0.00    -0.16   0.10   0.00
     4   1    -0.04   0.09   0.22     0.00  -0.01  -0.03     0.02  -0.04  -0.11
     5   6     0.01   0.10   0.14     0.00  -0.01  -0.02    -0.01  -0.03  -0.07
     6   8     0.00   0.00   0.03     0.00   0.00   0.02    -0.03  -0.01   0.06
     7   8     0.02  -0.01   0.01    -0.01   0.00   0.00    -0.01   0.00  -0.01
     8   1    -0.08   0.02  -0.08     0.06  -0.02   0.06     0.04  -0.01   0.04
     9   8    -0.05  -0.04  -0.07     0.01   0.00   0.01     0.03   0.01   0.04
    10   1     0.19   0.24   0.33    -0.04  -0.06  -0.08    -0.15  -0.19  -0.27
    11   6     0.01   0.02  -0.08    -0.01   0.01  -0.03     0.06   0.03  -0.10
    12   1     0.08   0.21   0.25     0.04   0.04   0.09     0.08   0.44   0.35
    13   1    -0.04   0.08   0.22    -0.01   0.07   0.10    -0.13  -0.11   0.21
    14   1    -0.07  -0.44  -0.13    -0.01  -0.16  -0.05    -0.19  -0.49  -0.15
    15   1     0.05   0.00   0.01    -0.01  -0.06  -0.06    -0.09  -0.01  -0.02
    16   6    -0.01  -0.01   0.01    -0.07   0.10   0.04     0.02  -0.02  -0.02
    17   1    -0.08  -0.04  -0.03     0.16  -0.20  -0.08    -0.01   0.08   0.04
    18   1     0.03   0.02  -0.02    -0.46  -0.40  -0.27     0.12   0.11   0.09
    19   1     0.02   0.04  -0.02     0.58   0.11   0.15    -0.16  -0.04  -0.04
    20   8     0.01   0.00   0.00     0.04  -0.05  -0.01    -0.02   0.01   0.01
    21   1    -0.06   0.04  -0.02     0.01   0.01   0.01     0.03  -0.03   0.00
                     31                     32                     33
                      A                      A                      A
 Frequencies --   1236.3300              1304.6499              1369.0174
 Red. masses --      1.2727                 1.2600                 1.6561
 Frc consts  --      1.1462                 1.2636                 1.8287
 IR Inten    --    243.0994               134.5866                86.8805
  Atom  AN      X      Y      Z        X      Y      Z        X      Y      Z
     1   6    -0.03  -0.04   0.00     0.01  -0.01  -0.01     0.00   0.01   0.01
     2   1     0.10   0.09   0.02     0.05   0.01  -0.01    -0.27   0.07   0.14
     3   1     0.08   0.04  -0.07     0.06  -0.02   0.00    -0.25   0.09  -0.03
     4   1    -0.12   0.09   0.06     0.06  -0.04   0.02    -0.19   0.18  -0.03
     5   6     0.07   0.08  -0.01    -0.03   0.07   0.04     0.15  -0.13  -0.09
     6   8    -0.01   0.03   0.00    -0.04   0.02  -0.03    -0.04   0.01   0.01
     7   8    -0.07  -0.02  -0.03     0.00  -0.01  -0.01    -0.01   0.00   0.01
     8   1     0.65  -0.23   0.63     0.03  -0.01   0.04     0.04  -0.02   0.05
     9   8    -0.01  -0.02   0.00     0.02  -0.02   0.00    -0.05   0.04   0.00
    10   1    -0.01  -0.02  -0.04    -0.13  -0.19  -0.26     0.22   0.33   0.46
    11   6     0.01  -0.02   0.00     0.04  -0.02   0.01     0.04   0.00  -0.01
    12   1    -0.02   0.02  -0.02    -0.04   0.11  -0.03     0.01   0.04  -0.02
    13   1    -0.02  -0.08  -0.06    -0.04  -0.20  -0.10    -0.06  -0.17  -0.03
    14   1    -0.02   0.03   0.01    -0.09   0.07   0.04    -0.10  -0.07  -0.01
    15   1     0.04  -0.03  -0.12    -0.03  -0.04   0.74    -0.01   0.16   0.26
    16   6     0.00   0.00  -0.02    -0.02  -0.02   0.05    -0.01  -0.01   0.05
    17   1     0.04   0.04   0.02    -0.22  -0.13  -0.08    -0.14  -0.09  -0.04
    18   1    -0.01   0.00   0.03     0.06   0.01  -0.10     0.06   0.01  -0.08
    19   1    -0.07  -0.04   0.00     0.07   0.12  -0.05     0.06   0.10  -0.03
    20   8     0.01   0.00   0.01     0.02   0.00  -0.05    -0.01   0.00  -0.04
    21   1     0.04  -0.08  -0.02     0.00   0.30   0.13     0.26   0.17   0.18
                     34                     35                     36
                      A                      A                      A
 Frequencies --   1410.8327              1447.8672              1455.8649
 Red. masses --      1.2194                 1.3737                 1.1545
 Frc consts  --      1.4301                 1.6967                 1.4417
 IR Inten    --     66.1047                18.0167               150.0748
  Atom  AN      X      Y      Z        X      Y      Z        X      Y      Z
     1   6    -0.01   0.00   0.01    -0.14   0.07   0.02     0.03  -0.01  -0.01
     2   1     0.11  -0.02  -0.06     0.53  -0.12  -0.34    -0.08  -0.03   0.02
     3   1     0.09  -0.01   0.00     0.37  -0.15   0.14    -0.04  -0.02   0.02
     4   1     0.06  -0.07   0.01     0.34  -0.36   0.14    -0.07   0.09  -0.01
     5   6    -0.03   0.02   0.01     0.06  -0.05  -0.04    -0.03   0.02   0.02
     6   8     0.03  -0.01   0.01    -0.01   0.00   0.00     0.03   0.01   0.01
     7   8     0.00   0.00   0.00     0.00   0.00   0.00     0.00   0.00   0.00
     8   1     0.03  -0.02   0.01     0.00   0.00   0.01     0.00   0.00   0.00
     9   8     0.01  -0.01   0.00    -0.01   0.01   0.00     0.01  -0.01   0.00
    10   1    -0.03  -0.05  -0.08     0.06   0.10   0.14    -0.03  -0.04  -0.06
    11   6    -0.03   0.01   0.00     0.02   0.01   0.00     0.00   0.08   0.04
    12   1     0.00  -0.05   0.03     0.01  -0.07  -0.08     0.09  -0.45  -0.30
    13   1     0.04   0.12   0.01    -0.06  -0.12  -0.04    -0.20  -0.35  -0.25
    14   1     0.09  -0.01  -0.01    -0.07  -0.11  -0.01    -0.04  -0.53  -0.05
    15   1    -0.09  -0.14  -0.39     0.00   0.13   0.11    -0.14   0.05  -0.01
    16   6     0.00  -0.04   0.08    -0.01   0.00  -0.01    -0.03  -0.01  -0.01
    17   1    -0.22  -0.11  -0.03     0.06   0.00   0.02     0.21   0.03   0.09
    18   1     0.16   0.05  -0.13     0.02   0.03   0.00     0.14   0.16  -0.01
    19   1     0.05   0.19  -0.09     0.04  -0.01   0.01     0.18   0.04   0.00
    20   8    -0.05   0.01  -0.05     0.00   0.00   0.00    -0.02   0.00   0.00
    21   1     0.67   0.15   0.32    -0.03   0.00  -0.01     0.00  -0.01   0.00
                     37                     38                     39
                      A                      A                      A
 Frequencies --   1476.2861              1486.4738              1488.8213
 Red. masses --      1.0500                 1.0969                 1.0564
 Frc consts  --      1.3482                 1.4280                 1.3797
 IR Inten    --     23.9597                 3.1443                28.8371
  Atom  AN      X      Y      Z        X      Y      Z        X      Y      Z
     1   6    -0.01  -0.05  -0.02     0.00   0.00   0.01    -0.01   0.01   0.02
     2   1     0.30   0.58   0.23    -0.05  -0.03   0.00    -0.16  -0.06   0.03
     3   1    -0.31   0.29  -0.26     0.08   0.02  -0.03     0.26   0.11  -0.11
     4   1     0.26  -0.17   0.32    -0.03  -0.01  -0.09    -0.03  -0.10  -0.31
     5   6    -0.02  -0.02  -0.01     0.01   0.01   0.00     0.01   0.00   0.01
     6   8     0.00  -0.01   0.00    -0.01  -0.01  -0.01     0.00  -0.01   0.00
     7   8     0.00   0.00   0.00     0.00   0.00   0.00     0.00   0.00   0.00
     8   1    -0.03   0.01  -0.02     0.01   0.00   0.01     0.00   0.00   0.00
     9   8     0.00   0.00   0.00     0.00   0.00   0.00     0.00   0.00   0.00
    10   1     0.00   0.00  -0.01     0.01   0.01   0.01     0.01   0.02   0.02
    11   6     0.00   0.00   0.01    -0.02  -0.02  -0.03     0.00  -0.02   0.03
    12   1    -0.07   0.08  -0.06     0.15   0.04   0.38    -0.22   0.31  -0.11
    13   1     0.07   0.07  -0.06    -0.06  -0.04   0.06     0.24   0.21  -0.31
    14   1    -0.02  -0.06   0.00     0.30   0.28  -0.01     0.09  -0.19  -0.01
    15   1    -0.04   0.02   0.02    -0.02   0.04   0.09    -0.01   0.04   0.04
    16   6    -0.02  -0.01   0.00    -0.07  -0.02   0.00    -0.01  -0.04  -0.01
    17   1     0.11   0.05   0.07     0.50  -0.08   0.13     0.01   0.36   0.24
    18   1     0.06   0.07  -0.01     0.35   0.36  -0.13    -0.04  -0.02   0.10
    19   1     0.10   0.05  -0.02     0.25   0.02   0.03     0.24   0.26  -0.19
    20   8    -0.01   0.00   0.00    -0.02  -0.01   0.00     0.00  -0.01   0.00
    21   1    -0.01  -0.01   0.00    -0.02   0.00   0.01    -0.03  -0.01  -0.01
                     40                     41                     42
                      A                      A                      A
 Frequencies --   1493.9786              1495.1999              1507.5920
 Red. masses --      1.0516                 1.0566                 1.0438
 Frc consts  --      1.3829                 1.3918                 1.3978
 IR Inten    --     27.1009                10.1322                 1.8605
  Atom  AN      X      Y      Z        X      Y      Z        X      Y      Z
     1   6     0.01   0.00  -0.02    -0.01  -0.01   0.01     0.02   0.01  -0.03
     2   1     0.10  -0.04  -0.07    -0.01   0.12   0.08     0.12  -0.13  -0.14
     3   1    -0.20  -0.16   0.15     0.10   0.16  -0.15    -0.31  -0.30   0.29
     4   1    -0.02   0.13   0.24     0.07  -0.13  -0.12    -0.06   0.24   0.37
     5   6     0.00   0.01  -0.01     0.00  -0.01   0.00     0.00   0.00  -0.02
     6   8     0.00   0.00  -0.01    -0.01   0.01   0.00    -0.01   0.00   0.01
     7   8     0.00   0.00   0.00     0.00   0.00   0.00     0.00   0.00   0.00
     8   1     0.01   0.00   0.01    -0.01   0.00  -0.01     0.01   0.00   0.01
     9   8     0.00   0.00   0.00     0.00   0.00   0.00     0.00   0.00   0.00
    10   1     0.00  -0.01  -0.01     0.01   0.01   0.01     0.00   0.00   0.00
    11   6     0.00   0.00  -0.03    -0.04   0.03   0.00    -0.02  -0.01   0.02
    12   1     0.15  -0.16   0.14     0.22  -0.12   0.37    -0.11   0.26   0.09
    13   1    -0.14  -0.10   0.23    -0.14  -0.25  -0.27     0.19   0.11  -0.42
    14   1    -0.03   0.21   0.01     0.54  -0.04  -0.06     0.35  -0.18  -0.04
    15   1    -0.01  -0.02   0.02    -0.03   0.01   0.03    -0.01  -0.01   0.03
    16   6     0.00  -0.05  -0.02     0.03   0.01  -0.01     0.00   0.01   0.00
    17   1    -0.15   0.47   0.27    -0.32   0.03  -0.10     0.03  -0.06  -0.03
    18   1    -0.13  -0.09   0.22    -0.18  -0.12   0.23     0.03   0.03   0.00
    19   1     0.28   0.32  -0.23    -0.01  -0.09   0.07    -0.01  -0.05   0.04
    20   8     0.00  -0.01   0.00     0.01   0.00   0.00     0.00   0.00   0.00
    21   1    -0.01   0.00   0.00     0.00   0.01   0.00    -0.01   0.00   0.00
                     43                     44                     45
                      A                      A                      A
 Frequencies --   1517.6374              1692.7778              1923.0476
 Red. masses --      1.0460                 1.0937                 1.1504
 Frc consts  --      1.4194                 1.8464                 2.5066
 IR Inten    --     13.5949               100.4718              3606.9315
  Atom  AN      X      Y      Z        X      Y      Z        X      Y      Z
     1   6     0.00   0.00   0.00     0.01  -0.01   0.00     0.01   0.01   0.00
     2   1    -0.01  -0.02  -0.01     0.01   0.00   0.00    -0.01   0.01   0.00
     3   1     0.00  -0.02   0.01    -0.01  -0.01   0.00    -0.01   0.01   0.00
     4   1    -0.02   0.02   0.00    -0.02   0.02   0.01     0.04  -0.03  -0.01
     5   6     0.00   0.01   0.00    -0.04   0.03   0.01    -0.02  -0.03   0.00
     6   8     0.01  -0.01   0.00    -0.02  -0.04   0.00    -0.07   0.05   0.00
     7   8     0.00   0.00   0.00     0.00   0.00   0.00     0.00   0.00   0.00
     8   1     0.01   0.00   0.01     0.01  -0.01  -0.01    -0.02   0.01  -0.03
     9   8     0.00   0.00   0.00     0.01   0.00   0.00     0.00   0.01   0.00
    10   1     0.00   0.00   0.00    -0.04  -0.05  -0.06    -0.01   0.00   0.00
    11   6     0.01  -0.01   0.00     0.02  -0.01   0.00     0.01   0.02   0.01
    12   1    -0.07   0.06  -0.10     0.02   0.03   0.01     0.02  -0.02  -0.03
    13   1     0.05   0.10   0.08    -0.01  -0.08  -0.03    -0.05  -0.08  -0.08
    14   1    -0.14   0.03   0.02    -0.01   0.02   0.01     0.00  -0.08   0.00
    15   1    -0.02   0.01  -0.01     0.43   0.87  -0.07     0.87  -0.43  -0.10
    16   6    -0.02   0.01  -0.04     0.00   0.01   0.00    -0.02  -0.02   0.00
    17   1    -0.20  -0.07  -0.13    -0.01   0.00  -0.01     0.02   0.00   0.03
    18   1     0.06   0.27   0.58    -0.04  -0.04  -0.01     0.05   0.08   0.02
    19   1     0.48  -0.32   0.33     0.00   0.01   0.01     0.06   0.00  -0.02
    20   8    -0.01   0.00  -0.02    -0.01  -0.02   0.00     0.02   0.00   0.00
    21   1     0.10   0.04   0.05     0.17  -0.05   0.05     0.04   0.01   0.05
                     46                     47                     48
                      A                      A                      A
 Frequencies --   3009.4058              3070.7800              3106.1086
 Red. masses --      1.0607                 1.0303                 1.0306
 Frc consts  --      5.6597                 5.7242                 5.8584
 IR Inten    --      0.5353                39.3124                10.9522
  Atom  AN      X      Y      Z        X      Y      Z        X      Y      Z
     1   6    -0.04   0.04  -0.05     0.00   0.00   0.00     0.00   0.00   0.00
     2   1     0.30  -0.45   0.78     0.00   0.00   0.00     0.00  -0.01   0.01
     3   1    -0.02  -0.12  -0.15     0.00   0.00   0.00     0.00   0.02   0.02
     4   1     0.14   0.15  -0.07     0.00   0.00   0.00    -0.01  -0.01   0.00
     5   6     0.00   0.00   0.00     0.00   0.00   0.00     0.00   0.00   0.00
     6   8     0.00   0.00   0.00     0.00   0.00   0.00     0.00   0.00   0.00
     7   8     0.00   0.00   0.00     0.00   0.00   0.00     0.00   0.00   0.00
     8   1     0.00   0.00   0.00     0.00   0.00   0.00     0.00   0.00   0.00
     9   8     0.00   0.00   0.00     0.00   0.00   0.00     0.00   0.00   0.00
    10   1     0.00   0.00   0.00     0.00   0.00   0.00     0.00   0.00   0.00
    11   6     0.00   0.00   0.00     0.00   0.00   0.00     0.01   0.03   0.03
    12   1     0.00   0.00   0.00     0.01   0.00  -0.01    -0.42  -0.20   0.21
    13   1     0.00   0.00   0.00     0.00   0.00   0.00     0.36  -0.24   0.11
    14   1     0.00   0.00   0.00     0.00   0.00   0.01    -0.07   0.10  -0.72
    15   1     0.00   0.00   0.00    -0.02   0.01   0.00     0.01  -0.01   0.00
    16   6     0.00   0.00   0.00     0.03   0.02   0.02     0.00   0.00   0.00
    17   1     0.00   0.00   0.00    -0.11  -0.22   0.35     0.00   0.00   0.01
    18   1     0.00   0.00   0.00    -0.41   0.41  -0.12    -0.02   0.02  -0.01
    19   1     0.00   0.00   0.00     0.11  -0.41  -0.52     0.00   0.00   0.00
    20   8     0.00   0.00   0.00     0.00   0.00   0.00     0.00   0.00   0.00
    21   1     0.00   0.00   0.00     0.01   0.01  -0.02     0.00   0.00   0.00
                     49                     50                     51
                      A                      A                      A
 Frequencies --   3141.4222              3145.8692              3180.9201
 Red. masses --      1.0802                 1.1086                 1.1075
 Frc consts  --      6.2805                 6.4642                 6.6022
 IR Inten    --      0.2864                32.7589                21.7828
  Atom  AN      X      Y      Z        X      Y      Z        X      Y      Z
     1   6    -0.04  -0.03   0.06     0.00   0.00   0.00     0.00   0.00   0.00
     2   1    -0.09   0.12  -0.21     0.00   0.00   0.00     0.00   0.00   0.00
     3   1    -0.05  -0.29  -0.31     0.00   0.00   0.00     0.00   0.00   0.00
     4   1     0.60   0.59  -0.22     0.00   0.00   0.00     0.00   0.00   0.00
     5   6     0.00   0.00   0.00     0.00   0.00   0.00     0.00   0.00   0.00
     6   8     0.00   0.00   0.00     0.00   0.00   0.00     0.00   0.00   0.00
     7   8     0.00   0.00   0.00     0.00   0.00   0.00     0.00   0.00   0.00
     8   1     0.00   0.00   0.00     0.00   0.00   0.00     0.00   0.00   0.00
     9   8     0.00   0.00   0.00     0.00   0.00   0.00     0.00   0.00   0.00
    10   1     0.00   0.00   0.00     0.00   0.00   0.00     0.00   0.00   0.00
    11   6     0.00   0.00   0.00     0.00   0.00   0.00     0.00   0.00   0.00
    12   1    -0.01  -0.01   0.01     0.00   0.00   0.00    -0.01   0.00   0.00
    13   1     0.00   0.00   0.00     0.01  -0.01   0.00     0.00   0.00   0.00
    14   1     0.00   0.00  -0.02     0.00   0.00  -0.02     0.00   0.00   0.01
    15   1     0.00   0.00   0.00     0.00   0.00   0.00     0.00   0.00   0.00
    16   6     0.00   0.00   0.00    -0.05   0.07   0.03     0.00  -0.04   0.08
    17   1     0.00   0.00   0.00     0.01   0.05  -0.04     0.23   0.47  -0.73
    18   1     0.00   0.00   0.00     0.50  -0.50   0.17    -0.23   0.22  -0.06
    19   1     0.00   0.00   0.00     0.10  -0.40  -0.53     0.05  -0.17  -0.20
    20   8     0.00   0.00   0.00     0.00   0.00   0.00     0.00   0.00   0.00
    21   1     0.00   0.00   0.00     0.00   0.00   0.00     0.00  -0.01   0.03
                     52                     53                     54
                      A                      A                      A
 Frequencies --   3190.6767              3207.3820              3235.4941
 Red. masses --      1.1009                 1.1089                 1.1104
 Frc consts  --      6.6033                 6.7210                 6.8487
 IR Inten    --      1.0079                 1.9003                 0.9184
  Atom  AN      X      Y      Z        X      Y      Z        X      Y      Z
     1   6    -0.03  -0.07  -0.05     0.00   0.00   0.00     0.00   0.00   0.00
     2   1     0.02  -0.04   0.05     0.00   0.00   0.00     0.00   0.00   0.00
     3   1     0.09   0.58   0.66     0.00  -0.01  -0.01    -0.01  -0.03  -0.04
     4   1     0.31   0.30  -0.13     0.00   0.00   0.00    -0.01  -0.01   0.00
     5   6     0.00   0.00   0.00     0.00   0.00   0.00     0.00   0.00   0.00
     6   8     0.00   0.00   0.00     0.00   0.00   0.00     0.00   0.00   0.00
     7   8     0.00   0.00   0.00     0.00   0.00   0.00     0.00   0.00   0.00
     8   1     0.00   0.00   0.00     0.00   0.00   0.00     0.00   0.00   0.00
     9   8     0.00   0.00   0.00     0.00   0.00   0.00     0.00   0.00   0.00
    10   1     0.00   0.00   0.00     0.00   0.00   0.00     0.00   0.00   0.00
    11   6    -0.01   0.00   0.00    -0.03  -0.04   0.08    -0.09   0.03  -0.02
    12   1     0.04   0.02  -0.02     0.61   0.28  -0.29     0.37   0.18  -0.19
    13   1     0.02  -0.02   0.01    -0.21   0.13  -0.05     0.70  -0.46   0.21
    14   1     0.00   0.00   0.02    -0.06   0.09  -0.62     0.01  -0.03   0.19
    15   1     0.00   0.00   0.00     0.00   0.00   0.00     0.00  -0.01   0.00
    16   6     0.00   0.00   0.00     0.00   0.00   0.00     0.00   0.00   0.00
    17   1     0.00   0.00   0.00     0.00   0.01  -0.01     0.00   0.00   0.00
    18   1     0.00   0.00   0.00    -0.01   0.01   0.00     0.00   0.00   0.00
    19   1     0.00   0.00   0.00     0.00   0.00   0.00     0.00   0.00   0.00
    20   8     0.00   0.00   0.00     0.00   0.00   0.00     0.00   0.00   0.00
    21   1     0.00   0.00   0.00     0.00   0.00   0.00     0.00   0.00   0.00
                     55                     56                     57
                      A                      A                      A
 Frequencies --   3410.4820              3438.3997              3736.9213
 Red. masses --      1.0676                 1.0671                 1.0660
 Frc consts  --      7.3160                 7.4329                 8.7704
 IR Inten    --    165.6384               300.3051               195.8745
  Atom  AN      X      Y      Z        X      Y      Z        X      Y      Z
     1   6     0.00   0.00   0.00     0.00   0.00   0.00     0.00   0.00   0.00
     2   1     0.00   0.00   0.00     0.00   0.00   0.00     0.00   0.00   0.00
     3   1     0.00   0.00   0.00     0.00   0.00   0.00     0.00   0.00   0.00
     4   1     0.00   0.00   0.00     0.00   0.00   0.00     0.00   0.00   0.00
     5   6     0.00   0.00   0.00     0.00   0.00   0.00     0.00   0.00   0.00
     6   8     0.00   0.00   0.00     0.00   0.00   0.00     0.00   0.00   0.00
     7   8    -0.04  -0.05   0.02     0.00   0.00   0.00     0.00   0.00   0.00
     8   1     0.56   0.73  -0.38     0.03   0.04  -0.02     0.00   0.00   0.00
     9   8     0.00   0.00   0.00     0.00   0.00   0.00    -0.05   0.04   0.00
    10   1     0.00   0.00   0.00     0.00   0.00   0.00     0.76  -0.64  -0.02
    11   6     0.00   0.00   0.00     0.00   0.00   0.00     0.00   0.00   0.00
    12   1     0.00   0.00   0.00     0.00   0.00   0.00     0.00   0.00   0.00
    13   1     0.00   0.00   0.00     0.00   0.00   0.00     0.00   0.00   0.00
    14   1     0.00   0.00   0.00     0.00   0.00   0.00     0.00   0.00   0.00
    15   1     0.00   0.00   0.00    -0.03   0.02  -0.01     0.00   0.00   0.00
    16   6     0.00   0.00   0.00     0.00   0.00   0.00     0.00   0.00   0.00
    17   1     0.00   0.00   0.00    -0.01  -0.02   0.03     0.00   0.00   0.00
    18   1     0.00   0.00   0.00    -0.01   0.00   0.00     0.00   0.00   0.00
    19   1     0.00   0.00   0.00     0.00   0.00   0.00     0.00   0.00   0.00
    20   8     0.00   0.00   0.00     0.02   0.03  -0.05     0.00   0.00   0.00
    21   1     0.02   0.03  -0.04    -0.32  -0.48   0.81     0.00   0.00   0.00

 -------------------
 - Thermochemistry -
 -------------------
 Temperature   298.150 Kelvin.  Pressure   1.00000 Atm.
 Atom     1 has atomic number  6 and mass  12.00000
 Atom     2 has atomic number  1 and mass   1.00783
 Atom     3 has atomic number  1 and mass   1.00783
 Atom     4 has atomic number  1 and mass   1.00783
 Atom     5 has atomic number  6 and mass  12.00000
 Atom     6 has atomic number  8 and mass  15.99491
 Atom     7 has atomic number  8 and mass  15.99491
 Atom     8 has atomic number  1 and mass   1.00783
 Atom     9 has atomic number  8 and mass  15.99491
 Atom    10 has atomic number  1 and mass   1.00783
 Atom    11 has atomic number  6 and mass  12.00000
 Atom    12 has atomic number  1 and mass   1.00783
 Atom    13 has atomic number  1 and mass   1.00783
 Atom    14 has atomic number  1 and mass   1.00783
 Atom    15 has atomic number  1 and mass   1.00783
 Atom    16 has atomic number  6 and mass  12.00000
 Atom    17 has atomic number  1 and mass   1.00783
 Atom    18 has atomic number  1 and mass   1.00783
 Atom    19 has atomic number  1 and mass   1.00783
 Atom    20 has atomic number  8 and mass  15.99491
 Atom    21 has atomic number  1 and mass   1.00783
 Molecular mass:   125.08138 amu.
 Principal axes and moments of inertia in atomic units:
                           1         2         3
     Eigenvalues --   679.080041539.098861798.11737
           X            0.99996  -0.00695  -0.00573
           Y            0.00693   0.99997  -0.00291
           Z            0.00575   0.00287   0.99998
 This molecule is an asymmetric top.
 Rotational symmetry number  1.
 Warning -- assumption of classical behavior for rotation
           may cause significant error
 Rotational temperatures (Kelvin)      0.12755     0.05628     0.04817
 Rotational constants (GHZ):           2.65763     1.17260     1.00368
    1 imaginary frequencies ignored.
 Zero-point vibrational energy     469108.6 (Joules/Mol)
                                  112.11964 (Kcal/Mol)
 Warning -- explicit consideration of  17 degrees of freedom as
           vibrations may cause significant error
 Vibrational temperatures:    156.17   162.03   196.37   246.76   263.38
          (Kelvin)            285.38   305.01   348.63   380.60   394.58
                              478.95   498.99   544.24   682.46   719.66
                              766.91   795.25   949.04  1072.14  1296.42
                             1411.23  1429.51  1493.53  1551.39  1591.45
                             1663.32  1686.05  1720.58  1726.84  1778.80
                             1877.10  1969.71  2029.87  2083.16  2094.66
                             2124.04  2138.70  2142.08  2149.50  2151.26
                             2169.09  2183.54  2435.53  2766.83  4329.86
                             4418.16  4468.99  4519.80  4526.20  4576.63
                             4590.67  4614.70  4655.15  4906.92  4947.08
                             5376.59
 
 Zero-point correction=                           0.178674 (Hartree/Particle)
 Thermal correction to Energy=                    0.189857
 Thermal correction to Enthalpy=                  0.190801
 Thermal correction to Gibbs Free Energy=         0.143199
 Sum of electronic and zero-point Energies=           -460.581414
 Sum of electronic and thermal Energies=              -460.570231
 Sum of electronic and thermal Enthalpies=            -460.569287
 Sum of electronic and thermal Free Energies=         -460.616889
 
                     E (Thermal)             CV                S
                      KCal/Mol        Cal/Mol-Kelvin    Cal/Mol-Kelvin
 Total                  119.137             40.006            100.188
 Electronic               0.000              0.000              0.000
 Translational            0.889              2.981             40.385
 Rotational               0.889              2.981             29.020
 Vibrational            117.360             34.045             30.783
 Vibration     1          0.606              1.942              3.295
 Vibration     2          0.607              1.939              3.223
 Vibration     3          0.614              1.917              2.853
 Vibration     4          0.626              1.878              2.419
 Vibration     5          0.631              1.863              2.297
[...]
 .02125763,-0.23630569,0.22440641,-0.00221803,-0.00416830,-0.00409098,0
 .00000122,0.00005905,0.00051287,0.00130194,-0.00100227,0.00018393,-0.0
 0035891,0.00017796,0.00019267,0.02686356,-0.02942559,-0.01105648,-0.00
 028771,0.00090773,0.00042258,0.00240899,0.00067590,0.00687672,0.000265
 38,0.00024952,-0.00114857,-0.03502372,0.00819844,-0.02015466,0.0080136
 6,0.02504373,0.02791332,-0.00020936,-0.00090179,0.00142475,-0.00019907
 ,-0.00009276,-0.00001685,-0.00213176,-0.00155420,-0.00014036,0.0003986
 6,-0.00005345,0.00001184,0.00248006,-0.01150952,-0.01357455,-0.0954552
 5,-0.00529679,0.01006602,0.00055282,0.00084114,-0.00007596,0.00004381,
 0.00016083,-0.00003729,-0.00387631,-0.00743704,-0.00141536,-0.00049783
 ,0.00030191,-0.00001757,0.64683078,0.00111218,0.00273619,0.00087917,-0
 .00005906,0.00028219,-0.00000692,-0.00194091,-0.00157878,-0.00073604,0
 .00170857,-0.00118297,-0.00034561,-0.02496572,-0.03374562,0.00234127,0
 .00495906,-0.12707350,-0.03609632,0.00248133,0.00427256,-0.00308394,-0
 .00120198,0.00027260,-0.00073913,0.00242451,0.00700377,0.00264585,0.00
 013523,-0.00084508,0.00000102,-0.03983876,0.44057529,0.00167607,0.0017
 4513,-0.00111802,-0.00027386,-0.00023349,-0.00015480,0.00123095,0.0001
 2127,0.00017606,0.00040439,-0.00007681,-0.00011204,-0.01584741,-0.0012
 9319,0.01038811,0.01118244,-0.05081737,-0.09641816,0.00126374,0.003061
 56,-0.00307310,-0.00076213,0.00003132,-0.00065364,0.00382736,0.0055584
 3,0.00335980,0.00017094,-0.00089263,-0.00007780,-0.02153918,-0.0924107
 4,0.58450857,-0.00005834,0.00004358,0.00029018,0.00004837,0.00005291,0
 .00007888,-0.00011747,-0.00020602,-0.00026469,0.00006096,-0.00014252,-
 0.00009633,0.00117730,0.00167446,-0.00047578,0.00044838,-0.00128886,-0
 .00045394,-0.00001923,0.00001279,-0.00003072,-0.00000373,-0.00001067,-
 0.00001041,0.00008816,-0.00010482,0.00000622,-0.00002201,0.00000747,-0
 .00000409,-0.25079634,-0.09418898,0.09672533,0.26083920,0.00019823,-0.
 00020628,-0.00014648,-0.00003604,-0.00004582,-0.00008042,-0.00004883,0
 .00016661,0.00030411,-0.00018021,0.00025997,0.00016423,0.00520191,0.00
 199100,-0.00450726,-0.03163874,-0.02769309,0.00974950,-0.00020873,-0.0
 0074281,0.00075941,0.00019713,0.00008166,0.00013675,-0.00165940,-0.002
 99485,-0.00102557,-0.00013932,0.00033898,0.00000649,-0.08197400,-0.086
 71345,0.04317645,0.10052355,0.10454905,0.00019021,-0.00024687,-0.00014
 692,0.00002649,0.00004257,0.00005303,-0.00010186,0.00015811,0.00021321
 ,-0.00005125,0.00008564,0.00010239,0.00171374,0.00031567,-0.00221243,-
 0.01811431,-0.01431606,0.00663753,-0.00015472,-0.00031417,0.00044726,0
 .00012190,0.00001223,0.00010578,-0.00089475,-0.00178636,-0.00063333,-0
 .00008160,0.00016868,-0.00000446,0.10380519,0.05151578,-0.10114742,-0.
 10399927,-0.04413351,0.09939129,-0.00064396,-0.00045247,0.00066012,-0.
 00032724,-0.00031068,-0.00000728,-0.00085550,-0.00102376,-0.00004863,0
 .00010723,-0.00030400,-0.00021477,0.00030737,-0.00032544,0.00036639,0.
 00823991,-0.00638769,0.00145493,-0.00002765,-0.00006459,0.00011974,0.0
 0000732,0.00000694,0.00001097,0.00003310,0.00025830,-0.00000458,0.0000
 1899,0.00001185,0.00001473,-0.24685557,0.13201870,-0.05742952,-0.01680
 435,0.01359340,-0.00734459,0.25571488,0.00002569,-0.00007597,0.0001084
 7,-0.00018199,-0.00011738,-0.00022309,-0.00045558,-0.00018531,0.000495
 13,-0.00010998,0.00025757,0.00000333,0.00377776,0.00136947,-0.00050410
 ,0.02553447,-0.03004199,-0.00070052,-0.00038497,-0.00050958,0.00049950
 ,0.00010206,0.00002178,0.00012597,-0.00048813,-0.00006481,-0.00013440,
 0.00003568,0.00017192,0.00006262,0.11791982,-0.12703120,0.03815021,-0.
 00996245,0.01050516,-0.00361990,-0.13482731,0.14706932,-0.00016931,0.0
 0002940,0.00037824,-0.00012669,-0.00008740,0.00010165,0.00037626,0.000
 43172,-0.00046839,-0.00003070,-0.00012820,-0.00012460,0.00096428,0.001
 61941,-0.00018540,0.01700929,-0.01687000,0.00214652,-0.00009444,-0.000
 16164,0.00019868,0.00005725,0.00001834,0.00010753,-0.00000932,-0.00018
 273,-0.00017396,-0.00000735,0.00008229,-0.00000440,-0.06378198,0.04343
 811,-0.07111386,0.01061434,-0.00766363,0.00439061,0.06201524,-0.034901
 48,0.06840477,-0.00007831,0.00004093,-0.00038242,0.00003359,-0.0000723
 2,-0.00000214,-0.00053571,-0.00023976,0.00015292,0.00002493,0.00005297
 ,0.00010778,0.00023605,0.00002726,-0.00142207,0.00072421,-0.00319484,-
 0.00409911,0.00009019,0.00020233,-0.00004801,-0.00006710,-0.00000577,0
 .00002099,-0.00016028,-0.00011955,0.00013407,0.00000735,-0.00000723,0.
 00002072,-0.05776329,0.00592465,-0.02446159,0.00560425,-0.00260637,0.0
 2578673,0.00063778,0.00290420,-0.02488979,0.05213402,-0.00036989,-0.00
 042659,0.00022679,0.00003221,0.00002723,-0.00001139,-0.00019432,-0.000
 06647,-0.00012707,-0.00010610,0.00004413,-0.00002703,0.00205945,0.0040
 1620,-0.00205765,-0.00449480,-0.01253935,-0.04073020,0.00011973,-0.000
 90526,0.00011998,0.00000334,0.00015106,0.00004471,-0.00033263,-0.00101
 595,0.00014401,-0.00002241,0.00011194,0.00000087,0.00595210,-0.0573604
 9,0.05503673,0.00304006,0.00050611,0.01126494,-0.00074145,0.00072844,0
 .01607560,-0.00322699,0.06564255,-0.00003941,-0.00022074,0.00002171,0.
 00003252,0.00005017,0.00005263,-0.00006619,0.00018169,0.00026219,-0.00
 006683,0.00010059,0.00010347,0.00239295,0.00210464,-0.00088236,-0.0018
 0402,-0.00892147,-0.01131478,-0.00028772,-0.00000650,0.00033223,0.0001
 6677,-0.00009331,0.00021566,-0.00035606,-0.00063255,-0.00003036,-0.000
 03605,0.00011378,-0.00000512,-0.02588080,0.04245431,-0.32105557,-0.001
 93511,0.00237011,-0.00788191,0.00083835,0.00170311,-0.00296021,0.02821
 104,-0.03955947,0.34329362,0.00225667,0.00235298,-0.00146365,-0.000176
 94,0.00007644,-0.00025520,-0.00014667,-0.00006393,0.00020867,0.0013446
 5,-0.00050454,-0.00028795,-0.03887728,-0.02651529,0.01115315,-0.126075
 77,0.04611111,-0.00526849,0.00113838,0.00674132,-0.00477232,-0.0018539
 1,0.00004494,-0.00117861,0.00250214,0.00647431,0.00254348,-0.00007150,
 -0.00230822,-0.00011931,0.01532153,0.01595296,0.00670631,-0.00040872,-
 0.00155959,-0.00062627,0.00018853,-0.00594806,-0.00309206,-0.00052525,
 -0.00265922,-0.00172679,0.11707055,-0.00423063,-0.00593355,0.00287532,
 0.00057888,-0.00016876,0.00004392,0.00021853,0.00008826,-0.00011002,-0
 .00186262,0.00108442,0.00051392,-0.00940462,0.03114012,-0.00418324,0.0
 2885599,-0.08776513,0.00092301,0.00047811,-0.00253256,0.00198666,0.001
 39159,-0.00038546,0.00027417,0.00065038,-0.00458020,-0.00209024,-0.001
 22477,-0.00039101,-0.00089280,0.02159064,-0.02375057,-0.00327155,0.000
 50280,0.00035311,0.00068201,-0.00131248,-0.00127487,-0.00131896,0.0001
 8254,0.00165038,0.00069566,-0.00819359,0.10397249,0.00136977,0.0025873
 0,-0.00064692,-0.00011081,-0.00006769,0.00015003,-0.00022304,-0.000097
 33,0.00007790,0.00069176,-0.00042613,0.00004288,0.01666341,-0.00348092
 ,0.00012351,-0.02308424,0.00789179,-0.03027043,-0.00022825,-0.00085665
 ,0.00167904,-0.00044415,0.00021844,0.00035428,-0.00081122,-0.00044544,
 -0.00082707,-0.00025131,-0.00036012,0.00028317,0.01311768,-0.01000794,
 -0.00263195,-0.00026695,0.00078676,0.00084128,-0.00051724,-0.00155140,
 -0.00090310,0.00069491,-0.00049984,-0.00028721,-0.00992492,0.00359645,
 0.05541074,0.00032409,0.00029633,-0.00002093,0.00001557,-0.00001071,-0
 .00003649,-0.00000867,-0.00000812,0.00001189,0.00012729,-0.00007507,-0
 .00004139,-0.00225051,-0.00200119,0.00006599,0.00781910,-0.00217162,0.
 00021481,0.00145574,0.00031098,-0.00061384,0.00030141,-0.00012022,0.00
 001579,0.00035334,0.00053465,0.00035962,-0.00023359,-0.00017920,-0.000
 10544,-0.00286215,0.00378314,0.00087723,0.00035496,-0.00040483,-0.0002
 6588,-0.00009133,-0.00016870,-0.00005251,-0.00004454,-0.00014798,-0.00
 013306,-0.01845762,0.00225112,-0.00530822,0.48463515,0.00023698,0.0003
 1790,-0.00010387,-0.00000719,0.00000014,-0.00003227,-0.00000871,-0.000
 01079,0.00001206,0.00013403,-0.00005195,-0.00003962,-0.00276595,-0.002
 15571,0.00051629,0.01097214,-0.00745331,0.00016917,0.00075221,0.000794
 36,-0.00075364,0.00014822,-0.00013958,-0.00005214,0.00028470,0.0005908
 3,0.00037148,-0.00004879,-0.00019548,-0.00006998,0.00195431,0.00040651
 ,0.00103677,-0.00073942,0.00016449,0.00005418,-0.00004628,-0.00044206,
 -0.00026415,-0.00005326,-0.00016756,-0.00015422,-0.01103746,0.01659279
 ,-0.00217637,-0.06755221,0.56780527,0.00005503,0.00000346,0.00012852,0
 .00003562,-0.00002016,-0.00000630,-0.00000315,0.00000363,0.00000133,0.
 00001279,-0.00001002,-0.00000678,-0.00047621,0.00003406,-0.00062470,0.
 00109637,-0.00015327,0.00059104,0.00208912,0.00013373,-0.00100342,0.00
 037060,-0.00020689,-0.00007378,-0.00002432,0.00010571,0.00022818,0.000
 07349,-0.00000106,-0.00005604,-0.00022276,0.00087164,-0.00016971,-0.00
 011947,-0.00002366,0.00010045,-0.00004524,-0.00001856,-0.00001369,0.00
 005088,0.00001086,-0.00008405,-0.00290256,-0.00188515,-0.00229774,-0.0
 3376298,-0.03308743,0.61668682,-0.00002188,0.00000196,-0.00005079,-0.0
 0001727,0.00000872,0.00000294,0.00000164,-0.00000175,0.00000010,-0.000
 00715,0.00000445,0.00000364,0.00026157,0.00001396,0.00023631,-0.000624
 76,0.00030598,-0.00009944,-0.00066680,-0.00000226,0.00027067,-0.000123
 06,0.00007693,0.00001852,-0.00002092,-0.00005472,-0.00011051,0.0000056
 7,0.00001248,0.00003820,-0.00000990,-0.00019807,-0.00003686,-0.0004197
 9,0.00028114,0.00014077,0.00001464,0.00002939,0.00000057,-0.00000130,0
 .00001202,0.00000449,0.00108338,-0.00066341,0.00070748,-0.06413474,-0.
 02856601,0.04787157,0.07792940,-0.00002609,-0.00001827,-0.00002153,-0.
 00000834,0.00000596,0.00000421,0.00000110,0.00000087,-0.00000117,-0.00
 001137,0.00000675,0.00000337,0.00025107,0.00014398,0.00010876,-0.00077
 791,0.00030056,0.00003420,-0.00040405,-0.00005004,0.00017327,-0.000068
 52,0.00004813,0.00000878,-0.00002518,-0.00007113,-0.00008332,0.0000046
 1,0.00001815,0.00002497,-0.00004409,-0.00015318,-0.00009990,0.00044070
 ,-0.00021009,-0.00011617,0.00000078,0.00002323,0.00000668,0.00001337,0
 .00001128,0.00001144,0.00135088,-0.00060574,0.00021124,-0.03413199,-0.
 12359829,0.11399751,0.04612670,0.13178885,0.00000887,0.00001512,-0.000
 01969,-0.00000484,0.00000367,-0.00000123,0.00000079,-0.00000157,-0.000
 00177,0.00000426,-0.00000202,-0.00000160,-0.00005117,-0.00008118,0.000
 06777,0.00036310,-0.00016285,-0.00005011,-0.00018723,0.00001046,0.0000
 6325,-0.00004172,0.00001608,0.00000830,0.00000991,0.00000739,-0.000011
 08,-0.00000495,-0.00000391,0.00000663,0.00004690,0.00012072,-0.0000118
 2,-0.00005630,-0.00002272,0.00003019,-0.00001978,-0.00001923,0.0000093
 1,-0.00000948,-0.00001297,0.00000679,-0.00021693,0.00027759,0.00014449
 ,0.05969383,0.12187577,-0.24542553,-0.05929072,-0.12750068,0.25252463,
 -0.00009874,-0.00013072,0.00004208,0.00000135,0.00000162,0.00001065,0.
 00000465,0.00000418,-0.00000546,-0.00005557,0.00002352,0.00001557,0.00
 100641,0.00090648,-0.00017336,-0.00372567,0.00218946,-0.00000316,-0.00
 030431,-0.00025071,0.00030301,-0.00004944,0.00006646,0.00003089,-0.000
 09832,-0.00025460,-0.00015653,0.00002136,0.00007370,0.00002644,-0.0003
 3205,-0.00051223,-0.00025993,0.00001751,0.00001452,0.00001046,0.000022
 29,0.00015719,0.00009653,0.00001684,0.00005835,0.00003706,0.00534383,-
 0.00498787,0.00090109,-0.17128749,0.12680085,-0.03615204,0.00861998,-0
 .00539635,0.00120602,0.19781950,-0.00004142,-0.00007490,0.00002488,0.0
 0000145,-0.00000104,0.00000466,0.00000145,0.00000272,-0.00000108,-0.00
 002796,0.00001038,0.00000872,0.00041413,0.00043340,-0.00010975,-0.0020
 9077,0.00132585,-0.00001945,-0.00010498,-0.00013768,0.00014001,-0.0000
 1506,0.00002274,0.00001653,-0.00004920,-0.00010938,-0.00006545,0.00001
 149,0.00003474,0.00000798,-0.00014331,-0.00039079,-0.00012174,0.000053
 84,0.00003367,-0.00003335,0.00002996,0.00010129,0.00004701,-0.00000255
 ,0.00003287,0.00003823,0.00197361,-0.00243284,0.00017721,0.13561551,-0
 .18864935,0.04261110,0.01061857,-0.00926812,0.00171320,-0.13569360,0.1
 9310433,-0.00002637,-0.00002833,0.00000591,-0.00000118,-0.00000003,0.0
 0000371,-0.00000023,0.00000072,-0.00000107,-0.00001393,0.00000630,0.00
 000536,0.00029456,0.00023830,-0.00004033,-0.00107356,0.00066087,-0.000
 13309,-0.00007798,-0.00006029,0.00006814,-0.00001239,0.00001068,0.0000
 0627,-0.00003044,-0.00006775,-0.00004773,0.00001014,0.00002275,0.00001
 164,-0.00002902,-0.00024717,-0.00007473,0.00001496,0.00001042,-0.00000
 927,0.00001213,0.00003382,0.00004031,-0.00000872,0.00002209,0.00004046
 ,0.00153933,-0.00142472,0.00041073,-0.03762057,0.03874640,-0.06636664,
 -0.01828092,0.01797732,-0.00325278,0.04687643,-0.04192544,0.06223149,-
 0.00002099,-0.00002154,0.00000322,-0.00000190,0.00000080,0.00000381,-0
 .00000226,0.00000187,-0.00000050,-0.00001180,0.00000800,0.00000317,0.0
 0023645,0.00016105,-0.00005097,-0.00070701,0.00030328,0.00007124,-0.00
 003767,0.00002842,0.00002567,0.00000617,0.00001030,0.00000687,-0.00005
 523,-0.00004356,-0.00001838,0.00005200,0.00002775,0.00001062,-0.000342
 27,0.00009780,0.00032902,-0.00044348,0.00019478,-0.00022677,-0.0000103
 3,0.00002036,0.00001220,-0.00045921,0.00018198,-0.00000772,0.00189595,
 -0.00110031,-0.00000935,-0.06071695,0.03447774,0.04340595,0.00015738,0
 .00554263,0.00472289,-0.00105884,0.01208017,0.01757093,0.06810700,-0.0
 0003515,-0.00004406,0.00001327,0.00000089,0.00000101,0.00000278,0.0000
 0118,0.00000290,-0.00000146,-0.00001855,0.00000794,0.00000546,0.000309
 78,0.00027409,-0.00009086,-0.00123961,0.00057999,-0.00007868,-0.000134
 62,-0.00006459,0.00013897,-0.00003470,0.00002059,-0.00000117,-0.000040
 91,-0.00006555,-0.00002192,0.00002898,0.00002334,0.00000761,-0.0000239
 6,-0.00057721,-0.00038501,0.00060692,-0.00022287,0.00031063,0.00002655
 ,0.00004779,0.00003212,0.00020013,-0.00002973,0.00007784,0.00212367,-0
 .00107848,0.00059390,0.03021724,-0.14832122,-0.12204711,-0.00209772,0.
 01309088,0.01304092,0.00472023,-0.01104495,-0.01747035,-0.02500258,0.1
 5828282,-0.00002273,-0.00001867,-0.00001282,-0.00000513,0.00000198,0.0
 0000241,-0.00000070,0.00000102,0.00000195,-0.00001043,0.00000503,0.000
 00465,0.00018371,0.00009272,0.00003855,-0.00084850,0.00047249,-0.00009
 740,-0.00027096,-0.00008737,0.00012392,-0.00005901,0.00003223,-0.00000
 215,-0.00003047,-0.00002202,-0.00002832,0.00002524,0.00001220,0.000008
 46,0.00012073,-0.00041422,-0.00010551,-0.00013659,0.00014423,-0.000208
 70,0.00004636,0.00005311,0.00003338,0.00015332,-0.00005420,0.00009151,
 0.00118517,-0.00084729,0.00020917,0.03646201,-0.12395291,-0.21663737,0
 .00495999,-0.01595684,-0.01698631,-0.00054777,0.00502172,0.00757066,-0
 .03493643,0.13978297,0.22699201,-0.00142639,-0.00171193,0.00046453,0.0
 0006996,0.00000692,0.00013159,0.00009399,0.00004015,-0.00007574,-0.000
 65291,0.00032305,0.00021719,0.00710479,0.01018708,-0.00168202,-0.06071
 609,0.03702573,-0.00422828,-0.00857660,-0.00485314,0.00642086,-0.00113
 114,0.00136238,0.00023685,-0.00124515,-0.00360688,-0.00228082,-0.00117
 811,0.00099794,-0.00014639,-0.00422813,-0.00812966,-0.00396610,0.00043
 836,0.00039230,0.00011361,0.00031938,0.00205137,0.00113943,0.00009172,
 0.00084405,0.00063617,0.02922273,-0.02819531,0.01681584,-0.16047901,-0
 .04793716,-0.04745964,-0.01826011,-0.01106302,-0.00404018,-0.03657995,
 -0.02313228,-0.01002464,-0.00852122,-0.01017051,-0.00622366,0.35160799
 ,0.00108178,0.00174542,-0.00106157,-0.00024988,0.00007188,-0.00001548,
 -0.00005999,-0.00004798,0.00004341,0.00052706,-0.00030188,-0.00015712,
 -0.00526111,-0.00967435,0.00379980,0.04108472,-0.00877669,0.00203135,-
 0.00237312,0.00199474,-0.00017480,-0.00055463,0.00041836,-0.00008464,0
 .00006730,0.00188862,0.00053963,0.00029122,0.00043591,0.00013123,0.000
 22479,0.00593491,0.00190608,-0.00034143,-0.00015423,-0.00008942,-0.000
 15514,-0.00070892,-0.00027528,-0.00007290,-0.00046805,-0.00032046,-0.0
 2810979,-0.01560636,-0.00755001,-0.05742289,-0.10477713,-0.01339239,-0
 .02364068,-0.01112608,-0.00763633,0.01103284,0.01577485,0.00375749,-0.
 02817357,-0.01129384,-0.00544879,0.15222174,0.23856333,-0.00036069,-0.
 00084927,0.00078687,0.00019987,-0.00006814,-0.00004407,0.00001609,0.00
 003328,-0.00002071,-0.00023278,0.00012863,0.00002777,0.00008319,0.0036
 4099,-0.00265479,-0.01216333,0.00480999,0.00772894,0.00458519,0.001656
 47,-0.00043589,0.00113854,-0.00099133,0.00037069,-0.00001933,-0.000625
 73,0.00049321,-0.00030397,0.00017436,0.00006418,-0.00194120,-0.0005729
 4,-0.00073483,0.00013431,-0.00003014,-0.00005990,0.00010595,0.00051928
 ,0.00019563,0.00000636,0.00016080,0.00011563,0.01259676,-0.00054500,-0
 .01832117,-0.01460442,0.00754363,-0.09790161,0.02667625,0.01335473,0.0
 1215679,-0.01148473,-0.00731601,-0.00021450,-0.02976536,-0.01309565,-0
 .00139692,-0.05212285,-0.13799935,0.40206392,0.00010092,-0.00061199,0.
 00138738,0.00039134,-0.00018480,-0.00009870,-0.00001148,0.00003316,0.0
 0000549,-0.00007129,0.00002752,-0.00001326,-0.00387135,0.00365637,-0.0
 0629158,-0.00454631,0.00009236,0.00139553,0.00468059,0.00037145,0.0004
 1208,0.00219400,-0.00176293,0.00018910,0.00040249,0.00033296,0.0019758
 3,-0.00004781,-0.00019940,-0.00068428,-0.00006840,0.00043722,0.0001827
 8,0.00001602,-0.00014088,-0.00004783,0.00000450,-0.00003082,-0.0000312
 5,0.00003407,-0.00000750,0.00002042,0.00922530,0.00447502,-0.00978225,
 -0.01482004,-0.01699875,0.02610694,-0.00376599,-0.00177492,-0.00213326
 ,0.00071666,0.00050096,0.00088146,0.00193421,0.00056273,-0.00004415,-0
 .08595411,-0.06011631,0.07745614,0.09345668,-0.00011467,-0.00013049,0.
 00018468,0.00004176,-0.00000114,0.00000175,-0.00001359,0.00000993,-0.0
 0000668,-0.00004806,0.00003450,0.00001193,0.00343982,0.00074938,-0.000
 51808,-0.00254794,0.00166724,-0.00100021,0.00042594,-0.00221984,0.0012
 4757,-0.00083937,0.00021404,0.00005030,-0.00017632,-0.00038365,-0.0002
 7028,-0.00005834,0.00023445,0.00000381,-0.00007589,-0.00108118,-0.0002
 2150,0.00002610,0.00003367,0.00004534,0.00000480,0.00015609,0.00007279
 ,0.00005314,0.00005727,0.00000717,0.00369749,-0.00837603,0.01145676,-0
 .00861423,-0.01070988,0.01307400,-0.00226769,-0.00033770,-0.00163745,0
 .00117670,0.00123220,-0.00026309,0.00120465,0.00041115,0.00118261,-0.0
 6665284,-0.10389252,0.13007140,0.07133856,0.12233250,0.00000508,0.0003
 2732,-0.00085724,-0.00021582,0.00008905,0.00006122,0.00002897,-0.00002
 927,0.00000130,0.00005661,-0.00003927,-0.00000153,-0.00182690,-0.00124
 640,0.00312729,0.00245288,-0.00063063,0.00010340,-0.00045416,0.0001800
 1,-0.00374407,-0.00075147,0.00059016,-0.00059195,-0.00001076,-0.000009
 91,-0.00093117,-0.00028873,0.00006547,0.00012234,0.00007976,0.00039311
 ,0.00022042,-0.00001458,0.00002491,-0.00000868,-0.00001325,-0.00008187
 ,-0.00005902,-0.00001639,-0.00002755,-0.00003432,-0.00409780,0.0047002
 6,-0.00354161,-0.00513544,-0.00963917,0.01293102,-0.00306228,-0.002136
 87,0.00074377,-0.00077325,-0.00021897,-0.00025452,-0.00115012,-0.00081
 423,0.00039885,0.10607424,0.16199665,-0.30221924,-0.09088660,-0.153492
 81,0.29453373\\0.00272385,0.00076385,-0.00963562,-0.00618776,0.0056571
 2,-0.00465704,-0.00065485,-0.00018895,-0.00052543,0.00033225,0.0005539
 9,-0.00011721,-0.03267944,0.02317546,-0.01060635,0.00722323,0.01321693
 ,-0.01206748,0.04726259,-0.02039795,0.04543790,-0.00610901,-0.01714485
 ,0.01255469,-0.00264503,-0.00825403,-0.02305831,-0.00429569,0.00300202
 ,0.00307479,0.00032460,-0.00287786,-0.00484754,-0.00002043,0.00102467,
 0.00067113,0.00001114,0.00043205,0.00036126,-0.00000973,-0.00068006,0.
 00156267,-0.00609143,0.00215741,0.00152010,-0.00103200,-0.00046543,-0.
 00069073,0.00030575,0.00021173,-0.00003989,0.00048777,-0.00012417,0.00
 028613,0.00022564,0.00008464,0.00032851,0.00637735,0.00400578,-0.00923
 534,-0.00554882,-0.00415236,0.00968378\\\@


 MAN IS A SINGULAR CREATURE.  HE HAS A SET OF GIFTS
 WHICH MAKE HIM UNIQUE AMONG THE ANIMALS: SO THAT, 
 UNLIKE THEM, HE IS NOT A FIGURE IN THE LANDSCAPE --
 HE IS A SHAPER OF THE LANDSCAPE.

                       -- JACOB BRONOWSKI
 Job cpu time:       0 days  0 hours 13 minutes 26.2 seconds.
 File lengths (MBytes):  RWF=    119 Int=      0 D2E=      0 Chk=      7 Scr=      1
 Normal termination of Gaussian 09 at Wed Sep 23 12:46:29 2015.
