 Entering Link 1 = C:\G09W\l1.exe PID=      4128.
  
 Copyright (c) 1988,1990,1992,1993,1995,1998,2003,2009, Gaussian, Inc.
                  All Rights Reserved.
  
 This is part of the Gaussian(R) 09 program.  It is based on
 the Gaussian(R) 03 system (copyright 2003, Gaussian, Inc.),
 the Gaussian(R) 98 system (copyright 1998, Gaussian, Inc.),
 the Gaussian(R) 94 system (copyright 1995, Gaussian, Inc.),
 the Gaussian 92(TM) system (copyright 1992, Gaussian, Inc.),
 the Gaussian 90(TM) system (copyright 1990, Gaussian, Inc.),
 the Gaussian 88(TM) system (copyright 1988, Gaussian, Inc.),
 the Gaussian 86(TM) system (copyright 1986, Carnegie Mellon
 University), and the Gaussian 82(TM) system (copyright 1983,
 Carnegie Mellon University). Gaussian is a federally registered
 trademark of Gaussian, Inc.
  
 This software contains proprietary and confidential information,
 including trade secrets, belonging to Gaussian, Inc.
  
 This software is provided under written license and may be
 used, copied, transmitted, or stored only in accord with that
 written license.
  
 The following legend is applicable only to US Government
 contracts under FAR:
  
                    RESTRICTED RIGHTS LEGEND
  
 Use, reproduction and disclosure by the US Government is
 subject to restrictions as set forth in subparagraphs (a)
 and (c) of the Commercial Computer Software - Restricted
 Rights clause in FAR 52.227-19.
  
 Gaussian, Inc.
 340 Quinnipiac St., Bldg. 40, Wallingford CT 06492
  
  
 ---------------------------------------------------------------
 Warning -- This program may not be used in any manner that
 competes with the business of Gaussian, Inc. or will provide
 assistance to any competitor of Gaussian, Inc.  The licensee
 of this program is prohibited from giving any competitor of
 Gaussian, Inc. access to this program.  By using this program,
 the user acknowledges that Gaussian, Inc. is engaged in the
 business of creating and licensing software in the field of
 computational chemistry and represents and warrants to the
 licensee that it is not a competitor of Gaussian, Inc. and that
 it will not use this program in any manner prohibited above.
 ---------------------------------------------------------------
  

 Cite this work as:
 Gaussian 09, Revision A.02,
 M. J. Frisch, G. W. Trucks, H. B. Schlegel, G. E. Scuseria, 
 M. A. Robb, J. R. Cheeseman, G. Scalmani, V. Barone, B. Mennucci, 
 G. A. Petersson, H. Nakatsuji, M. Caricato, X. Li, H. P. Hratchian, 
 A. F. Izmaylov, J. Bloino, G. Zheng, J. L. Sonnenberg, M. Hada, 
 M. Ehara, K. Toyota, R. Fukuda, J. Hasegawa, M. Ishida, T. Nakajima, 
 Y. Honda, O. Kitao, H. Nakai, T. Vreven, J. A. Montgomery, Jr., 
 J. E. Peralta, F. Ogliaro, M. Bearpark, J. J. Heyd, E. Brothers, 
 K. N. Kudin, V. N. Staroverov, R. Kobayashi, J. Normand, 
 K. Raghavachari, A. Rendell, J. C. Burant, S. S. Iyengar, J. Tomasi, 
 M. Cossi, N. Rega, J. M. Millam, M. Klene, J. E. Knox, J. B. Cross, 
 V. Bakken, C. Adamo, J. Jaramillo, R. Gomperts, R. E. Stratmann, 
 O. Yazyev, A. J. Austin, R. Cammi, C. Pomelli, J. W. Ochterski, 
 R. L. Martin, K. Morokuma, V. G. Zakrzewski, G. A. Voth, 
 P. Salvador, J. J. Dannenberg, S. Dapprich, A. D. Daniels, 
 O. Farkas, J. B. Foresman, J. V. Ortiz, J. Cioslowski, 
 and D. J. Fox, Gaussian, Inc., Wallingford CT, 2009.
 
 ******************************************
 Gaussian 09:  IA32W-G09RevA.02 11-Jun-2009
                13-Nov-2015 
 ******************************************
 ---------------------------------------------------
 # opt=maxcycle=15 x3lyp/6-31+g(d) geom=connectivity
 ---------------------------------------------------
 1/6=15,14=-1,18=20,19=15,26=3,38=1,57=2/1,3;
 2/9=110,12=2,17=6,18=5,40=1/2;
 3/5=1,6=6,7=11,11=2,16=1,25=1,30=1,71=1,74=-33/1,2,3;
 4//1;
 5/5=2,38=5/2;
 6/7=2,8=2,9=2,10=2,28=1/1;
 7//1,2,3,16;
 1/6=15,14=-1,18=20,19=15/3(2);
 2/9=110/2;
 99//99;
 2/9=110/2;
 3/5=1,6=6,7=11,11=2,16=1,25=1,30=1,71=1,74=-33/1,2,3;
 4/5=5,16=3/1;
 5/5=2,38=5/2;
 7//1,2,3,16;
 1/6=15,14=-1,18=20,19=15/3(-5);
 2/9=110/2;
 6/7=2,8=2,9=2,10=2,19=2,28=1/1;
 99/9=1/99;
 -------------------
 Title Card Required
 -------------------
 Symbolic Z-matrix:
 Charge =  1 Multiplicity = 1
 C                    -2.54609   0.25786   0.10869 
 H                    -2.89202   0.66627  -0.86188 
 H                    -2.60437   1.04142   0.86317 
 H                    -3.21932  -0.55084   0.40251 
 C                    -1.16578  -0.30973  -0.00729 
 O                    -0.21232   0.7394   -0.56379 
 O                    -0.2301   -0.70121   1.367 
 H                    -0.68003  -1.43188   1.88844 
 O                    -1.1216   -1.34202  -0.90185 
 H                    -0.36888  -1.91545  -0.67929 
 C                    -0.12539   2.04059   0.10673 
 H                     0.73099   2.54249  -0.34205 
 H                    -1.03895   2.58941  -0.10813 
 H                     0.01873   1.88327   1.17799 
 H                     0.75466   0.27939  -0.54011 
 C                     3.19012   0.04519  -0.00886 
 H                     3.4286    0.62079  -0.90426 
 H                     3.91532  -0.76396   0.11683 
 H                     3.1991    0.69668   0.87035 
 O                     1.87632  -0.52257  -0.21093 
 H                     1.50503  -0.88886   0.65678 
 

 GradGradGradGradGradGradGradGradGradGradGradGradGradGradGradGradGradGrad
 Berny optimization.
 Initialization pass.
                           ----------------------------
                           !    Initial Parameters    !
                           ! (Angstroms and Degrees)  !
 --------------------------                            --------------------------
 ! Name  Definition              Value          Derivative Info.                !
 --------------------------------------------------------------------------------
 ! R1    R(1,2)                  1.1084         estimate D2E/DX2                !
 ! R2    R(1,3)                  1.0893         estimate D2E/DX2                !
 ! R3    R(1,4)                  1.0925         estimate D2E/DX2                !
 ! R4    R(1,5)                  1.497          estimate D2E/DX2                !
 ! R5    R(5,6)                  1.523          estimate D2E/DX2                !
 ! R6    R(5,7)                  1.708          estimate D2E/DX2                !
 ! R7    R(5,9)                  1.3667         estimate D2E/DX2                !
 ! R8    R(6,11)                 1.4664         estimate D2E/DX2                !
 ! R9    R(6,15)                 1.0711         estimate D2E/DX2                !
 ! R10   R(7,8)                  1.0041         estimate D2E/DX2                !
 ! R11   R(9,10)                 0.9721         estimate D2E/DX2                !
 ! R12   R(11,12)                1.0894         estimate D2E/DX2                !
 ! R13   R(11,13)                1.0872         estimate D2E/DX2                !
 ! R14   R(11,14)                1.0923         estimate D2E/DX2                !
 ! R15   R(15,20)                1.4176         estimate D2E/DX2                !
 ! R16   R(16,17)                1.0908         estimate D2E/DX2                !
 ! R17   R(16,18)                1.0938         estimate D2E/DX2                !
 ! R18   R(16,19)                1.0943         estimate D2E/DX2                !
 ! R19   R(16,20)                1.4454         estimate D2E/DX2                !
 ! R20   R(20,21)                1.0124         estimate D2E/DX2                !
 ! A1    A(2,1,3)              108.9515         estimate D2E/DX2                !
 ! A2    A(2,1,4)              108.4175         estimate D2E/DX2                !
 ! A3    A(2,1,5)              111.0789         estimate D2E/DX2                !
 ! A4    A(3,1,4)              108.253          estimate D2E/DX2                !
 ! A5    A(3,1,5)              112.0692         estimate D2E/DX2                !
 ! A6    A(4,1,5)              107.9616         estimate D2E/DX2                !
 ! A7    A(1,5,6)              110.1447         estimate D2E/DX2                !
 ! A8    A(1,5,7)              121.9846         estimate D2E/DX2                !
 ! A9    A(1,5,9)              111.5252         estimate D2E/DX2                !
 ! A10   A(6,5,7)               96.2538         estimate D2E/DX2                !
 ! A11   A(6,5,9)              105.1234         estimate D2E/DX2                !
 ! A12   A(7,5,9)              109.6226         estimate D2E/DX2                !
 ! A13   A(5,6,11)             118.7698         estimate D2E/DX2                !
 ! A14   A(5,6,15)             105.1456         estimate D2E/DX2                !
 ! A15   A(11,6,15)            108.5102         estimate D2E/DX2                !
 ! A16   A(5,7,8)              109.8249         estimate D2E/DX2                !
 ! A17   A(5,9,10)             108.7073         estimate D2E/DX2                !
 ! A18   A(6,11,12)            105.489          estimate D2E/DX2                !
 ! A19   A(6,11,13)            107.925          estimate D2E/DX2                !
 ! A20   A(6,11,14)            109.1761         estimate D2E/DX2                !
 ! A21   A(12,11,13)           110.2795         estimate D2E/DX2                !
 ! A22   A(12,11,14)           111.5097         estimate D2E/DX2                !
 ! A23   A(13,11,14)           112.1725         estimate D2E/DX2                !
 ! A24   A(6,15,20)            164.2436         estimate D2E/DX2                !
 ! A25   A(17,16,18)           109.8592         estimate D2E/DX2                !
 ! A26   A(17,16,19)           110.0934         estimate D2E/DX2                !
 ! A27   A(17,16,20)           106.9312         estimate D2E/DX2                !
 ! A28   A(18,16,19)           110.0383         estimate D2E/DX2                !
 ! A29   A(18,16,20)           109.1549         estimate D2E/DX2                !
 ! A30   A(19,16,20)           110.7091         estimate D2E/DX2                !
 ! A31   A(15,20,16)           121.9673         estimate D2E/DX2                !
 ! A32   A(15,20,21)            96.5186         estimate D2E/DX2                !
 ! A33   A(16,20,21)           110.8331         estimate D2E/DX2                !
 ! D1    D(2,1,5,6)             55.0141         estimate D2E/DX2                !
 ! D2    D(2,1,5,7)            166.476          estimate D2E/DX2                !
 ! D3    D(2,1,5,9)            -61.3082         estimate D2E/DX2                !
 ! D4    D(3,1,5,6)            -67.1163         estimate D2E/DX2                !
 ! D5    D(3,1,5,7)             44.3456         estimate D2E/DX2                !
 ! D6    D(3,1,5,9)            176.5615         estimate D2E/DX2                !
 ! D7    D(4,1,5,6)            173.7581         estimate D2E/DX2                !
 ! D8    D(4,1,5,7)            -74.78           estimate D2E/DX2                !
 ! D9    D(4,1,5,9)             57.4359         estimate D2E/DX2                !
 ! D10   D(1,5,6,11)            54.0636         estimate D2E/DX2                !
 ! D11   D(1,5,6,15)           175.6534         estimate D2E/DX2                !
 ! D12   D(7,5,6,11)           -73.3657         estimate D2E/DX2                !
 ! D13   D(7,5,6,15)            48.224          estimate D2E/DX2                !
 ! D14   D(9,5,6,11)           174.3272         estimate D2E/DX2                !
 ! D15   D(9,5,6,15)           -64.0831         estimate D2E/DX2                !
 ! D16   D(1,5,7,8)             63.4106         estimate D2E/DX2                !
 ! D17   D(6,5,7,8)           -178.1064         estimate D2E/DX2                !
 ! D18   D(9,5,7,8)            -69.5818         estimate D2E/DX2                !
 ! D19   D(1,5,9,10)          -155.5742         estimate D2E/DX2                !
 ! D20   D(6,5,9,10)            85.0794         estimate D2E/DX2                !
 ! D21   D(7,5,9,10)           -17.4038         estimate D2E/DX2                !
 ! D22   D(5,6,11,12)          169.8665         estimate D2E/DX2                !
 ! D23   D(5,6,11,13)          -72.2516         estimate D2E/DX2                !
 ! D24   D(5,6,11,14)           49.9193         estimate D2E/DX2                !
 ! D25   D(15,6,11,12)          49.9887         estimate D2E/DX2                !
 ! D26   D(15,6,11,13)         167.8706         estimate D2E/DX2                !
 ! D27   D(15,6,11,14)         -69.9585         estimate D2E/DX2                !
 ! D28   D(5,6,15,20)          -28.3619         estimate D2E/DX2                !
 ! D29   D(11,6,15,20)          99.6942         estimate D2E/DX2                !
 ! D30   D(6,15,20,16)        -129.1515         estimate D2E/DX2                !
 ! D31   D(6,15,20,21)          -9.5965         estimate D2E/DX2                !
 ! D32   D(17,16,20,15)        -54.5838         estimate D2E/DX2                !
 ! D33   D(17,16,20,21)       -166.9582         estimate D2E/DX2                !
 ! D34   D(18,16,20,15)       -173.3774         estimate D2E/DX2                !
 ! D35   D(18,16,20,21)         74.2483         estimate D2E/DX2                !
 ! D36   D(19,16,20,15)         65.3505         estimate D2E/DX2                !
 ! D37   D(19,16,20,21)        -47.0238         estimate D2E/DX2                !
 --------------------------------------------------------------------------------
 Trust Radius=3.00D-01 FncErr=1.00D-07 GrdErr=1.00D-06
 Number of steps in this run=  15 maximum allowed number of steps= 126.
 GradGradGradGradGradGradGradGradGradGradGradGradGradGradGradGradGradGrad

                          Input orientation:                          
 ---------------------------------------------------------------------
 Center     Atomic      Atomic             Coordinates (Angstroms)
 Number     Number       Type             X           Y           Z
 ---------------------------------------------------------------------
      1          6           0       -2.546094    0.257860    0.108690
      2          1           0       -2.892016    0.666266   -0.861879
      3          1           0       -2.604371    1.041415    0.863170
      4          1           0       -3.219321   -0.550841    0.402510
      5          6           0       -1.165779   -0.309727   -0.007286
      6          8           0       -0.212316    0.739395   -0.563791
      7          8           0       -0.230095   -0.701206    1.367002
      8          1           0       -0.680025   -1.431877    1.888438
      9          8           0       -1.121597   -1.342016   -0.901853
     10          1           0       -0.368879   -1.915449   -0.679287
     11          6           0       -0.125393    2.040593    0.106726
     12          1           0        0.730992    2.542485   -0.342045
     13          1           0       -1.038946    2.589414   -0.108129
     14          1           0        0.018727    1.883273    1.177994
     15          1           0        0.754663    0.279388   -0.540108
     16          6           0        3.190122    0.045189   -0.008856
     17          1           0        3.428601    0.620789   -0.904261
     18          1           0        3.915322   -0.763955    0.116825
     19          1           0        3.199100    0.696679    0.870347
     20          8           0        1.876316   -0.522568   -0.210926
     21          1           0        1.505028   -0.888864    0.656775
 ---------------------------------------------------------------------
                    Distance matrix (angstroms):
                    1          2          3          4          5
     1  C    0.000000
     2  H    1.108360   0.000000
     3  H    1.089309   1.788650   0.000000
     4  H    1.092503   1.785261   1.767951   0.000000
     5  C    1.496955   2.159348   2.157041   2.107867   0.000000
     6  O    2.476010   2.697220   2.801671   3.411821   1.522973
     7  O    2.804819   3.731449   2.987936   3.144571   1.708048
     8  H    3.083006   4.106014   3.297189   3.071194   2.255869
     9  O    2.368542   2.677532   3.315821   2.593794   1.366683
    10  H    3.175602   3.614528   4.014927   3.340278   1.914413
    11  C    3.006316   3.237464   2.777750   4.046654   2.572821
    12  H    4.020195   4.112981   3.851026   5.072278   3.441645
    13  H    2.784717   2.774979   2.406300   3.856940   2.903666
    14  H    3.219268   3.756942   2.772811   4.124469   2.759926
    15  H    3.363986   3.681233   3.719272   4.167776   2.078233
    16  C    5.741360   6.172989   5.943824   6.450227   4.370337
    17  H    6.070813   6.320923   6.300594   6.875699   4.772709
    18  H    6.541718   7.024475   6.806085   7.143540   5.102873
    19  H    5.812051   6.332711   5.813705   6.555250   4.564566
    20  O    4.502103   4.957223   4.865828   5.132506   3.056323
    21  H    4.245817   4.904970   4.544858   4.743246   2.812399
                    6          7          8          9         10
     6  O    0.000000
     7  O    2.409068   0.000000
     8  H    3.308565   1.004098   0.000000
     9  O    2.296377   2.520539   2.826444   0.000000
    10  H    2.661963   2.383473   2.631324   0.972083   0.000000
    11  C    1.466378   3.019391   3.942101   3.667656   4.040714
    12  H    2.046982   3.790259   4.770909   4.339910   4.603979
    13  H    2.076900   3.695732   4.503985   4.011605   4.590098
    14  H    2.096581   2.603299   3.461677   4.003572   4.246177
    15  H    1.071082   2.359742   3.299181   2.506025   2.469621
    16  C    3.516598   3.761379   4.556258   4.616568   4.118260
    17  H    3.658724   4.504705   5.375259   4.955493   4.572086
    18  H    4.445300   4.330284   4.970105   5.171307   4.507118
    19  H    3.700856   3.736325   4.540360   5.095625   4.685622
    20  O    2.465654   2.637942   3.430605   3.183765   2.683352
    21  H    2.662758   1.884221   2.566381   3.087690   2.520013
                   11         12         13         14         15
    11  C    0.000000
    12  H    1.089351   0.000000
    13  H    1.087174   1.785945   0.000000
    14  H    1.092307   1.803441   1.808707   0.000000
    15  H    2.072374   2.271871   2.956325   2.462910   0.000000
    16  C    3.871387   3.520628   4.936391   3.852910   2.503705
    17  H    3.958385   3.359479   4.946543   4.190095   2.720130
    18  H    4.918635   4.613357   5.986690   4.828804   3.392623
    19  H    3.666262   3.311865   4.743511   3.408434   2.852856
    20  O    3.267650   3.274677   4.265413   3.341827   1.417603
    21  H    3.397432   3.656628   4.376677   3.188339   1.833136
                   16         17         18         19         20
    16  C    0.000000
    17  H    1.090843   0.000000
    18  H    1.093812   1.788024   0.000000
    19  H    1.094312   1.790995   1.792825   0.000000
    20  O    1.445430   2.048797   2.079239   2.098922   0.000000
    21  H    2.038397   2.901038   2.473189   2.330116   1.012390
                   21
    21  H    0.000000
 Stoichiometry    C4H13O4(1+)
 Framework group  C1[X(C4H13O4)]
 Deg. of freedom    57
 Full point group                 C1      NOp   1
 Largest Abelian subgroup         C1      NOp   1
 Largest concise Abelian subgroup C1      NOp   1
                         Standard orientation:                         
 ---------------------------------------------------------------------
 Center     Atomic      Atomic             Coordinates (Angstroms)
 Number     Number       Type             X           Y           Z
 ---------------------------------------------------------------------
      1          6           0       -2.565869    0.223640    0.090437
      2          1           0       -2.911791    0.632046   -0.880132
      3          1           0       -2.624147    1.007195    0.844917
      4          1           0       -3.239096   -0.585062    0.384257
      5          6           0       -1.185554   -0.343946   -0.025539
      6          8           0       -0.232092    0.705177   -0.582044
      7          8           0       -0.249869   -0.735424    1.348749
      8          1           0       -0.699799   -1.466096    1.870185
      9          8           0       -1.141371   -1.376235   -0.920106
     10          1           0       -0.388652   -1.949667   -0.697540
     11          6           0       -0.145170    2.006375    0.088473
     12          1           0        0.711215    2.508267   -0.360298
     13          1           0       -1.058723    2.555195   -0.126382
     14          1           0       -0.001049    1.849055    1.159741
     15          1           0        0.734888    0.245170   -0.558361
     16          6           0        3.170347    0.010973   -0.027109
     17          1           0        3.408826    0.586574   -0.922514
     18          1           0        3.895548   -0.798170    0.098572
     19          1           0        3.179324    0.662463    0.852094
     20          8           0        1.856541   -0.556785   -0.229179
     21          1           0        1.485254   -0.923081    0.638522
 ---------------------------------------------------------------------
 Rotational constants (GHZ):      2.7017474      1.1993652      1.0285174
 Standard basis: 6-31+G(d) (6D, 7F)
 There are   178 symmetry adapted basis functions of A   symmetry.
 Integral buffers will be    262144 words long.
 Raffenetti 2 integral format.
 Two-electron integral symmetry is turned on.
   178 basis functions,   308 primitive gaussians,   178 cartesian basis functions
    34 alpha electrons       34 beta electrons
       nuclear repulsion energy       453.8916009761 Hartrees.
 NAtoms=   21 NActive=   21 NUniq=   21 SFac= 7.50D-01 NAtFMM=   80 NAOKFM=F Big=F
 One-electron integrals computed using PRISM.
 NBasis=   178 RedAO= T  NBF=   178
 NBsUse=   178 1.00D-06 NBFU=   178
 Harris functional with IExCor= 3102 diagonalized for initial guess.
 ExpMin= 4.38D-02 ExpMax= 5.48D+03 ExpMxC= 8.25D+02 IAcc=2 IRadAn=         0 AccDes= 0.00D+00
 HarFok:  IExCor= 3102 AccDes= 0.00D+00 IRadAn=         0 IDoV= 1
 ScaDFX=  1.000000  1.000000  1.000000  1.000000
 FoFCou: FMM=F IPFlag=           0 FMFlag=      100000 FMFlg1=           0
         NFxFlg=           0 DoJE=T BraDBF=F KetDBF=T FulRan=T
         Omega=  0.000000  0.000000  1.000000  0.000000  0.000000 ICntrl=     500 IOpCl=  0
         NMat0=    1 NMatS0=    1 NMatT0=    0 NMatD0=    1 NMtDS0=    0 NMtDT0=    0
         I1Cent=           4 NGrid=           0.
 Petite list used in FoFCou.
 Initial guess orbital symmetries:
       Occupied  (A) (A) (A) (A) (A) (A) (A) (A) (A) (A) (A) (A)
                 (A) (A) (A) (A) (A) (A) (A) (A) (A) (A) (A) (A)
                 (A) (A) (A) (A) (A) (A) (A) (A) (A) (A)
       Virtual   (A) (A) (A) (A) (A) (A) (A) (A) (A) (A) (A) (A)
                 (A) (A) (A) (A) (A) (A) (A) (A) (A) (A) (A) (A)
                 (A) (A) (A) (A) (A) (A) (A) (A) (A) (A) (A) (A)
                 (A) (A) (A) (A) (A) (A) (A) (A) (A) (A) (A) (A)
                 (A) (A) (A) (A) (A) (A) (A) (A) (A) (A) (A) (A)
                 (A) (A) (A) (A) (A) (A) (A) (A) (A) (A) (A) (A)
                 (A) (A) (A) (A) (A) (A) (A) (A) (A) (A) (A) (A)
                 (A) (A) (A) (A) (A) (A) (A) (A) (A) (A) (A) (A)
                 (A) (A) (A) (A) (A) (A) (A) (A) (A) (A) (A) (A)
                 (A) (A) (A) (A) (A) (A) (A) (A) (A) (A) (A) (A)
                 (A) (A) (A) (A) (A) (A) (A) (A) (A) (A) (A) (A)
                 (A) (A) (A) (A) (A) (A) (A) (A) (A) (A) (A) (A)
 The electronic state of the initial guess is 1-A.
 Requested convergence on RMS density matrix=1.00D-08 within 128 cycles.
 Requested convergence on MAX density matrix=1.00D-06.
 Requested convergence on             energy=1.00D-06.
 No special actions if energy rises.
 SCF Done:  E(RX3LYP) =  -460.654477518     A.U. after   13 cycles
             Convg  =    0.3675D-08             -V/T =  2.0097

 **********************************************************************

            Population analysis using the SCF density.

 **********************************************************************

 Orbital symmetries:
       Occupied  (A) (A) (A) (A) (A) (A) (A) (A) (A) (A) (A) (A)
                 (A) (A) (A) (A) (A) (A) (A) (A) (A) (A) (A) (A)
                 (A) (A) (A) (A) (A) (A) (A) (A) (A) (A)
       Virtual   (A) (A) (A) (A) (A) (A) (A) (A) (A) (A) (A) (A)
                 (A) (A) (A) (A) (A) (A) (A) (A) (A) (A) (A) (A)
                 (A) (A) (A) (A) (A) (A) (A) (A) (A) (A) (A) (A)
                 (A) (A) (A) (A) (A) (A) (A) (A) (A) (A) (A) (A)
                 (A) (A) (A) (A) (A) (A) (A) (A) (A) (A) (A) (A)
                 (A) (A) (A) (A) (A) (A) (A) (A) (A) (A) (A) (A)
                 (A) (A) (A) (A) (A) (A) (A) (A) (A) (A) (A) (A)
                 (A) (A) (A) (A) (A) (A) (A) (A) (A) (A) (A) (A)
                 (A) (A) (A) (A) (A) (A) (A) (A) (A) (A) (A) (A)
                 (A) (A) (A) (A) (A) (A) (A) (A) (A) (A) (A) (A)
                 (A) (A) (A) (A) (A) (A) (A) (A) (A) (A) (A) (A)
                 (A) (A) (A) (A) (A) (A) (A) (A) (A) (A) (A) (A)
 The electronic state is 1-A.
 Alpha  occ. eigenvalues --  -19.46175 -19.40833 -19.39626 -19.38894 -10.59475
 Alpha  occ. eigenvalues --  -10.44876 -10.41059 -10.39246  -1.32175  -1.25487
 Alpha  occ. eigenvalues --   -1.21604  -1.16724  -0.96306  -0.91452  -0.85997
 Alpha  occ. eigenvalues --   -0.81223  -0.77111  -0.74872  -0.70103  -0.69391
 Alpha  occ. eigenvalues --   -0.65260  -0.63728  -0.62475  -0.61740  -0.60817
 Alpha  occ. eigenvalues --   -0.59717  -0.58367  -0.57486  -0.55227  -0.53340
 Alpha  occ. eigenvalues --   -0.53203  -0.51314  -0.49643  -0.47452
 Alpha virt. eigenvalues --   -0.18342  -0.15260  -0.12481  -0.12014  -0.11033
 Alpha virt. eigenvalues --   -0.10203  -0.08661  -0.08154  -0.07399  -0.06623
 Alpha virt. eigenvalues --   -0.06446  -0.06088  -0.04737  -0.03434  -0.03206
 Alpha virt. eigenvalues --   -0.01979  -0.00837  -0.00474   0.00643   0.01164
 Alpha virt. eigenvalues --    0.01923   0.02503   0.02878   0.03677   0.04605
 Alpha virt. eigenvalues --    0.05881   0.06309   0.07351   0.07908   0.08190
 Alpha virt. eigenvalues --    0.08912   0.10173   0.10651   0.10965   0.11700
 Alpha virt. eigenvalues --    0.12505   0.14244   0.14878   0.15137   0.15990
 Alpha virt. eigenvalues --    0.17335   0.18090   0.18768   0.19925   0.20892
 Alpha virt. eigenvalues --    0.21411   0.24364   0.25169   0.25924   0.28071
 Alpha virt. eigenvalues --    0.35069   0.46041   0.48829   0.49804   0.51586
 Alpha virt. eigenvalues --    0.52362   0.53565   0.56270   0.59151   0.60001
 Alpha virt. eigenvalues --    0.62066   0.66111   0.67780   0.75159   0.76834
 Alpha virt. eigenvalues --    0.80377   0.81701   0.83658   0.83766   0.84684
 Alpha virt. eigenvalues --    0.89936   0.90123   0.92533   0.92696   0.93685
 Alpha virt. eigenvalues --    0.97677   0.98240   1.00128   1.02372   1.04259
 Alpha virt. eigenvalues --    1.06038   1.07247   1.07622   1.12402   1.13819
 Alpha virt. eigenvalues --    1.14671   1.16311   1.20245   1.22794   1.24060
 Alpha virt. eigenvalues --    1.29730   1.31199   1.32076   1.37322   1.39576
 Alpha virt. eigenvalues --    1.41832   1.42688   1.45906   1.50901   1.53086
 Alpha virt. eigenvalues --    1.57028   1.59065   1.60372   1.62308   1.64189
 Alpha virt. eigenvalues --    1.66958   1.70606   1.74309   1.82016   1.82830
 Alpha virt. eigenvalues --    1.83964   1.87857   1.92685   1.94993   1.96429
 Alpha virt. eigenvalues --    1.99622   2.01732   2.02528   2.07387   2.11205
 Alpha virt. eigenvalues --    2.14183   2.16668   2.18355   2.20507   2.24875
 Alpha virt. eigenvalues --    2.29242   2.34375   2.35787   2.39945   2.45344
 Alpha virt. eigenvalues --    2.57180   2.62606   2.68340   2.70824   2.73048
 Alpha virt. eigenvalues --    2.82913   3.95191   4.00867   4.02793   4.06855
 Alpha virt. eigenvalues --    4.16244   4.19394   4.28038   4.41671
          Condensed to atoms (all electrons):
              1          2          3          4          5          6
     1  C    6.201845   0.399071   0.375011   0.355018  -0.467755  -0.103225
     2  H    0.399071   0.416452  -0.023378  -0.016687  -0.068703   0.002882
     3  H    0.375011  -0.023378   0.448678  -0.020206  -0.041476  -0.004087
     4  H    0.355018  -0.016687  -0.020206   0.414368  -0.009117   0.005678
     5  C   -0.467755  -0.068703  -0.041476  -0.009117   5.619023   0.074479
     6  O   -0.103225   0.002882  -0.004087   0.005678   0.074479   8.881938
     7  O   -0.094066   0.005183  -0.003585  -0.002916   0.263134  -0.148973
     8  H   -0.015908  -0.000039  -0.000032   0.000347   0.032482   0.007082
     9  O   -0.145203  -0.002434   0.007406  -0.005393   0.352424  -0.097536
    10  H    0.041027  -0.000008  -0.000224  -0.000084  -0.033851  -0.008211
    11  C    0.037014  -0.001295   0.002586  -0.000355  -0.122466   0.019041
    12  H   -0.001124  -0.000008   0.000110  -0.000002   0.006898  -0.031995
    13  H    0.008038   0.000014  -0.001579   0.000017  -0.010176  -0.030169
    14  H   -0.006432   0.000124  -0.000155   0.000006  -0.009128  -0.055318
    15  H    0.003030   0.000068  -0.000080  -0.000076   0.002663   0.022962
    16  C   -0.003523   0.000021  -0.000082   0.000010  -0.006313   0.006340
    17  H    0.000302   0.000000   0.000000   0.000000  -0.000210   0.001319
    18  H   -0.000239   0.000000   0.000000   0.000000  -0.000440  -0.000602
    19  H   -0.000177   0.000000   0.000000   0.000000  -0.002027  -0.000747
    20  O   -0.007942   0.000213  -0.000279   0.000054   0.023258  -0.081199
    21  H    0.004687  -0.000011   0.000012  -0.000003  -0.004103   0.009831
              7          8          9         10         11         12
     1  C   -0.094066  -0.015908  -0.145203   0.041027   0.037014  -0.001124
     2  H    0.005183  -0.000039  -0.002434  -0.000008  -0.001295  -0.000008
     3  H   -0.003585  -0.000032   0.007406  -0.000224   0.002586   0.000110
     4  H   -0.002916   0.000347  -0.005393  -0.000084  -0.000355  -0.000002
     5  C    0.263134   0.032482   0.352424  -0.033851  -0.122466   0.006898
     6  O   -0.148973   0.007082  -0.097536  -0.008211   0.019041  -0.031995
     7  O    8.565653   0.173989  -0.030406  -0.001165   0.014076  -0.000389
     8  H    0.173989   0.295787  -0.004900  -0.000436  -0.002151   0.000004
     9  O   -0.030406  -0.004900   8.252929   0.190568  -0.000365  -0.000006
    10  H   -0.001165  -0.000436   0.190568   0.277948   0.000241   0.000000
    11  C    0.014076  -0.002151  -0.000365   0.000241   5.289361   0.377849
    12  H   -0.000389   0.000004  -0.000006   0.000000   0.377849   0.435909
    13  H   -0.001596   0.000003  -0.000894  -0.000001   0.386844  -0.018301
    14  H    0.012753  -0.000240   0.001003  -0.000016   0.391353  -0.023370
    15  H    0.009052  -0.000093   0.004580   0.001059   0.002282  -0.001157
    16  C   -0.001682  -0.000409   0.002179  -0.000062  -0.003333   0.000410
    17  H   -0.000291   0.000000  -0.000098   0.000007  -0.001928   0.000009
    18  H    0.000151   0.000002   0.000026  -0.000005   0.000692   0.000002
    19  H    0.001094  -0.000014   0.000011   0.000011   0.002187  -0.000004
    20  O   -0.026984   0.001123   0.023187   0.003966  -0.006960  -0.001061
    21  H    0.034797  -0.001792  -0.005798   0.000930  -0.002537   0.000044
             13         14         15         16         17         18
     1  C    0.008038  -0.006432   0.003030  -0.003523   0.000302  -0.000239
     2  H    0.000014   0.000124   0.000068   0.000021   0.000000   0.000000
     3  H   -0.001579  -0.000155  -0.000080  -0.000082   0.000000   0.000000
     4  H    0.000017   0.000006  -0.000076   0.000010   0.000000   0.000000
     5  C   -0.010176  -0.009128   0.002663  -0.006313  -0.000210  -0.000440
     6  O   -0.030169  -0.055318   0.022962   0.006340   0.001319  -0.000602
     7  O   -0.001596   0.012753   0.009052  -0.001682  -0.000291   0.000151
     8  H    0.000003  -0.000240  -0.000093  -0.000409   0.000000   0.000002
     9  O   -0.000894   0.001003   0.004580   0.002179  -0.000098   0.000026
    10  H   -0.000001  -0.000016   0.001059  -0.000062   0.000007  -0.000005
    11  C    0.386844   0.391353   0.002282  -0.003333  -0.001928   0.000692
    12  H   -0.018301  -0.023370  -0.001157   0.000410   0.000009   0.000002
    13  H    0.431556  -0.025499   0.001246   0.000271   0.000002   0.000000
    14  H   -0.025499   0.438103  -0.000258  -0.000167   0.000011  -0.000001
    15  H    0.001246  -0.000258   0.230118  -0.012191  -0.001768   0.001158
    16  C    0.000271  -0.000167  -0.012191   5.139222   0.400319   0.390758
    17  H    0.000002   0.000011  -0.001768   0.400319   0.464076  -0.021404
    18  H    0.000000  -0.000001   0.001158   0.390758  -0.021404   0.459962
    19  H    0.000002   0.000016   0.000472   0.397791  -0.028954  -0.029759
    20  O   -0.000003   0.000782   0.133297   0.075709  -0.048751  -0.037981
    21  H    0.000007   0.000039  -0.013351  -0.017608   0.004058  -0.003100
             19         20         21
     1  C   -0.000177  -0.007942   0.004687
     2  H    0.000000   0.000213  -0.000011
     3  H    0.000000  -0.000279   0.000012
     4  H    0.000000   0.000054  -0.000003
     5  C   -0.002027   0.023258  -0.004103
     6  O   -0.000747  -0.081199   0.009831
     7  O    0.001094  -0.026984   0.034797
     8  H   -0.000014   0.001123  -0.001792
     9  O    0.000011   0.023187  -0.005798
    10  H    0.000011   0.003966   0.000930
    11  C    0.002187  -0.006960  -0.002537
    12  H   -0.000004  -0.001061   0.000044
    13  H    0.000002  -0.000003   0.000007
    14  H    0.000016   0.000782   0.000039
    15  H    0.000472   0.133297  -0.013351
    16  C    0.397791   0.075709  -0.017608
    17  H   -0.028954  -0.048751   0.004058
    18  H   -0.029759  -0.037981  -0.003100
    19  H    0.510427  -0.063646  -0.003799
    20  O   -0.063646   8.666560   0.173794
    21  H   -0.003799   0.173794   0.264043
 Mulliken atomic charges:
              1
     1  C   -0.579449
     2  H    0.288535
     3  H    0.261360
     4  H    0.279341
     5  C    0.401405
     6  O   -0.469490
     7  O   -0.767828
     8  H    0.515194
     9  O   -0.541280
    10  H    0.528306
    11  C   -0.382137
    12  H    0.256182
    13  H    0.260217
    14  H    0.276397
    15  H    0.616985
    16  C   -0.367658
    17  H    0.233301
    18  H    0.240781
    19  H    0.217116
    20  O   -0.827137
    21  H    0.559860
 Sum of Mulliken atomic charges =   1.00000
 Mulliken charges with hydrogens summed into heavy atoms:
              1
     1  C    0.249786
     5  C    0.401405
     6  O    0.147495
     7  O   -0.252634
     9  O   -0.012974
    11  C    0.410659
    16  C    0.323540
    20  O   -0.267277
 Sum of Mulliken charges with hydrogens summed into heavy atoms =   1.00000
 Electronic spatial extent (au):  <R**2>=           1246.6257
 Charge=              1.0000 electrons
 Dipole moment (field-independent basis, Debye):
    X=              0.1035    Y=              1.1658    Z=              1.9381  Tot=              2.2641
 Quadrupole moment (field-independent basis, Debye-Ang):
   XX=            -26.0625   YY=            -34.8734   ZZ=            -47.9301
   XY=             -0.4174   XZ=             -1.7700   YZ=             -4.1511
 Traceless Quadrupole moment (field-independent basis, Debye-Ang):
   XX=             10.2261   YY=              1.4153   ZZ=            -11.6414
   XY=             -0.4174   XZ=             -1.7700   YZ=             -4.1511
 Octapole moment (field-independent basis, Debye-Ang**2):
  XXX=             19.3859  YYY=             -1.4243  ZZZ=              6.6200  XYY=             -1.2025
  XXY=              3.2033  XXZ=              4.3750  XZZ=              0.1887  YZZ=             -6.6009
  YYZ=              6.0338  XYZ=              2.3962
 Hexadecapole moment (field-independent basis, Debye-Ang**3):
 XXXX=           -771.0031 YYYY=           -300.1772 ZZZZ=           -171.0332 XXXY=            -10.3048
 XXXZ=             -1.3705 YYYX=             -1.8536 YYYZ=             -8.3352 ZZZX=             -7.0589
 ZZZY=            -17.4738 XXYY=           -218.7127 XXZZ=           -188.7146 YYZZ=            -76.0649
 XXYZ=            -17.3307 YYXZ=             -7.3439 ZZXY=              5.0277
 N-N= 4.538916009761D+02 E-N=-1.973295992903D+03  KE= 4.562338457840D+02
 Calling FoFJK, ICntrl=      2127 FMM=F ISym2X=0 I1Cent= 0 IOpClX= 0 NMat=1 NMatS=1 NMatT=0.
 ***** Axes restored to original set *****
 -------------------------------------------------------------------
 Center     Atomic                   Forces (Hartrees/Bohr)
 Number     Number              X              Y              Z
 -------------------------------------------------------------------
      1        6          -0.002629203    0.001168179    0.011877574
      2        1           0.007416092   -0.006008070    0.005365446
      3        1           0.000105120    0.001157239    0.001574168
      4        1          -0.001059075   -0.000116761   -0.000506329
      5        6           0.042091264   -0.018484457    0.005492883
      6        8          -0.010534040   -0.007072006    0.006999416
      7        8          -0.053991846   -0.001665975   -0.039361956
      8        1           0.004809856    0.019362341   -0.014186663
      9        8          -0.001116530    0.012429159    0.027348562
     10        1           0.003958329   -0.003210729   -0.006044354
     11        6          -0.000353639    0.003875783    0.005028095
     12        1          -0.000235262    0.000138375   -0.000621374
     13        1          -0.000281608    0.000206476   -0.000627260
     14        1          -0.000316207    0.000890643   -0.001002884
     15        1           0.009029187   -0.004527793   -0.000123651
     16        6           0.005896069    0.000616451   -0.000064488
     17        1           0.000328846   -0.001069166   -0.000124362
     18        1          -0.000777845    0.001002409   -0.000734905
     19        1          -0.000089362    0.000157294   -0.000333142
     20        8          -0.013613916   -0.007609855    0.020889702
     21        1           0.011363770    0.008760462   -0.020844477
 -------------------------------------------------------------------
 Cartesian Forces:  Max     0.053991846 RMS     0.012702172

 GradGradGradGradGradGradGradGradGradGradGradGradGradGradGradGradGradGrad
 Berny optimization.
 Internal  Forces:  Max     0.074091215 RMS     0.009949203
 Search for a local minimum.
 Step number   1 out of a maximum of   15
 All quantities printed in internal units (Hartrees-Bohrs-Radians)
 Mixed Optimization -- RFO/linear search
 Second derivative matrix not updated -- first step.
     Eigenvalues ---    0.00230   0.00230   0.00230   0.00230   0.00806
     Eigenvalues ---    0.00814   0.01091   0.02132   0.02150   0.03236
     Eigenvalues ---    0.04944   0.05703   0.06141   0.06511   0.07623
     Eigenvalues ---    0.07711   0.08001   0.08136   0.11659   0.11846
     Eigenvalues ---    0.13536   0.13763   0.16000   0.16000   0.16000
     Eigenvalues ---    0.16000   0.16000   0.16000   0.16000   0.16000
     Eigenvalues ---    0.16000   0.16000   0.16000   0.16000   0.17180
     Eigenvalues ---    0.17625   0.18528   0.19032   0.25000   0.30082
     Eigenvalues ---    0.32699   0.32774   0.34319   0.34376   0.34525
     Eigenvalues ---    0.34547   0.34715   0.34888   0.34893   0.35141
     Eigenvalues ---    0.36177   0.37094   0.38850   0.45575   0.46975
     Eigenvalues ---    0.51619   0.529541000.000001000.000001000.00000
     Eigenvalues --- 1000.000001000.000001000.000001000.000001000.00000
     Eigenvalues --- 1000.000001000.000001000.000001000.000001000.00000
     Eigenvalues --- 1000.000001000.000001000.000001000.000001000.00000
     Eigenvalues --- 1000.000001000.000001000.000001000.000001000.00000
     Eigenvalues --- 1000.000001000.000001000.000001000.000001000.00000
     Eigenvalues --- 1000.000001000.000001000.000001000.000001000.00000
 RFO step:  Lambda=-4.00695828D-02 EMin= 2.30000000D-03
 Linear search not attempted -- first point.
 Maximum step size (   0.300) exceeded in Quadratic search.
    -- Step size scaled by   0.611
 Iteration  1 RMS(Cart)=  0.10971890 RMS(Int)=  0.00383075
 Iteration  2 RMS(Cart)=  0.00614867 RMS(Int)=  0.00013684
 Iteration  3 RMS(Cart)=  0.00001964 RMS(Int)=  0.00013635
 Iteration  4 RMS(Cart)=  0.00000000 RMS(Int)=  0.00013635
 Variable       Old X    -DE/DX   Delta X   Delta X   Delta X     New X
                                 (Linear)    (Quad)   (Total)
    R1        2.09450  -0.00923   0.00000  -0.01532  -0.01532   2.07918
    R2        2.05850   0.00192   0.00000   0.00301   0.00301   2.06151
    R3        2.06453   0.00060   0.00000   0.00096   0.00096   2.06549
    R4        2.82884  -0.00356   0.00000  -0.00592  -0.00592   2.82292
    R5        2.87800  -0.00602   0.00000  -0.01079  -0.01079   2.86721
    R6        3.22774  -0.07409   0.00000  -0.20913  -0.20913   3.01861
    R7        2.58266  -0.02081   0.00000  -0.02284  -0.02284   2.55981
    R8        2.77105   0.00575   0.00000   0.00874   0.00874   2.77979
    R9        2.02405   0.01207   0.00000   0.01794   0.01794   2.04199
   R10        1.89747  -0.02361   0.00000  -0.02828  -0.02828   1.86919
   R11        1.83697   0.00357   0.00000   0.00383   0.00383   1.84080
   R12        2.05858   0.00013   0.00000   0.00021   0.00021   2.05878
   R13        2.05446   0.00046   0.00000   0.00072   0.00072   2.05518
   R14        2.06416  -0.00114   0.00000  -0.00181  -0.00181   2.06235
   R15        2.67888   0.00112   0.00000   0.00386   0.00386   2.68275
   R16        2.06139  -0.00039   0.00000  -0.00061  -0.00061   2.06078
   R17        2.06701  -0.00134   0.00000  -0.00214  -0.00214   2.06487
   R18        2.06795  -0.00017   0.00000  -0.00028  -0.00028   2.06767
   R19        2.73147   0.00497   0.00000   0.00708   0.00708   2.73855
   R20        1.91314  -0.02521   0.00000  -0.03104  -0.03104   1.88210
    A1        1.90156   0.00383   0.00000   0.01062   0.01060   1.91217
    A2        1.89224   0.00195   0.00000   0.00320   0.00319   1.89543
    A3        1.93869  -0.00901   0.00000  -0.02941  -0.02942   1.90927
    A4        1.88937  -0.00031   0.00000   0.00293   0.00286   1.89223
    A5        1.95598   0.00138   0.00000   0.00551   0.00547   1.96144
    A6        1.88429   0.00236   0.00000   0.00783   0.00779   1.89207
    A7        1.92239   0.00010   0.00000   0.00699   0.00690   1.92928
    A8        2.12903  -0.01519   0.00000  -0.05627  -0.05629   2.07274
    A9        1.94648   0.00684   0.00000   0.01874   0.01815   1.96463
   A10        1.67995   0.00786   0.00000   0.02239   0.02248   1.70243
   A11        1.83475   0.00054   0.00000   0.01918   0.01885   1.85360
   A12        1.91328   0.00167   0.00000   0.00017  -0.00032   1.91296
   A13        2.07292  -0.00238   0.00000  -0.00098  -0.00125   2.07167
   A14        1.83514   0.00766   0.00000   0.03787   0.03779   1.87293
   A15        1.89386  -0.00224   0.00000   0.00024  -0.00009   1.89378
   A16        1.91681  -0.01052   0.00000  -0.03211  -0.03211   1.88470
   A17        1.89730   0.01041   0.00000   0.03178   0.03178   1.92908
   A18        1.84113  -0.00050   0.00000  -0.00172  -0.00173   1.83940
   A19        1.88365  -0.00071   0.00000  -0.00251  -0.00251   1.88114
   A20        1.90548   0.00148   0.00000   0.00506   0.00506   1.91054
   A21        1.92474  -0.00024   0.00000  -0.00201  -0.00202   1.92272
   A22        1.94621   0.00007   0.00000   0.00102   0.00102   1.94723
   A23        1.95778  -0.00012   0.00000   0.00004   0.00005   1.95783
   A24        2.86659   0.01267   0.00000   0.02667   0.02667   2.89326
   A25        1.91740  -0.00061   0.00000  -0.00310  -0.00311   1.91430
   A26        1.92149   0.00027   0.00000   0.00130   0.00130   1.92279
   A27        1.86630  -0.00020   0.00000  -0.00096  -0.00096   1.86534
   A28        1.92053   0.00031   0.00000   0.00162   0.00162   1.92215
   A29        1.90511  -0.00006   0.00000  -0.00040  -0.00040   1.90472
   A30        1.93224   0.00027   0.00000   0.00140   0.00140   1.93364
   A31        2.12873   0.00172   0.00000   0.00725   0.00723   2.13596
   A32        1.68457   0.00075   0.00000   0.00629   0.00625   1.69081
   A33        1.93440  -0.00039   0.00000   0.00151   0.00146   1.93586
    D1        0.96018   0.00165   0.00000   0.01545   0.01552   0.97569
    D2        2.90555   0.00256   0.00000   0.01518   0.01512   2.92068
    D3       -1.07003  -0.00321   0.00000  -0.02388  -0.02389  -1.09392
    D4       -1.17140   0.00221   0.00000   0.01903   0.01911  -1.15229
    D5        0.77398   0.00312   0.00000   0.01876   0.01872   0.79270
    D6        3.08158  -0.00265   0.00000  -0.02030  -0.02030   3.06128
    D7        3.03265   0.00025   0.00000   0.00709   0.00714   3.03979
    D8       -1.30516   0.00116   0.00000   0.00682   0.00675  -1.29841
    D9        1.00245  -0.00462   0.00000  -0.03224  -0.03227   0.97018
   D10        0.94359  -0.00765   0.00000  -0.03840  -0.03849   0.90510
   D11        3.06573  -0.00595   0.00000  -0.00802  -0.00792   3.05781
   D12       -1.28047   0.00540   0.00000   0.01085   0.01084  -1.26963
   D13        0.84167   0.00710   0.00000   0.04124   0.04142   0.88308
   D14        3.04258   0.00086   0.00000  -0.00128  -0.00146   3.04112
   D15       -1.11846   0.00255   0.00000   0.02911   0.02911  -1.08935
   D16        1.10672  -0.00281   0.00000  -0.03852  -0.03806   1.06867
   D17       -3.10854  -0.00367   0.00000  -0.03851  -0.03864   3.13600
   D18       -1.21443   0.00056   0.00000  -0.00837  -0.00870  -1.22313
   D19       -2.71528   0.00349   0.00000   0.00675   0.00713  -2.70815
   D20        1.48492  -0.00060   0.00000  -0.02319  -0.02334   1.46158
   D21       -0.30375  -0.01022   0.00000  -0.05647  -0.05669  -0.36045
   D22        2.96473   0.00385   0.00000   0.02750   0.02743   2.99216
   D23       -1.26103   0.00297   0.00000   0.02307   0.02301  -1.23802
   D24        0.87126   0.00327   0.00000   0.02463   0.02456   0.89581
   D25        0.87247  -0.00289   0.00000  -0.02273  -0.02267   0.84980
   D26        2.92990  -0.00377   0.00000  -0.02716  -0.02709   2.90281
   D27       -1.22101  -0.00346   0.00000  -0.02560  -0.02554  -1.24654
   D28       -0.49501  -0.00438   0.00000  -0.07015  -0.07033  -0.56534
   D29        1.73999  -0.00375   0.00000  -0.04707  -0.04689   1.69310
   D30       -2.25412  -0.00471   0.00000  -0.06652  -0.06654  -2.32066
   D31       -0.16749  -0.00380   0.00000  -0.05615  -0.05613  -0.22362
   D32       -0.95267   0.00025   0.00000   0.00215   0.00215  -0.95051
   D33       -2.91397  -0.00158   0.00000  -0.01248  -0.01249  -2.92646
   D34       -3.02601   0.00112   0.00000   0.00659   0.00659  -3.01941
   D35        1.29588  -0.00071   0.00000  -0.00804  -0.00805   1.28783
   D36        1.14058   0.00061   0.00000   0.00393   0.00394   1.14452
   D37       -0.82072  -0.00122   0.00000  -0.01070  -0.01071  -0.83143
         Item               Value     Threshold  Converged?
 Maximum Force            0.074091     0.000450     NO 
 RMS     Force            0.009949     0.000300     NO 
 Maximum Displacement     0.521930     0.001800     NO 
 RMS     Displacement     0.107954     0.001200     NO 
 Predicted change in Energy=-1.880331D-02
 GradGradGradGradGradGradGradGradGradGradGradGradGradGradGradGradGradGrad

                          Input orientation:                          
 ---------------------------------------------------------------------
 Center     Atomic      Atomic             Coordinates (Angstroms)
 Number     Number       Type             X           Y           Z
 ---------------------------------------------------------------------
      1          6           0       -2.554117    0.263040    0.091767
      2          1           0       -2.842499    0.673481   -0.887485
      3          1           0       -2.617882    1.045770    0.848956
      4          1           0       -3.255840   -0.531906    0.356932
      5          6           0       -1.185305   -0.327836   -0.001681
      6          8           0       -0.193689    0.703389   -0.507014
      7          8           0       -0.420025   -0.711303    1.346994
      8          1           0       -0.956219   -1.395942    1.818325
      9          8           0       -1.125613   -1.366491   -0.869183
     10          1           0       -0.389420   -1.961569   -0.639427
     11          6           0       -0.127848    2.009449    0.166575
     12          1           0        0.741750    2.510105   -0.257766
     13          1           0       -1.034006    2.557211   -0.081643
     14          1           0       -0.019038    1.858941    1.242005
     15          1           0        0.786708    0.250269   -0.473244
     16          6           0        3.263702    0.074188   -0.082572
     17          1           0        3.438406    0.572509   -1.036712
     18          1           0        4.000438   -0.720443    0.057913
     19          1           0        3.327408    0.796020    0.737242
     20          8           0        1.940041   -0.511874   -0.150192
     21          1           0        1.637089   -0.810766    0.750266
 ---------------------------------------------------------------------
                    Distance matrix (angstroms):
                    1          2          3          4          5
     1  C    0.000000
     2  H    1.100255   0.000000
     3  H    1.090902   1.790049   0.000000
     4  H    1.093008   1.781118   1.771479   0.000000
     5  C    1.493825   2.129219   2.159318   2.111246   0.000000
     6  O    2.474685   2.676162   2.798677   3.413081   1.517264
     7  O    2.660692   3.574758   2.857608   3.009028   1.597380
     8  H    2.878628   3.893838   3.108498   2.858406   2.122676
     9  O    2.370531   2.666367   3.316304   2.595719   1.354595
    10  H    3.188957   3.608686   4.028078   3.354554   1.925938
    11  C    2.990371   3.203932   2.755828   4.034731   2.570881
    12  H    4.004275   4.076343   3.828347   5.060871   3.439918
    13  H    2.757540   2.732849   2.378893   3.830344   2.890118
    14  H    3.208827   3.729876   2.751314   4.120241   2.772892
    15  H    3.388291   3.677206   3.737950   4.200379   2.108415
    16  C    5.823493   6.188111   6.033634   6.562388   4.467866
    17  H    6.105700   6.283489   6.360688   6.926392   4.822926
    18  H    6.628014   7.047168   6.895463   7.264883   5.200925
    19  H    5.940795   6.381419   5.951583   6.726602   4.708890
    20  O    4.566890   4.982103   4.919269   5.220608   3.134280
    21  H    4.376401   4.995190   4.643408   4.916627   2.960499
                    6          7          8          9         10
     6  O    0.000000
     7  O    2.343059   0.000000
     8  H    3.224259   0.989134   0.000000
     9  O    2.298706   2.416312   2.693003   0.000000
    10  H    2.675415   2.347332   2.584907   0.974108   0.000000
    11  C    1.471004   2.980143   3.874424   3.669510   4.060425
    12  H    2.049731   3.781858   4.738191   4.346133   4.628292
    13  H    2.079358   3.619552   4.386724   4.003005   4.598477
    14  H    2.103538   2.603454   3.435799   4.010616   4.274725
    15  H    1.080573   2.386230   3.316489   2.535282   2.510602
    16  C    3.539717   4.028709   4.856173   4.686192   4.218968
    17  H    3.672850   4.713567   5.598103   4.961659   4.607780
    18  H    4.465103   4.604596   5.303187   5.249122   4.614924
    19  H    3.735624   4.084982   4.931825   5.204465   4.828492
    20  O    2.481328   2.802008   3.611780   3.262752   2.786997
    21  H    2.687967   2.144224   2.865035   3.250226   2.713362
                   11         12         13         14         15
    11  C    0.000000
    12  H    1.089460   0.000000
    13  H    1.087556   1.785091   0.000000
    14  H    1.091348   1.803365   1.808254   0.000000
    15  H    2.083386   2.270531   2.964850   2.485786   0.000000
    16  C    3.912790   3.510645   4.963436   3.964370   2.513787
    17  H    4.028755   3.410717   4.985346   4.336056   2.729988
    18  H    4.950441   4.599472   6.009003   4.920517   3.398892
    19  H    3.706328   3.257876   4.774338   3.547293   2.866754
    20  O    3.276214   3.252665   4.274217   3.375939   1.419648
    21  H    3.377767   3.584124   4.378366   3.179921   1.829186
                   16         17         18         19         20
    16  C    0.000000
    17  H    1.090518   0.000000
    18  H    1.092682   1.784883   0.000000
    19  H    1.094164   1.791421   1.792796   0.000000
    20  O    1.449179   2.051073   2.081357   2.103073   0.000000
    21  H    2.030426   2.889893   2.464332   2.332190   0.995963
                   21
    21  H    0.000000
 Stoichiometry    C4H13O4(1+)
 Framework group  C1[X(C4H13O4)]
 Deg. of freedom    57
 Full point group                 C1      NOp   1
 Largest Abelian subgroup         C1      NOp   1
 Largest concise Abelian subgroup C1      NOp   1
                         Standard orientation:                         
 ---------------------------------------------------------------------
 Center     Atomic      Atomic             Coordinates (Angstroms)
 Number     Number       Type             X           Y           Z
 ---------------------------------------------------------------------
      1          6           0       -2.561539    0.284647    0.002217
      2          1           0       -2.822178    0.672833   -0.993744
      3          1           0       -2.625843    1.089231    0.736095
      4          1           0       -3.283405   -0.489589    0.274494
      5          6           0       -1.202531   -0.333610   -0.046437
      6          8           0       -0.181543    0.664757   -0.559207
      7          8           0       -0.472164   -0.693279    1.327908
      8          1           0       -1.030661   -1.354555    1.806637
      9          8           0       -1.144901   -1.396979   -0.883607
     10          1           0       -0.424905   -1.998819   -0.622298
     11          6           0       -0.104698    1.987671    0.079420
     12          1           0        0.782644    2.460263   -0.340348
     13          1           0       -0.995112    2.544823   -0.202575
     14          1           0       -0.020598    1.865250    1.160614
     15          1           0        0.789224    0.194851   -0.492592
     16          6           0        3.254007   -0.015664   -0.045767
     17          1           0        3.457429    0.452560   -1.009414
     18          1           0        3.972583   -0.819445    0.131825
     19          1           0        3.314704    0.727466    0.755026
     20          8           0        1.921145   -0.579008   -0.124767
     21          1           0        1.594386   -0.847060    0.777075
 ---------------------------------------------------------------------
 Rotational constants (GHZ):      2.7725343      1.1656288      1.0002705
 Standard basis: 6-31+G(d) (6D, 7F)
 There are   178 symmetry adapted basis functions of A   symmetry.
 Integral buffers will be    262144 words long.
 Raffenetti 2 integral format.
 Two-electron integral symmetry is turned on.
   178 basis functions,   308 primitive gaussians,   178 cartesian basis functions
    34 alpha electrons       34 beta electrons
       nuclear repulsion energy       453.9953813974 Hartrees.
 NAtoms=   21 NActive=   21 NUniq=   21 SFac= 7.50D-01 NAtFMM=   80 NAOKFM=F Big=F
 One-electron integrals computed using PRISM.
 NBasis=   178 RedAO= T  NBF=   178
 NBsUse=   178 1.00D-06 NBFU=   178
 Initial guess read from the read-write file.
 B after Tr=     0.000000    0.000000    0.000000
         Rot=    1.000000    0.000000    0.000000    0.000000 Ang=   0.00 deg.
 Initial guess orbital symmetries:
       Occupied  (A) (A) (A) (A) (A) (A) (A) (A) (A) (A) (A) (A)
                 (A) (A) (A) (A) (A) (A) (A) (A) (A) (A) (A) (A)
                 (A) (A) (A) (A) (A) (A) (A) (A) (A) (A)
       Virtual   (A) (A) (A) (A) (A) (A) (A) (A) (A) (A) (A) (A)
                 (A) (A) (A) (A) (A) (A) (A) (A) (A) (A) (A) (A)
                 (A) (A) (A) (A) (A) (A) (A) (A) (A) (A) (A) (A)
                 (A) (A) (A) (A) (A) (A) (A) (A) (A) (A) (A) (A)
                 (A) (A) (A) (A) (A) (A) (A) (A) (A) (A) (A) (A)
                 (A) (A) (A) (A) (A) (A) (A) (A) (A) (A) (A) (A)
                 (A) (A) (A) (A) (A) (A) (A) (A) (A) (A) (A) (A)
                 (A) (A) (A) (A) (A) (A) (A) (A) (A) (A) (A) (A)
                 (A) (A) (A) (A) (A) (A) (A) (A) (A) (A) (A) (A)
                 (A) (A) (A) (A) (A) (A) (A) (A) (A) (A) (A) (A)
                 (A) (A) (A) (A) (A) (A) (A) (A) (A) (A) (A) (A)
                 (A) (A) (A) (A) (A) (A) (A) (A) (A) (A) (A) (A)
 Harris functional with IExCor= 3102 diagonalized for initial guess.
 ExpMin= 4.38D-02 ExpMax= 5.48D+03 ExpMxC= 8.25D+02 IAcc=2 IRadAn=         0 AccDes= 0.00D+00
 HarFok:  IExCor= 3102 AccDes= 0.00D+00 IRadAn=         0 IDoV= 1
 ScaDFX=  1.000000  1.000000  1.000000  1.000000
 FoFCou: FMM=F IPFlag=           0 FMFlag=      100000 FMFlg1=           0
         NFxFlg=           0 DoJE=T BraDBF=F KetDBF=T FulRan=T
         Omega=  0.000000  0.000000  1.000000  0.000000  0.000000 ICntrl=     500 IOpCl=  0
         NMat0=    1 NMatS0=    1 NMatT0=    0 NMatD0=    1 NMtDS0=    0 NMtDT0=    0
         I1Cent=           4 NGrid=           0.
 Petite list used in FoFCou.
 Requested convergence on RMS density matrix=1.00D-08 within 128 cycles.
 Requested convergence on MAX density matrix=1.00D-06.
 Requested convergence on             energy=1.00D-06.
 No special actions if energy rises.
 SCF Done:  E(RX3LYP) =  -460.675093753     A.U. after   11 cycles
             Convg  =    0.7534D-08             -V/T =  2.0095
 Calling FoFJK, ICntrl=      2127 FMM=F ISym2X=0 I1Cent= 0 IOpClX= 0 NMat=1 NMatS=1 NMatT=0.
 ***** Axes restored to original set *****
 -------------------------------------------------------------------
 Center     Atomic                   Forces (Hartrees/Bohr)
 Number     Number              X              Y              Z
 -------------------------------------------------------------------
      1        6          -0.002994744    0.001963603    0.005045451
      2        1           0.001601415   -0.003022771    0.002763826
      3        1           0.000847463    0.000048638    0.000352363
      4        1          -0.000340351   -0.000123831   -0.000772747
      5        6           0.041814897   -0.020092846    0.029920759
      6        8          -0.003789831   -0.001732924    0.001888297
      7        8          -0.039385621    0.006146228   -0.042958405
      8        1           0.004414820    0.010209215   -0.005755211
      9        8          -0.004067149    0.005799822    0.010241856
     10        1           0.002170016    0.000709825   -0.003132026
     11        6          -0.000581976    0.002158398    0.001986459
     12        1          -0.000234233    0.000141595   -0.000458596
     13        1           0.000071683    0.000101672   -0.000416074
     14        1          -0.000382277    0.000183136   -0.000502835
     15        1           0.001522803   -0.002776984   -0.000381615
     16        6           0.005499456    0.000863919   -0.000047112
     17        1          -0.000412753   -0.000955834   -0.000151733
     18        1          -0.000767306    0.000180962   -0.000367370
     19        1          -0.000372260   -0.000002754   -0.000487163
     20        8          -0.013041604   -0.001563371    0.017036896
     21        1           0.008427553    0.001764301   -0.013805018
 -------------------------------------------------------------------
 Cartesian Forces:  Max     0.042958405 RMS     0.011033649

 GradGradGradGradGradGradGradGradGradGradGradGradGradGradGradGradGradGrad
 Berny optimization.
 Using GEDIIS/GDIIS optimizer.
 Internal  Forces:  Max     0.061819597 RMS     0.007191482
 Search for a local minimum.
 Step number   2 out of a maximum of   15
 All quantities printed in internal units (Hartrees-Bohrs-Radians)
 Mixed Optimization -- RFO/linear search
 Update second derivatives using D2CorX and points    1    2
 DE= -2.06D-02 DEPred=-1.88D-02 R= 1.10D+00
 SS=  1.41D+00  RLast= 3.00D-01 DXNew= 5.0454D-01 8.9998D-01
 Trust test= 1.10D+00 RLast= 3.00D-01 DXMaxT set to 5.05D-01
 Use linear search instead of GDIIS.
     Eigenvalues ---    0.00228   0.00230   0.00230   0.00261   0.00806
     Eigenvalues ---    0.00814   0.01091   0.02075   0.02212   0.03067
     Eigenvalues ---    0.05531   0.05766   0.06184   0.06559   0.06745
     Eigenvalues ---    0.07614   0.07689   0.08016   0.08154   0.11627
     Eigenvalues ---    0.12768   0.13682   0.13794   0.16000   0.16000
     Eigenvalues ---    0.16000   0.16000   0.16000   0.16000   0.16000
     Eigenvalues ---    0.16000   0.16000   0.16000   0.16004   0.16950
     Eigenvalues ---    0.17763   0.18818   0.20709   0.26365   0.30032
     Eigenvalues ---    0.32712   0.33152   0.34320   0.34378   0.34527
     Eigenvalues ---    0.34549   0.34715   0.34888   0.34919   0.35143
     Eigenvalues ---    0.36208   0.38363   0.38833   0.45394   0.47467
     Eigenvalues ---    0.52276   0.532611000.000001000.000001000.00000
     Eigenvalues --- 1000.000001000.000001000.000001000.000001000.00000
     Eigenvalues --- 1000.000001000.000001000.000001000.000001000.00000
     Eigenvalues --- 1000.000001000.000001000.000001000.000001000.00000
     Eigenvalues --- 1000.000001000.000001000.000001000.000001000.00000
     Eigenvalues --- 1000.000001000.000001000.000001000.000001000.00000
     Eigenvalues --- 1000.000001000.000001000.000001000.000001000.00000
 RFO step:  Lambda=-2.68006526D-02 EMin= 2.27889916D-03
 Quartic linear search produced a step of  1.65373.
 Maximum step size (   0.505) exceeded in Quadratic search.
    -- Step size scaled by   0.844
 Iteration  1 RMS(Cart)=  0.07902044 RMS(Int)=  0.05165616
 Iteration  2 RMS(Cart)=  0.02744733 RMS(Int)=  0.03055114
 Iteration  3 RMS(Cart)=  0.02717563 RMS(Int)=  0.00948117
 Iteration  4 RMS(Cart)=  0.01219731 RMS(Int)=  0.00048757
 Iteration  5 RMS(Cart)=  0.00002199 RMS(Int)=  0.00048718
 Iteration  6 RMS(Cart)=  0.00000002 RMS(Int)=  0.00048718
 Variable       Old X    -DE/DX   Delta X   Delta X   Delta X     New X
                                 (Linear)    (Quad)   (Total)
    R1        2.07918  -0.00401  -0.02533  -0.00419  -0.02952   2.04966
    R2        2.06151   0.00023   0.00498  -0.00260   0.00238   2.06388
    R3        2.06549   0.00012   0.00158  -0.00055   0.00103   2.06652
    R4        2.82292   0.00083  -0.00978   0.01279   0.00300   2.82592
    R5        2.86721  -0.00521  -0.01784  -0.01982  -0.03766   2.82955
    R6        3.01861  -0.06182  -0.34585  -0.34109  -0.68694   2.33167
    R7        2.55981  -0.00962  -0.03778  -0.01012  -0.04790   2.51192
    R8        2.77979   0.00254   0.01446   0.00278   0.01723   2.79702
    R9        2.04199   0.00188   0.02966  -0.01291   0.01675   2.05874
   R10        1.86919  -0.01220  -0.04676  -0.01776  -0.06452   1.80467
   R11        1.84080   0.00046   0.00633  -0.00289   0.00344   1.84424
   R12        2.05878   0.00005   0.00034   0.00004   0.00038   2.05916
   R13        2.05518   0.00008   0.00119  -0.00046   0.00074   2.05592
   R14        2.06235  -0.00055  -0.00300  -0.00082  -0.00382   2.05853
   R15        2.68275  -0.00020   0.00639  -0.00881  -0.00242   2.68033
   R16        2.06078  -0.00037  -0.00102  -0.00134  -0.00235   2.05843
   R17        2.06487  -0.00070  -0.00353  -0.00126  -0.00479   2.06008
   R18        2.06767  -0.00039  -0.00046  -0.00188  -0.00234   2.06533
   R19        2.73855   0.00359   0.01172   0.00957   0.02129   2.75984
   R20        1.88210  -0.01558  -0.05133  -0.03075  -0.08209   1.80001
    A1        1.91217   0.00152   0.01754   0.00408   0.02154   1.93371
    A2        1.89543  -0.00012   0.00527  -0.01015  -0.00495   1.89048
    A3        1.90927  -0.00177  -0.04866   0.02462  -0.02411   1.88516
    A4        1.89223   0.00054   0.00473   0.00286   0.00749   1.89972
    A5        1.96144  -0.00076   0.00904  -0.01534  -0.00639   1.95505
    A6        1.89207   0.00061   0.01288  -0.00648   0.00632   1.89839
    A7        1.92928   0.00143   0.01141   0.00118   0.01267   1.94196
    A8        2.07274  -0.00792  -0.09309  -0.01190  -0.10481   1.96793
    A9        1.96463   0.00129   0.03001  -0.01629   0.01252   1.97715
   A10        1.70243   0.00287   0.03718  -0.00116   0.03565   1.73807
   A11        1.85360  -0.00023   0.03117  -0.01701   0.01265   1.86624
   A12        1.91296   0.00340  -0.00053   0.04518   0.04264   1.95560
   A13        2.07167   0.00129  -0.00207   0.00661   0.00404   2.07571
   A14        1.87293  -0.00233   0.06249  -0.10789  -0.04549   1.82743
   A15        1.89378   0.00184  -0.00014   0.01558   0.01468   1.90846
   A16        1.88470  -0.00282  -0.05309   0.01693  -0.03616   1.84854
   A17        1.92908   0.00275   0.05255  -0.01721   0.03534   1.96442
   A18        1.83940  -0.00017  -0.00286   0.00072  -0.00216   1.83724
   A19        1.88114  -0.00033  -0.00415  -0.00092  -0.00508   1.87606
   A20        1.91054   0.00037   0.00837  -0.00261   0.00576   1.91630
   A21        1.92272  -0.00025  -0.00334  -0.00188  -0.00525   1.91747
   A22        1.94723   0.00032   0.00169   0.00418   0.00585   1.95309
   A23        1.95783   0.00004   0.00008   0.00033   0.00041   1.95823
   A24        2.89326   0.00250   0.04411  -0.01748   0.02663   2.91990
   A25        1.91430   0.00019  -0.00514   0.00424  -0.00099   1.91331
   A26        1.92279   0.00059   0.00215   0.00508   0.00723   1.93002
   A27        1.86534  -0.00103  -0.00160  -0.01154  -0.01318   1.85216
   A28        1.92215   0.00061   0.00269   0.00678   0.00947   1.93162
   A29        1.90472  -0.00050  -0.00066  -0.00523  -0.00593   1.89878
   A30        1.93364   0.00009   0.00232   0.00011   0.00243   1.93607
   A31        2.13596   0.00056   0.01195   0.00881   0.01997   2.15593
   A32        1.69081   0.00301   0.01033   0.05219   0.06138   1.75220
   A33        1.93586  -0.00129   0.00242  -0.00103  -0.00012   1.93575
    D1        0.97569   0.00098   0.02566   0.00122   0.02698   1.00267
    D2        2.92068   0.00086   0.02501  -0.00677   0.01782   2.93850
    D3       -1.09392  -0.00054  -0.03951   0.03257  -0.00662  -1.10054
    D4       -1.15229   0.00080   0.03160  -0.01102   0.02069  -1.13160
    D5        0.79270   0.00068   0.03096  -0.01901   0.01153   0.80423
    D6        3.06128  -0.00072  -0.03357   0.02033  -0.01290   3.04838
    D7        3.03979   0.00018   0.01181  -0.00077   0.01113   3.05092
    D8       -1.29841   0.00006   0.01116  -0.00876   0.00197  -1.29644
    D9        0.97018  -0.00134  -0.05336   0.03058  -0.02246   0.94771
   D10        0.90510  -0.00433  -0.06366  -0.02541  -0.08940   0.81570
   D11        3.05781  -0.00290  -0.01309  -0.09227  -0.10518   2.95263
   D12       -1.26963   0.00259   0.01793  -0.01162   0.00631  -1.26333
   D13        0.88308   0.00402   0.06849  -0.07848  -0.00948   0.87360
   D14        3.04112  -0.00208  -0.00242  -0.05521  -0.05806   2.98306
   D15       -1.08935  -0.00064   0.04814  -0.12208  -0.07385  -1.16320
   D16        1.06867  -0.00217  -0.06293   0.01867  -0.04344   1.02523
   D17        3.13600  -0.00198  -0.06390   0.01398  -0.05104   3.08497
   D18       -1.22313  -0.00007  -0.01438   0.00714  -0.00695  -1.23008
   D19       -2.70815   0.00103   0.01179  -0.03055  -0.01763  -2.72579
   D20        1.46158  -0.00134  -0.03860  -0.01117  -0.04981   1.41177
   D21       -0.36045  -0.00582  -0.09375  -0.02001  -0.11486  -0.47530
   D22        2.99216  -0.00004   0.04536  -0.06633  -0.02116   2.97100
   D23       -1.23802  -0.00058   0.03805  -0.06857  -0.03069  -1.26871
   D24        0.89581  -0.00051   0.04061  -0.07031  -0.02989   0.86592
   D25        0.84980   0.00058  -0.03748   0.06246   0.02515   0.87495
   D26        2.90281   0.00004  -0.04480   0.06022   0.01562   2.91843
   D27       -1.24654   0.00011  -0.04223   0.05847   0.01642  -1.23013
   D28       -0.56534  -0.00245  -0.11630   0.13516   0.01855  -0.54679
   D29        1.69310  -0.00119  -0.07754   0.07966   0.00243   1.69553
   D30       -2.32066  -0.00265  -0.11004   0.07284  -0.03818  -2.35884
   D31       -0.22362  -0.00161  -0.09282   0.11792   0.02608  -0.19753
   D32       -0.95051   0.00118   0.00356   0.03260   0.03625  -0.91426
   D33       -2.92646  -0.00222  -0.02065  -0.04406  -0.06473  -2.99119
   D34       -3.01941   0.00181   0.01090   0.03682   0.04774  -2.97167
   D35        1.28783  -0.00160  -0.01331  -0.03983  -0.05324   1.23459
   D36        1.14452   0.00132   0.00651   0.03173   0.03830   1.18282
   D37       -0.83143  -0.00209  -0.01770  -0.04492  -0.06268  -0.89411
         Item               Value     Threshold  Converged?
 Maximum Force            0.061820     0.000450     NO 
 RMS     Force            0.007191     0.000300     NO 
 Maximum Displacement     0.576722     0.001800     NO 
 RMS     Displacement     0.128179     0.001200     NO 
 Predicted change in Energy=-3.394522D-02
 GradGradGradGradGradGradGradGradGradGradGradGradGradGradGradGradGradGrad

                          Input orientation:                          
 ---------------------------------------------------------------------
 Center     Atomic      Atomic             Coordinates (Angstroms)
 Number     Number       Type             X           Y           Z
 ---------------------------------------------------------------------
      1          6           0       -2.505471    0.226477    0.212273
      2          1           0       -2.844883    0.629464   -0.735792
      3          1           0       -2.518018    0.995833    0.987352
      4          1           0       -3.182749   -0.580732    0.504798
      5          6           0       -1.137593   -0.342814    0.009591
      6          8           0       -0.190750    0.692156   -0.514185
      7          8           0       -0.573348   -0.618755    1.071624
      8          1           0       -1.139672   -1.248320    1.513137
      9          8           0       -1.113006   -1.358828   -0.847156
     10          1           0       -0.347795   -1.948126   -0.707084
     11          6           0       -0.161317    2.025716    0.127308
     12          1           0        0.706832    2.529193   -0.297174
     13          1           0       -1.070300    2.548320   -0.162969
     14          1           0       -0.078149    1.913661    1.207662
     15          1           0        0.793480    0.231820   -0.435112
     16          6           0        3.292983    0.057561   -0.041473
     17          1           0        3.447843    0.539222   -1.006115
     18          1           0        4.013306   -0.751046    0.083849
     19          1           0        3.383659    0.784268    0.769796
     20          8           0        1.948878   -0.512078   -0.083777
     21          1           0        1.690110   -0.836749    0.773503
 ---------------------------------------------------------------------
                    Distance matrix (angstroms):
                    1          2          3          4          5
     1  C    0.000000
     2  H    1.084632   0.000000
     3  H    1.092160   1.791729   0.000000
     4  H    1.093555   1.765727   1.777718   0.000000
     5  C    1.495414   2.101371   2.157212   2.117664   0.000000
     6  O    2.470331   2.664106   2.786217   3.407437   1.497336
     7  O    2.277279   3.159854   2.528980   2.670527   1.233868
     8  H    2.394301   3.389911   2.685611   2.374149   1.755163
     9  O    2.361047   2.639149   3.299077   2.591728   1.329250
    10  H    3.198388   3.588906   4.030865   3.372743   1.927286
    11  C    2.956271   3.145789   2.711894   4.008132   2.564547
    12  H    3.985089   4.051671   3.794846   5.044169   3.427015
    13  H    2.755264   2.675683   2.414403   3.833969   2.897060
    14  H    3.119180   3.616766   2.616086   4.044077   2.765769
    15  H    3.361877   3.672358   3.684174   4.165822   2.063251
    16  C    5.806461   6.203430   5.975496   6.530003   4.448922
    17  H    6.084754   6.299176   6.306655   6.892163   4.778689
    18  H    6.592913   7.043605   6.821003   7.210368   5.167584
    19  H    5.941701   6.409797   5.909473   6.712016   4.721222
    20  O    4.524858   4.970753   4.834694   5.165727   3.092518
    21  H    4.364439   4.999391   4.594826   4.886973   2.970427
                    6          7          8          9         10
     6  O    0.000000
     7  O    2.092764   0.000000
     8  H    2.962420   0.954991   0.000000
     9  O    2.273316   2.126183   2.363029   0.000000
    10  H    2.651974   2.232017   2.458898   0.975930   0.000000
    11  C    1.480122   2.838085   3.687412   3.648346   4.064776
    12  H    2.056077   3.663611   4.577817   4.327933   4.618079
    13  H    2.083819   3.435338   4.150736   3.966830   4.586513
    14  H    2.114122   2.583963   3.349369   4.000299   4.318838
    15  H    1.089436   2.204983   3.118263   2.516869   2.475609
    16  C    3.572473   4.079816   4.875507   4.697661   4.209641
    17  H    3.674880   4.672033   5.530573   4.942591   4.547877
    18  H    4.484926   4.693676   5.370598   5.245498   4.591054
    19  H    3.799143   4.209213   5.014428   5.237116   4.854987
    20  O    2.492677   2.776320   3.554058   3.267241   2.779469
    21  H    2.744690   2.293390   2.953662   3.279720   2.753244
                   11         12         13         14         15
    11  C    0.000000
    12  H    1.089660   0.000000
    13  H    1.087945   1.782295   0.000000
    14  H    1.089329   1.805438   1.807148   0.000000
    15  H    2.108558   2.303141   2.985617   2.507396   0.000000
    16  C    3.979234   3.586436   5.025621   4.045982   2.536303
    17  H    4.064523   3.460596   5.016072   4.384349   2.732432
    18  H    5.013958   4.673106   6.065458   5.010351   3.406263
    19  H    3.810621   3.368767   4.880540   3.667611   2.909644
    20  O    3.307246   3.292043   4.299737   3.414801   1.418367
    21  H    3.469734   3.666435   4.467161   3.298483   1.845680
                   16         17         18         19         20
    16  C    0.000000
    17  H    1.089272   0.000000
    18  H    1.090145   1.781169   0.000000
    19  H    1.092923   1.793886   1.795596   0.000000
    20  O    1.460444   2.050082   2.084962   2.113693   0.000000
    21  H    2.008277   2.854814   2.424913   2.344315   0.952524
                   21
    21  H    0.000000
 Stoichiometry    C4H13O4(1+)
 Framework group  C1[X(C4H13O4)]
 Deg. of freedom    57
 Full point group                 C1      NOp   1
 Largest Abelian subgroup         C1      NOp   1
 Largest concise Abelian subgroup C1      NOp   1
                         Standard orientation:                         
 ---------------------------------------------------------------------
 Center     Atomic      Atomic             Coordinates (Angstroms)
 Number     Number       Type             X           Y           Z
 ---------------------------------------------------------------------
      1          6           0       -2.510888    0.248245    0.110243
      2          1           0       -2.817865    0.591602   -0.871744
      3          1           0       -2.529656    1.068465    0.831144
      4          1           0       -3.210294   -0.525982    0.437758
      5          6           0       -1.148831   -0.355995   -0.016088
      6          8           0       -0.169756    0.625311   -0.582183
      7          8           0       -0.617798   -0.568607    1.077177
      8          1           0       -1.206958   -1.157357    1.544372
      9          8           0       -1.120410   -1.428007   -0.801510
     10          1           0       -0.370071   -2.019018   -0.601167
     11          6           0       -0.132716    1.998613   -0.031338
     12          1           0        0.755356    2.457752   -0.464786
     13          1           0       -1.024035    2.515288   -0.380941
     14          1           0       -0.079988    1.958679    1.055981
     15          1           0        0.803455    0.155195   -0.445354
     16          6           0        3.288155   -0.033255    0.027494
     17          1           0        3.477075    0.379295   -0.962772
     18          1           0        3.989995   -0.843299    0.226657
     19          1           0        3.370825    0.745167    0.790190
     20          8           0        1.935404   -0.582168   -0.013205
     21          1           0        1.648325   -0.843669    0.856567
 ---------------------------------------------------------------------
 Rotational constants (GHZ):      3.0066747      1.1976953      1.0020122
 Standard basis: 6-31+G(d) (6D, 7F)
 There are   178 symmetry adapted basis functions of A   symmetry.
 Integral buffers will be    262144 words long.
 Raffenetti 2 integral format.
 Two-electron integral symmetry is turned on.
   178 basis functions,   308 primitive gaussians,   178 cartesian basis functions
    34 alpha electrons       34 beta electrons
       nuclear repulsion energy       467.0604749041 Hartrees.
 NAtoms=   21 NActive=   21 NUniq=   21 SFac= 7.50D-01 NAtFMM=   80 NAOKFM=F Big=F
 One-electron integrals computed using PRISM.
 NBasis=   178 RedAO= T  NBF=   178
 NBsUse=   178 1.00D-06 NBFU=   178
 Initial guess read from the read-write file.
 B after Tr=     0.000000    0.000000    0.000000
         Rot=    1.000000    0.000000    0.000000    0.000000 Ang=   0.00 deg.
 Initial guess orbital symmetries:
       Occupied  (A) (A) (A) (A) (A) (A) (A) (A) (A) (A) (A) (A)
                 (A) (A) (A) (A) (A) (A) (A) (A) (A) (A) (A) (A)
                 (A) (A) (A) (A) (A) (A) (A) (A) (A) (A)
       Virtual   (A) (A) (A) (A) (A) (A) (A) (A) (A) (A) (A) (A)
                 (A) (A) (A) (A) (A) (A) (A) (A) (A) (A) (A) (A)
                 (A) (A) (A) (A) (A) (A) (A) (A) (A) (A) (A) (A)
                 (A) (A) (A) (A) (A) (A) (A) (A) (A) (A) (A) (A)
                 (A) (A) (A) (A) (A) (A) (A) (A) (A) (A) (A) (A)
                 (A) (A) (A) (A) (A) (A) (A) (A) (A) (A) (A) (A)
                 (A) (A) (A) (A) (A) (A) (A) (A) (A) (A) (A) (A)
                 (A) (A) (A) (A) (A) (A) (A) (A) (A) (A) (A) (A)
                 (A) (A) (A) (A) (A) (A) (A) (A) (A) (A) (A) (A)
                 (A) (A) (A) (A) (A) (A) (A) (A) (A) (A) (A) (A)
                 (A) (A) (A) (A) (A) (A) (A) (A) (A) (A) (A) (A)
[...]
      9          8           0       -0.603179   -0.496679   -1.628346
     10          1           0       -0.048898   -1.282950   -1.491831
     11          6           0       -0.196614    1.339230    1.526320
     12          1           0        0.667692    1.981629    1.693818
     13          1           0       -1.114980    1.908834    1.656512
     14          1           0       -0.173256    0.452823    2.160202
     15          1           0        0.835579    0.676457   -0.151740
     16          6           0        3.208219   -0.208318    0.441429
     17          1           0        2.943016    0.278976    1.379022
     18          1           0        4.225830    0.071669    0.161230
     19          1           0        3.124151   -1.293211    0.545335
     20          8           0        2.273299    0.282700   -0.555288
     21          1           0        2.523551   -0.031843   -1.434589
 ---------------------------------------------------------------------
                    Distance matrix (angstroms):
                    1          2          3          4          5
     1  C    0.000000
     2  H    1.091409   0.000000
     3  H    1.092632   1.785315   0.000000
     4  H    1.094798   1.770252   1.782399   0.000000
     5  C    1.506550   2.139330   2.161483   2.124271   0.000000
     6  O    2.470772   2.685589   2.708551   3.438677   1.589805
     7  O    2.461433   3.364963   2.744714   2.776466   1.369891
     8  H    2.478019   3.529460   2.579307   2.517003   1.944548
     9  O    2.374717   2.587123   3.313148   2.689225   1.353405
    10  H    3.181509   3.533547   4.032093   3.399473   1.911623
    11  C    3.215873   3.584905   2.922135   4.203274   2.644109
    12  H    4.133813   4.307552   3.884655   5.169543   3.520151
    13  H    2.960495   3.286593   2.359211   3.952999   2.930980
    14  H    3.620976   4.237879   3.294642   4.445210   2.851925
    15  H    3.328551   3.457241   3.708139   4.200194   2.172492
    16  C    5.826166   6.035489   6.163622   6.578807   4.459927
    17  H    5.775868   6.039891   5.919791   6.614212   4.511774
    18  H    6.752135   6.850494   7.120144   7.523009   5.424807
    19  H    6.017172   6.373112   6.393687   6.633032   4.551264
    20  O    4.741607   4.796190   5.225790   5.504498   3.459733
    21  H    5.082895   5.052582   5.723864   5.732993   3.814120
                    6          7          8          9         10
     6  O    0.000000
     7  O    2.330555   0.000000
     8  H    3.068566   0.964876   0.000000
     9  O    2.309626   2.267490   2.912407   0.000000
    10  H    2.744708   2.260465   2.993854   0.971640   0.000000
    11  C    1.466817   2.839715   3.372336   3.672571   4.000861
    12  H    2.050729   3.794661   4.414324   4.335193   4.617287
    13  H    2.070142   3.255980   3.534777   4.103501   4.608262
    14  H    2.101220   2.499015   2.966886   3.929311   4.045457
    15  H    1.033872   2.748755   3.642264   2.372053   2.533262
    16  C    3.542672   4.443115   5.376718   4.346709   3.937149
    17  H    3.385008   4.409278   5.280380   4.713958   4.430909
    18  H    4.439269   5.506206   6.449244   5.181209   4.779215
    19  H    3.967727   4.266265   5.158419   4.387749   3.770728
    20  O    2.578194   3.835065   4.795367   3.167493   2.953129
    21  H    3.221557   4.276432   5.228107   3.167027   2.861125
                   11         12         13         14         15
    11  C    0.000000
    12  H    1.089843   0.000000
    13  H    1.088482   1.784548   0.000000
    14  H    1.089986   1.806088   1.805690   0.000000
    15  H    2.078600   2.266660   2.931418   2.532358   0.000000
    16  C    3.894199   3.580311   4.964757   3.850411   2.600788
    17  H    3.317095   2.859235   4.381869   3.217393   2.634865
    18  H    4.798770   4.319389   5.842542   4.846971   3.457965
    19  H    4.349662   4.251797   5.427526   4.065627   3.098882
    20  O    3.398503   3.243888   4.360826   3.659025   1.544323
    21  H    4.248073   4.157549   5.153644   4.519978   2.235317
                   16         17         18         19         20
    16  C    0.000000
    17  H    1.089435   0.000000
    18  H    1.091987   1.780900   0.000000
    19  H    1.093096   1.788747   1.795587   0.000000
    20  O    1.452108   2.046971   2.090528   2.102098   0.000000
    21  H    2.004833   2.861637   2.335616   2.423194   0.966817
                   21
    21  H    0.000000
 Stoichiometry    C4H13O4(1+)
 Framework group  C1[X(C4H13O4)]
 Deg. of freedom    57
 Full point group                 C1      NOp   1
 Largest Abelian subgroup         C1      NOp   1
 Largest concise Abelian subgroup C1      NOp   1
                         Standard orientation:                         
 ---------------------------------------------------------------------
 Center     Atomic      Atomic             Coordinates (Angstroms)
 Number     Number       Type             X           Y           Z
 ---------------------------------------------------------------------
      1          6           0       -2.540080   -0.005114   -0.545624
      2          1           0       -2.483218   -0.147780   -1.626173
      3          1           0       -2.813863    1.029475   -0.325368
      4          1           0       -3.314477   -0.672570   -0.153966
      5          6           0       -1.225046   -0.376240    0.088919
      6          8           0       -0.146770    0.608680   -0.539359
      7          8           0       -1.093878   -0.180574    1.438404
      8          1           0       -1.948562   -0.031447    1.860616
      9          8           0       -0.793541   -1.596343   -0.307135
     10          1           0       -0.220716   -1.976628    0.379407
     11          6           0       -0.068092    1.996023   -0.069631
     12          1           0        0.803319    2.425891   -0.563204
     13          1           0       -0.972360    2.502146   -0.402697
     14          1           0        0.031069    2.010527    1.015738
     15          1           0        0.784396    0.159434   -0.539508
     16          6           0        3.214851   -0.053689    0.361360
     17          1           0        3.047189    1.012961    0.506327
     18          1           0        4.194013   -0.208959   -0.096427
     19          1           0        3.152243   -0.577069    1.318967
     20          8           0        2.174134   -0.514036   -0.540642
     21          1           0        2.331607   -1.433679   -0.794003
 ---------------------------------------------------------------------
 Rotational constants (GHZ):      2.7144442      1.1017200      0.9630157

 **********************************************************************

            Population analysis using the SCF density.

 **********************************************************************

 Orbital symmetries:
       Occupied  (A) (A) (A) (A) (A) (A) (A) (A) (A) (A) (A) (A)
                 (A) (A) (A) (A) (A) (A) (A) (A) (A) (A) (A) (A)
                 (A) (A) (A) (A) (A) (A) (A) (A) (A) (A)
       Virtual   (A) (A) (A) (A) (A) (A) (A) (A) (A) (A) (A) (A)
                 (A) (A) (A) (A) (A) (A) (A) (A) (A) (A) (A) (A)
                 (A) (A) (A) (A) (A) (A) (A) (A) (A) (A) (A) (A)
                 (A) (A) (A) (A) (A) (A) (A) (A) (A) (A) (A) (A)
                 (A) (A) (A) (A) (A) (A) (A) (A) (A) (A) (A) (A)
                 (A) (A) (A) (A) (A) (A) (A) (A) (A) (A) (A) (A)
                 (A) (A) (A) (A) (A) (A) (A) (A) (A) (A) (A) (A)
                 (A) (A) (A) (A) (A) (A) (A) (A) (A) (A) (A) (A)
                 (A) (A) (A) (A) (A) (A) (A) (A) (A) (A) (A) (A)
                 (A) (A) (A) (A) (A) (A) (A) (A) (A) (A) (A) (A)
                 (A) (A) (A) (A) (A) (A) (A) (A) (A) (A) (A) (A)
                 (A) (A) (A) (A) (A) (A) (A) (A) (A) (A) (A) (A)
 The electronic state is 1-A.
 Alpha  occ. eigenvalues --  -19.44025 -19.39806 -19.39187 -19.38114 -10.57278
 Alpha  occ. eigenvalues --  -10.43882 -10.40986 -10.37733  -1.32111  -1.25184
 Alpha  occ. eigenvalues --   -1.22285  -1.21160  -0.94591  -0.89831  -0.85726
 Alpha  occ. eigenvalues --   -0.82821  -0.77006  -0.75969  -0.70679  -0.68632
 Alpha  occ. eigenvalues --   -0.65994  -0.64615  -0.61026  -0.60723  -0.60376
 Alpha  occ. eigenvalues --   -0.58738  -0.58150  -0.56610  -0.54661  -0.53868
 Alpha  occ. eigenvalues --   -0.51922  -0.51042  -0.50068  -0.46719
 Alpha virt. eigenvalues --   -0.15654  -0.13304  -0.12254  -0.10944  -0.10080
 Alpha virt. eigenvalues --   -0.09356  -0.08226  -0.07835  -0.07021  -0.06189
 Alpha virt. eigenvalues --   -0.05588  -0.04829  -0.04055  -0.03357  -0.01707
 Alpha virt. eigenvalues --   -0.01488  -0.00745   0.00511   0.01579   0.01766
 Alpha virt. eigenvalues --    0.02709   0.03455   0.04112   0.04727   0.05178
 Alpha virt. eigenvalues --    0.05582   0.06396   0.07305   0.08382   0.09314
 Alpha virt. eigenvalues --    0.09760   0.10972   0.11698   0.12223   0.12773
 Alpha virt. eigenvalues --    0.13767   0.14274   0.14634   0.16073   0.17419
 Alpha virt. eigenvalues --    0.17680   0.18302   0.19396   0.20096   0.21041
 Alpha virt. eigenvalues --    0.21819   0.24469   0.24746   0.25245   0.28294
 Alpha virt. eigenvalues --    0.29011   0.47455   0.48211   0.50911   0.52129
 Alpha virt. eigenvalues --    0.55013   0.55919   0.57415   0.58017   0.59833
 Alpha virt. eigenvalues --    0.61971   0.64290   0.67647   0.75686   0.77776
 Alpha virt. eigenvalues --    0.80782   0.82487   0.82759   0.84808   0.88139
 Alpha virt. eigenvalues --    0.90280   0.90424   0.91756   0.93038   0.93517
 Alpha virt. eigenvalues --    0.95809   0.98634   0.99860   1.01932   1.04353
 Alpha virt. eigenvalues --    1.05810   1.07357   1.09541   1.10935   1.11995
 Alpha virt. eigenvalues --    1.13736   1.15661   1.17269   1.22144   1.23042
 Alpha virt. eigenvalues --    1.26007   1.30052   1.33758   1.36888   1.41374
 Alpha virt. eigenvalues --    1.41658   1.48039   1.49727   1.51881   1.54229
 Alpha virt. eigenvalues --    1.56389   1.57674   1.60656   1.66550   1.67152
 Alpha virt. eigenvalues --    1.70333   1.72932   1.78525   1.82391   1.86206
 Alpha virt. eigenvalues --    1.86599   1.91036   1.95368   1.96436   2.00104
 Alpha virt. eigenvalues --    2.02878   2.04203   2.06461   2.10570   2.12479
 Alpha virt. eigenvalues --    2.17244   2.18155   2.20955   2.22744   2.30778
 Alpha virt. eigenvalues --    2.32949   2.33986   2.43544   2.51262   2.54904
 Alpha virt. eigenvalues --    2.59385   2.66611   2.68004   2.70510   2.81165
 Alpha virt. eigenvalues --    2.82698   3.97695   4.00019   4.04644   4.13015
 Alpha virt. eigenvalues --    4.15554   4.15794   4.30026   4.46288
          Condensed to atoms (all electrons):
              1          2          3          4          5          6
     1  C    5.987276   0.400896   0.355157   0.394400  -0.223643  -0.097913
     2  H    0.400896   0.415100  -0.022104  -0.016883  -0.059285   0.000532
     3  H    0.355157  -0.022104   0.474438  -0.024476  -0.016228  -0.001333
     4  H    0.394400  -0.016883  -0.024476   0.435408  -0.052651   0.005597
     5  C   -0.223643  -0.059285  -0.016228  -0.052651   5.330098   0.011978
     6  O   -0.097913   0.000532  -0.001333   0.005597   0.011978   8.943537
     7  O   -0.087443   0.006331  -0.004591  -0.003017   0.309436  -0.124450
     8  H    0.006371   0.000087  -0.000498   0.000789   0.000019   0.003344
     9  O   -0.098584  -0.003500   0.008022  -0.004302   0.296635  -0.111071
    10  H    0.030918  -0.000025  -0.000236  -0.000124  -0.003242  -0.009120
    11  C   -0.003500   0.001013  -0.003371   0.000795  -0.098381   0.036755
    12  H    0.001635  -0.000018   0.000037   0.000002   0.001726  -0.033706
    13  H   -0.017801   0.000002   0.001594  -0.000065   0.026512  -0.031970
    14  H    0.006955   0.000009  -0.000162   0.000017  -0.031887  -0.053210
    15  H   -0.004543  -0.000116   0.000096  -0.000071   0.024950   0.067910
    16  C   -0.004592  -0.000020  -0.000031  -0.000003  -0.004745   0.006481
    17  H    0.000193   0.000000   0.000000   0.000000  -0.002493   0.003497
    18  H   -0.000012   0.000000   0.000000   0.000000   0.000086  -0.000910
    19  H   -0.000425   0.000000   0.000000   0.000000   0.000680  -0.000825
    20  O    0.002312  -0.000050  -0.000043   0.000024   0.011661  -0.060346
    21  H   -0.000257   0.000000   0.000000   0.000000  -0.002874   0.005137
              7          8          9         10         11         12
     1  C   -0.087443   0.006371  -0.098584   0.030918  -0.003500   0.001635
     2  H    0.006331   0.000087  -0.003500  -0.000025   0.001013  -0.000018
     3  H   -0.004591  -0.000498   0.008022  -0.000236  -0.003371   0.000037
     4  H   -0.003017   0.000789  -0.004302  -0.000124   0.000795   0.000002
     5  C    0.309436   0.000019   0.296635  -0.003242  -0.098381   0.001726
     6  O   -0.124450   0.003344  -0.111071  -0.009120   0.036755  -0.033706
     7  O    8.396273   0.192406  -0.084122  -0.001314   0.000002   0.000165
     8  H    0.192406   0.278859  -0.000125  -0.000141  -0.005204   0.000009
     9  O   -0.084122  -0.000125   8.399914   0.173220  -0.004489  -0.000271
    10  H   -0.001314  -0.000141   0.173220   0.292129  -0.000167  -0.000002
    11  C    0.000002  -0.005204  -0.004489  -0.000167   5.284304   0.382352
    12  H    0.000165   0.000009  -0.000271  -0.000002   0.382352   0.441581
    13  H   -0.005944   0.000151  -0.000505   0.000000   0.383962  -0.018499
    14  H    0.013805  -0.000716   0.000509  -0.000011   0.404603  -0.024849
    15  H    0.000446  -0.000065   0.007098   0.000500  -0.007499  -0.001839
    16  C    0.001285  -0.000093  -0.002084  -0.001692  -0.003677  -0.001242
    17  H   -0.000200   0.000000   0.000264  -0.000003   0.001024  -0.000082
    18  H   -0.000004   0.000000   0.000009  -0.000002   0.000422   0.000010
    19  H    0.000233   0.000001  -0.000020  -0.000027  -0.001044   0.000010
    20  O   -0.001063   0.000009   0.010733   0.000853   0.008349   0.001485
    21  H   -0.000033  -0.000001   0.000327   0.000005  -0.000547   0.000007
             13         14         15         16         17         18
     1  C   -0.017801   0.006955  -0.004543  -0.004592   0.000193  -0.000012
     2  H    0.000002   0.000009  -0.000116  -0.000020   0.000000   0.000000
     3  H    0.001594  -0.000162   0.000096  -0.000031   0.000000   0.000000
     4  H   -0.000065   0.000017  -0.000071  -0.000003   0.000000   0.000000
     5  C    0.026512  -0.031887   0.024950  -0.004745  -0.002493   0.000086
     6  O   -0.031970  -0.053210   0.067910   0.006481   0.003497  -0.000910
     7  O   -0.005944   0.013805   0.000446   0.001285  -0.000200  -0.000004
     8  H    0.000151  -0.000716  -0.000065  -0.000093   0.000000   0.000000
     9  O   -0.000505   0.000509   0.007098  -0.002084   0.000264   0.000009
    10  H    0.000000  -0.000011   0.000500  -0.001692  -0.000003  -0.000002
    11  C    0.383962   0.404603  -0.007499  -0.003677   0.001024   0.000422
    12  H   -0.018499  -0.024849  -0.001839  -0.001242  -0.000082   0.000010
    13  H    0.441228  -0.027520   0.001829   0.000208   0.000016   0.000000
    14  H   -0.027520   0.447349  -0.000215  -0.000811  -0.000122   0.000003
    15  H    0.001829  -0.000215   0.190945  -0.007571  -0.002558   0.000668
    16  C    0.000208  -0.000811  -0.007571   5.107776   0.397963   0.388678
    17  H    0.000016  -0.000122  -0.002558   0.397963   0.485579  -0.022644
    18  H    0.000000   0.000003   0.000668   0.388678  -0.022644   0.466982
    19  H    0.000000   0.000002   0.000755   0.394973  -0.030030  -0.030780
    20  O   -0.000420  -0.000080   0.087470   0.099316  -0.048318  -0.034040
    21  H    0.000002  -0.000010  -0.004643  -0.015175   0.004792  -0.004604
             19         20         21
     1  C   -0.000425   0.002312  -0.000257
     2  H    0.000000  -0.000050   0.000000
     3  H    0.000000  -0.000043   0.000000
     4  H    0.000000   0.000024   0.000000
     5  C    0.000680   0.011661  -0.002874
     6  O   -0.000825  -0.060346   0.005137
     7  O    0.000233  -0.001063  -0.000033
     8  H    0.000001   0.000009  -0.000001
     9  O   -0.000020   0.010733   0.000327
    10  H   -0.000027   0.000853   0.000005
    11  C   -0.001044   0.008349  -0.000547
    12  H    0.000010   0.001485   0.000007
    13  H    0.000000  -0.000420   0.000002
    14  H    0.000002  -0.000080  -0.000010
    15  H    0.000755   0.087470  -0.004643
    16  C    0.394973   0.099316  -0.015175
    17  H   -0.030030  -0.048318   0.004792
    18  H   -0.030780  -0.034040  -0.004604
    19  H    0.499339  -0.056263  -0.002542
    20  O   -0.056263   8.549057   0.213423
    21  H   -0.002542   0.213423   0.277066
 Mulliken atomic charges:
              1
     1  C   -0.647402
     2  H    0.278031
     3  H    0.233729
     4  H    0.264559
     5  C    0.481647
     6  O   -0.559913
     7  O   -0.608199
     8  H    0.524799
     9  O   -0.587658
    10  H    0.518480
    11  C   -0.375706
    12  H    0.251489
    13  H    0.247219
    14  H    0.266339
    15  H    0.646455
    16  C   -0.354944
    17  H    0.213122
    18  H    0.236137
    19  H    0.225963
    20  O   -0.784071
    21  H    0.529924
 Sum of Mulliken atomic charges =   1.00000
 Mulliken charges with hydrogens summed into heavy atoms:
              1
     1  C    0.128917
     5  C    0.481647
     6  O    0.086542
     7  O   -0.083400
     9  O   -0.069177
    11  C    0.389341
    16  C    0.320278
    20  O   -0.254147
 Sum of Mulliken charges with hydrogens summed into heavy atoms =   1.00000
 Electronic spatial extent (au):  <R**2>=           1315.1927
 Charge=              1.0000 electrons
 Dipole moment (field-independent basis, Debye):
    X=              0.4021    Y=              0.9396    Z=              1.5005  Tot=              1.8155
 Quadrupole moment (field-independent basis, Debye-Ang):
   XX=            -19.8900   YY=            -36.7056   ZZ=            -46.7739
   XY=             -4.9951   XZ=             -2.2810   YZ=             -0.7940
 Traceless Quadrupole moment (field-independent basis, Debye-Ang):
   XX=             14.5665   YY=             -2.2491   ZZ=            -12.3174
   XY=             -4.9951   XZ=             -2.2810   YZ=             -0.7940
 Octapole moment (field-independent basis, Debye-Ang**2):
  XXX=             21.8375  YYY=              1.4044  ZZZ=              6.2823  XYY=             11.7847
  XXY=            -10.0105  XXZ=              8.9824  XZZ=             -8.6815  YZZ=             -2.1681
  YYZ=              1.0076  XYZ=              4.1162
 Hexadecapole moment (field-independent basis, Debye-Ang**3):
 XXXX=           -810.8724 YYYY=           -304.0109 ZZZZ=           -170.8846 XXXY=            -25.1776
 XXXZ=            -20.1761 YYYX=            -24.5279 YYYZ=             -8.9801 ZZZX=            -22.3423
 ZZZY=              4.7488 XXYY=           -216.9660 XXZZ=           -182.2591 YYZZ=            -89.1578
 XXYZ=              7.4491 YYXZ=            -12.3063 ZZXY=             -5.2538
 N-N= 4.505838569207D+02 E-N=-1.967332984516D+03  KE= 4.566594949128D+02


 Once you get people laughing, they're
 listening and you can tell them almost anything.
                                 -- Herb Gardner
 Error termination request processed by link 9999.
 Error termination via Lnk1e in C:\G09W\l9999.exe at Fri Nov 13 15:50:06 2015.
 Job cpu time:  0 days  0 hours 44 minutes 41.0 seconds.
 File lengths (MBytes):  RWF=     23 Int=      0 D2E=      0 Chk=      3 Scr=      1
