 Entering Link 1 = C:\G09W\l1.exe PID=      4456.
  
 Copyright (c) 1988,1990,1992,1993,1995,1998,2003,2009, Gaussian, Inc.
                  All Rights Reserved.
  
 This is part of the Gaussian(R) 09 program.  It is based on
 the Gaussian(R) 03 system (copyright 2003, Gaussian, Inc.),
 the Gaussian(R) 98 system (copyright 1998, Gaussian, Inc.),
 the Gaussian(R) 94 system (copyright 1995, Gaussian, Inc.),
 the Gaussian 92(TM) system (copyright 1992, Gaussian, Inc.),
 the Gaussian 90(TM) system (copyright 1990, Gaussian, Inc.),
 the Gaussian 88(TM) system (copyright 1988, Gaussian, Inc.),
 the Gaussian 86(TM) system (copyright 1986, Carnegie Mellon
 University), and the Gaussian 82(TM) system (copyright 1983,
 Carnegie Mellon University). Gaussian is a federally registered
 trademark of Gaussian, Inc.
  
 This software contains proprietary and confidential information,
 including trade secrets, belonging to Gaussian, Inc.
  
 This software is provided under written license and may be
 used, copied, transmitted, or stored only in accord with that
 written license.
  
 The following legend is applicable only to US Government
 contracts under FAR:
  
                    RESTRICTED RIGHTS LEGEND
  
 Use, reproduction and disclosure by the US Government is
 subject to restrictions as set forth in subparagraphs (a)
 and (c) of the Commercial Computer Software - Restricted
 Rights clause in FAR 52.227-19.
  
 Gaussian, Inc.
 340 Quinnipiac St., Bldg. 40, Wallingford CT 06492
  
  
 ---------------------------------------------------------------
 Warning -- This program may not be used in any manner that
 competes with the business of Gaussian, Inc. or will provide
 assistance to any competitor of Gaussian, Inc.  The licensee
 of this program is prohibited from giving any competitor of
 Gaussian, Inc. access to this program.  By using this program,
 the user acknowledges that Gaussian, Inc. is engaged in the
 business of creating and licensing software in the field of
 computational chemistry and represents and warrants to the
 licensee that it is not a competitor of Gaussian, Inc. and that
 it will not use this program in any manner prohibited above.
 ---------------------------------------------------------------
  

 Cite this work as:
 Gaussian 09, Revision A.02,
 M. J. Frisch, G. W. Trucks, H. B. Schlegel, G. E. Scuseria, 
 M. A. Robb, J. R. Cheeseman, G. Scalmani, V. Barone, B. Mennucci, 
 G. A. Petersson, H. Nakatsuji, M. Caricato, X. Li, H. P. Hratchian, 
 A. F. Izmaylov, J. Bloino, G. Zheng, J. L. Sonnenberg, M. Hada, 
 M. Ehara, K. Toyota, R. Fukuda, J. Hasegawa, M. Ishida, T. Nakajima, 
 Y. Honda, O. Kitao, H. Nakai, T. Vreven, J. A. Montgomery, Jr., 
 J. E. Peralta, F. Ogliaro, M. Bearpark, J. J. Heyd, E. Brothers, 
 K. N. Kudin, V. N. Staroverov, R. Kobayashi, J. Normand, 
 K. Raghavachari, A. Rendell, J. C. Burant, S. S. Iyengar, J. Tomasi, 
 M. Cossi, N. Rega, J. M. Millam, M. Klene, J. E. Knox, J. B. Cross, 
 V. Bakken, C. Adamo, J. Jaramillo, R. Gomperts, R. E. Stratmann, 
 O. Yazyev, A. J. Austin, R. Cammi, C. Pomelli, J. W. Ochterski, 
 R. L. Martin, K. Morokuma, V. G. Zakrzewski, G. A. Voth, 
 P. Salvador, J. J. Dannenberg, S. Dapprich, A. D. Daniels, 
 O. Farkas, J. B. Foresman, J. V. Ortiz, J. Cioslowski, 
 and D. J. Fox, Gaussian, Inc., Wallingford CT, 2009.
 
 ******************************************
 Gaussian 09:  IA32W-G09RevA.02 11-Jun-2009
                23-Sep-2015 
 ******************************************
 ----------------------------------------------------------------------
 # freq=noraman x3lyp/6-31+g(d) scrf=(cpcm,solvent=methanol) geom=conne
 ctivity
 ----------------------------------------------------------------------
 1/10=4,30=1,38=1,57=2/1,3;
 2/12=2,17=6,18=5,40=1/2;
 3/5=1,6=6,7=11,11=2,16=1,25=1,30=1,70=2101,71=2,72=3,74=-33/1,2,3;
 4//1;
 5/5=2,38=5,53=3,98=1/2;
 8/6=4,10=90,11=11/1;
 11/6=1,8=1,9=11,15=111,16=1/1,2,10;
 10/6=1/2;
 6/7=2,8=2,9=2,10=2,18=1,28=1/1;
 7/8=1,10=1,25=1/1,2,3,16;
 1/10=4,30=1/3;
 99//99;
 ---------
 tsb-3freq
 ---------
 Symbolic Z-matrix:
 Charge =  1 Multiplicity = 1
 C                    -2.56589   0.22364   0.09052 
 H                    -2.91133   0.63167  -0.87981 
 H                    -2.62415   1.00726   0.84503 
 H                    -3.23918  -0.58507   0.38423 
 C                    -1.18533  -0.34404  -0.02551 
 O                    -0.23214   0.70513  -0.582 
 O                    -0.25008  -0.73543   1.34861 
 H                    -0.69955  -1.46495   1.86936 
 O                    -1.14139  -1.37619  -0.91998 
 H                    -0.38841  -1.94985  -0.69797 
 C                    -0.14519   2.00638   0.08852 
 H                     0.71119   2.50826  -0.36031 
 H                    -1.05875   2.5552   -0.12642 
 H                    -0.0011    1.8491    1.1597 
 H                     0.73546   0.24486  -0.55834 
 C                     3.17035   0.01097  -0.02709 
 H                     3.40882   0.5865   -0.9225 
 H                     3.89546  -0.79813   0.09854 
 H                     3.17928   0.66246   0.8521 
 O                     1.85645  -0.55682  -0.22908 
 H                     1.4859   -0.92258   0.63732 
 

 GradGradGradGradGradGradGradGradGradGradGradGradGradGradGradGradGradGrad
 Berny optimization.
 Initialization pass.
 Trust Radius=3.00D-01 FncErr=1.00D-07 GrdErr=1.00D-07
 Number of steps in this run=   2 maximum allowed number of steps=   2.
 GradGradGradGradGradGradGradGradGradGradGradGradGradGradGradGradGradGrad

                          Input orientation:                          
 ---------------------------------------------------------------------
 Center     Atomic      Atomic             Coordinates (Angstroms)
 Number     Number       Type             X           Y           Z
 ---------------------------------------------------------------------
      1          6           0       -2.565893    0.223644    0.090521
      2          1           0       -2.911326    0.631674   -0.879806
      3          1           0       -2.624151    1.007262    0.845033
      4          1           0       -3.239176   -0.585071    0.384231
      5          6           0       -1.185327   -0.344043   -0.025507
      6          8           0       -0.232142    0.705130   -0.581997
      7          8           0       -0.250078   -0.735434    1.348609
      8          1           0       -0.699554   -1.464949    1.869363
      9          8           0       -1.141391   -1.376188   -0.919976
     10          1           0       -0.388411   -1.949849   -0.697966
     11          6           0       -0.145190    2.006385    0.088515
     12          1           0        0.711188    2.508260   -0.360314
     13          1           0       -1.058753    2.555200   -0.126421
     14          1           0       -0.001102    1.849104    1.159703
     15          1           0        0.735461    0.244862   -0.558337
     16          6           0        3.170347    0.010969   -0.027089
     17          1           0        3.408818    0.586497   -0.922502
     18          1           0        3.895462   -0.798127    0.098544
     19          1           0        3.179283    0.662461    0.852096
     20          8           0        1.856453   -0.556818   -0.229084
     21          1           0        1.485897   -0.922578    0.637320
 ---------------------------------------------------------------------
                    Distance matrix (angstroms):
                    1          2          3          4          5
     1  C    0.000000
     2  H    1.107857   0.000000
     3  H    1.089376   1.788465   0.000000
     4  H    1.092518   1.784865   1.768083   0.000000
     5  C    1.497229   2.158917   2.157332   2.108145   0.000000
     6  O    2.475985   2.696686   2.801679   3.411813   1.522829
     7  O    2.804570   3.730557   2.987775   3.144414   1.707651
     8  H    3.082020   4.104351   3.296233   3.070746   2.254537
     9  O    2.368496   2.676900   3.315821   2.593747   1.366502
    10  H    3.176037   3.614198   4.015456   3.340753   1.914651
    11  C    3.006322   3.237126   2.777735   4.046707   2.572819
    12  H    4.020197   4.112670   3.851018   5.072319   3.441584
    13  H    2.784724   2.774810   2.406305   3.856982   2.903759
    14  H    3.219227   3.756479   2.772743   4.124523   2.759892
    15  H    3.364581   3.681307   3.719905   4.168329   2.078495
    16  C    5.741386   6.172451   5.943854   6.450305   4.370118
    17  H    6.070836   6.320450   6.300630   6.875751   4.772491
    18  H    6.541650   7.023807   6.806029   7.143533   5.102548
    19  H    5.812022   6.332136   5.813672   6.555292   4.564324
    20  O    4.502045   4.956578   4.865787   5.132484   3.056001
    21  H    4.246153   4.904380   4.545319   4.743868   2.812380
                    6          7          8          9         10
     6  O    0.000000
     7  O    2.408897   0.000000
     8  H    3.307096   1.002699   0.000000
     9  O    2.296268   2.520215   2.825511   0.000000
    10  H    2.662101   2.383780   2.631182   0.972293   0.000000
    11  C    1.466428   3.019339   3.940672   3.667597   4.040977
    12  H    2.047020   3.790251   4.769491   4.339839   4.604114
    13  H    2.076919   3.695665   4.502641   4.011530   4.590369
    14  H    2.096563   2.603365   3.460405   4.003478   4.246526
    15  H    1.071756   2.359812   3.297946   2.506224   2.469684
    16  C    3.516634   3.761512   4.555326   4.616550   4.118209
    17  H    3.658771   4.504772   5.374166   4.955456   4.571916
    18  H    4.445226   4.330369   4.969369   5.171211   4.506935
    19  H    3.700846   3.736463   4.539392   5.095542   4.685648
    20  O    2.465622   2.637895   3.429483   3.183672   2.683244
    21  H    2.662297   1.885355   2.566767   3.087649   2.520180
                   11         12         13         14         15
    11  C    0.000000
    12  H    1.089362   0.000000
    13  H    1.087195   1.785945   0.000000
    14  H    1.092219   1.803412   1.808677   0.000000
    15  H    2.072903   2.272174   2.956927   2.463286   0.000000
    16  C    3.871413   3.520648   4.936422   3.852960   2.503118
    17  H    3.958435   3.359529   4.946587   4.190144   2.719590
    18  H    4.918562   4.613279   5.986623   4.828778   3.391891
    19  H    3.666239   3.311858   4.743512   3.408459   2.852363
    20  O    3.267637   3.274684   4.265398   3.341811   1.416941
    21  H    3.397125   3.655967   4.376469   3.188459   1.831848
                   16         17         18         19         20
    16  C    0.000000
    17  H    1.090809   0.000000
    18  H    1.093715   1.787887   0.000000
    19  H    1.094298   1.790993   1.792783   0.000000
    20  O    1.445511   2.048862   2.079213   2.098921   0.000000
    21  H    2.037234   2.899651   2.472200   2.329385   1.010816
                   21
    21  H    0.000000
 Stoichiometry    C4H13O4(1+)
 Framework group  C1[X(C4H13O4)]
 Deg. of freedom    57
 Full point group                 C1      NOp   1
 Largest Abelian subgroup         C1      NOp   1
 Largest concise Abelian subgroup C1      NOp   1
                         Standard orientation:                         
 ---------------------------------------------------------------------
 Center     Atomic      Atomic             Coordinates (Angstroms)
 Number     Number       Type             X           Y           Z
 ---------------------------------------------------------------------
      1          6           0       -2.565893    0.223644    0.090521
      2          1           0       -2.911326    0.631674   -0.879806
      3          1           0       -2.624151    1.007262    0.845033
      4          1           0       -3.239176   -0.585071    0.384231
      5          6           0       -1.185327   -0.344043   -0.025507
      6          8           0       -0.232142    0.705130   -0.581997
      7          8           0       -0.250078   -0.735434    1.348609
      8          1           0       -0.699554   -1.464949    1.869363
      9          8           0       -1.141391   -1.376188   -0.919976
     10          1           0       -0.388411   -1.949849   -0.697966
     11          6           0       -0.145190    2.006385    0.088515
     12          1           0        0.711188    2.508260   -0.360314
     13          1           0       -1.058753    2.555200   -0.126421
     14          1           0       -0.001102    1.849104    1.159703
     15          1           0        0.735461    0.244862   -0.558337
     16          6           0        3.170347    0.010969   -0.027089
     17          1           0        3.408818    0.586497   -0.922502
     18          1           0        3.895462   -0.798127    0.098544
     19          1           0        3.179283    0.662461    0.852096
     20          8           0        1.856453   -0.556818   -0.229084
     21          1           0        1.485897   -0.922578    0.637320
 ---------------------------------------------------------------------
 Rotational constants (GHZ):      2.7020470      1.1994342      1.0285454
 Standard basis: 6-31+G(d) (6D, 7F)
 There are   178 symmetry adapted basis functions of A   symmetry.
 Integral buffers will be    262144 words long.
 Raffenetti 2 integral format.
 Two-electron integral symmetry is turned on.
   178 basis functions,   308 primitive gaussians,   178 cartesian basis functions
    34 alpha electrons       34 beta electrons
       nuclear repulsion energy       453.9173775424 Hartrees.
 NAtoms=   21 NActive=   21 NUniq=   21 SFac= 7.50D-01 NAtFMM=   80 NAOKFM=F Big=F
 ------------------------------------------------------------------------------
 Polarizable Continuum Model (PCM)
 =================================
 Model                : C-PCM.
 Atomic radii         : UFF (Universal Force Field).
 Polarization charges : Total charges.
 Charge compensation  : None.
 Solution method      : Matrix inversion.
 Cavity type          : Scaled VdW (van der Waals Surface) (Alpha=1.100).
 Cavity algorithm     : GePol (No added spheres)
                        Default sphere list used, NSphG=   21.
                        Lebedev-Laikov grids with approx.  5.0 points / Ang**2.
                        Smoothing algorithm: Karplus/York (Gamma=1.0000).
                        Polarization charges: spherical gaussians, with
                                              point-specific exponents (IZeta= 3).
                        Self-potential: point-specific (ISelfS= 7).
                        Self-field    : sphere-specific E.n sum rule (ISelfD= 2).
 1st derivatives      : Analytical E(r).r(x)/FMM algorithm (CHGder, D1EAlg=3).
                        Cavity 1st derivative terms included.
 2nd derivatives      : Analytical E(r).r(xy)/FMM algorithm (CHGder, D2EAlg=3).
                        Cavity 2nd derivative terms included.
 Solvent              : Methanol, Eps=  32.613000 Eps(inf)=   1.765709
 ------------------------------------------------------------------------------
 One-electron integrals computed using PRISM.
 NBasis=   178 RedAO= T  NBF=   178
 NBsUse=   178 1.00D-06 NBFU=   178
 Harris functional with IExCor= 3102 diagonalized for initial guess.
 ExpMin= 4.38D-02 ExpMax= 5.48D+03 ExpMxC= 8.25D+02 IAcc=2 IRadAn=         0 AccDes= 0.00D+00
 HarFok:  IExCor= 3102 AccDes= 0.00D+00 IRadAn=         0 IDoV= 1
 ScaDFX=  1.000000  1.000000  1.000000  1.000000
 FoFCou: FMM=F IPFlag=           0 FMFlag=      100000 FMFlg1=           0
         NFxFlg=           0 DoJE=T BraDBF=F KetDBF=T FulRan=T
         Omega=  0.000000  0.000000  1.000000  0.000000  0.000000 ICntrl=     500 IOpCl=  0
         NMat0=    1 NMatS0=    1 NMatT0=    0 NMatD0=    1 NMtDS0=    0 NMtDT0=    0
         I1Cent=           4 NGrid=           0.
 Petite list used in FoFCou.
 Initial guess orbital symmetries:
       Occupied  (A) (A) (A) (A) (A) (A) (A) (A) (A) (A) (A) (A)
                 (A) (A) (A) (A) (A) (A) (A) (A) (A) (A) (A) (A)
                 (A) (A) (A) (A) (A) (A) (A) (A) (A) (A)
       Virtual   (A) (A) (A) (A) (A) (A) (A) (A) (A) (A) (A) (A)
                 (A) (A) (A) (A) (A) (A) (A) (A) (A) (A) (A) (A)
                 (A) (A) (A) (A) (A) (A) (A) (A) (A) (A) (A) (A)
                 (A) (A) (A) (A) (A) (A) (A) (A) (A) (A) (A) (A)
                 (A) (A) (A) (A) (A) (A) (A) (A) (A) (A) (A) (A)
                 (A) (A) (A) (A) (A) (A) (A) (A) (A) (A) (A) (A)
                 (A) (A) (A) (A) (A) (A) (A) (A) (A) (A) (A) (A)
                 (A) (A) (A) (A) (A) (A) (A) (A) (A) (A) (A) (A)
                 (A) (A) (A) (A) (A) (A) (A) (A) (A) (A) (A) (A)
                 (A) (A) (A) (A) (A) (A) (A) (A) (A) (A) (A) (A)
                 (A) (A) (A) (A) (A) (A) (A) (A) (A) (A) (A) (A)
                 (A) (A) (A) (A) (A) (A) (A) (A) (A) (A) (A) (A)
 The electronic state of the initial guess is 1-A.
 Requested convergence on RMS density matrix=1.00D-08 within 128 cycles.
 Requested convergence on MAX density matrix=1.00D-06.
 Requested convergence on             energy=1.00D-06.
 No special actions if energy rises.
 Error on total polarization charges =  0.00921
 SCF Done:  E(RX3LYP) =  -460.732506161     A.U. after   13 cycles
             Convg  =    0.3121D-08             -V/T =  2.0099
 Range of M.O.s used for correlation:     1   178
 NBasis=   178 NAE=    34 NBE=    34 NFC=     0 NFV=     0
 NROrb=    178 NOA=    34 NOB=    34 NVA=   144 NVB=   144

 **** Warning!!: The largest alpha MO coefficient is  0.33788264D+02

 Symmetrizing basis deriv contribution to polar:
 IMax=3 JMax=2 DiffMx= 0.00D+00
 G2DrvN: will do    22 centers at a time, making    1 passes doing MaxLOS=2.
 Calling FoFCou, ICntrl=  3107 FMM=F I1Cent=   0 AccDes= 0.00D+00.
 FoFDir/FoFCou used for L=0 through L=2.
 G2PCM: DoFxE=T DoFxN=T DoGrad=T DoPD/DQ/DG=FFF NFrqRd=   0 IEInf=0 DoCFld=F IF1Alg=4.
 End of G2Drv Frequency-dependent properties file   721 does not exist.
 End of G2Drv Frequency-dependent properties file   722 does not exist.
          IDoAtm=111111111111111111111
 NEqPCM:  Using equilibrium solvation (IEInf=0, Eps=  32.6130, EpsInf=   1.7657)
          Differentiating once with respect to electric field.
                with respect to dipole field.
          Differentiating once with respect to nuclear coordinates.
          There are    66 degrees of freedom in the 1st order CPHF.  IDoFFX=5.
     63 vectors produced by pass  0 Test12= 7.42D-15 1.52D-09 XBig12= 4.10D+01 2.08D+00.
 AX will form    63 AO Fock derivatives at one time.
     63 vectors produced by pass  1 Test12= 7.42D-15 1.52D-09 XBig12= 4.04D+00 3.78D-01.
     63 vectors produced by pass  2 Test12= 7.42D-15 1.52D-09 XBig12= 1.98D-02 1.56D-02.
     63 vectors produced by pass  3 Test12= 7.42D-15 1.52D-09 XBig12= 4.77D-05 9.97D-04.
     63 vectors produced by pass  4 Test12= 7.42D-15 1.52D-09 XBig12= 5.94D-08 2.71D-05.
     35 vectors produced by pass  5 Test12= 7.42D-15 1.52D-09 XBig12= 4.57D-11 6.88D-07.
      3 vectors produced by pass  6 Test12= 7.42D-15 1.52D-09 XBig12= 3.69D-14 2.32D-08.
 Inverted reduced A of dimension   353 with in-core refinement.
 Isotropic polarizability for W=    0.000000       86.27 Bohr**3.
 End of Minotr Frequency-dependent properties file   721 does not exist.
 End of Minotr Frequency-dependent properties file   722 does not exist.

 **********************************************************************

            Population analysis using the SCF density.

 **********************************************************************

 Orbital symmetries:
       Occupied  (A) (A) (A) (A) (A) (A) (A) (A) (A) (A) (A) (A)
                 (A) (A) (A) (A) (A) (A) (A) (A) (A) (A) (A) (A)
                 (A) (A) (A) (A) (A) (A) (A) (A) (A) (A)
       Virtual   (A) (A) (A) (A) (A) (A) (A) (A) (A) (A) (A) (A)
                 (A) (A) (A) (A) (A) (A) (A) (A) (A) (A) (A) (A)
                 (A) (A) (A) (A) (A) (A) (A) (A) (A) (A) (A) (A)
                 (A) (A) (A) (A) (A) (A) (A) (A) (A) (A) (A) (A)
                 (A) (A) (A) (A) (A) (A) (A) (A) (A) (A) (A) (A)
                 (A) (A) (A) (A) (A) (A) (A) (A) (A) (A) (A) (A)
                 (A) (A) (A) (A) (A) (A) (A) (A) (A) (A) (A) (A)
                 (A) (A) (A) (A) (A) (A) (A) (A) (A) (A) (A) (A)
                 (A) (A) (A) (A) (A) (A) (A) (A) (A) (A) (A) (A)
                 (A) (A) (A) (A) (A) (A) (A) (A) (A) (A) (A) (A)
                 (A) (A) (A) (A) (A) (A) (A) (A) (A) (A) (A) (A)
                 (A) (A) (A) (A) (A) (A) (A) (A) (A) (A) (A) (A)
 The electronic state is 1-A.
 Alpha  occ. eigenvalues --  -19.31995 -19.27140 -19.25212 -19.25019 -10.45448
 Alpha  occ. eigenvalues --  -10.30300 -10.27704 -10.25294  -1.18072  -1.11580
 Alpha  occ. eigenvalues --   -1.07724  -1.02310  -0.82272  -0.77063  -0.72442
 Alpha  occ. eigenvalues --   -0.67182  -0.63059  -0.60645  -0.55870  -0.55589
 Alpha  occ. eigenvalues --   -0.51122  -0.49732  -0.48387  -0.47652  -0.47315
 Alpha  occ. eigenvalues --   -0.45534  -0.44372  -0.43538  -0.41098  -0.39565
 Alpha  occ. eigenvalues --   -0.39129  -0.37559  -0.35388  -0.33770
 Alpha virt. eigenvalues --   -0.04214  -0.01344   0.00753   0.01500   0.01980
 Alpha virt. eigenvalues --    0.02766   0.03460   0.04194   0.05510   0.05899
 Alpha virt. eigenvalues --    0.06212   0.06571   0.07447   0.08707   0.09327
 Alpha virt. eigenvalues --    0.10689   0.11888   0.12174   0.13497   0.14500
 Alpha virt. eigenvalues --    0.15123   0.15529   0.15790   0.16962   0.17793
 Alpha virt. eigenvalues --    0.19065   0.19265   0.20093   0.20652   0.21455
 Alpha virt. eigenvalues --    0.22404   0.23499   0.23594   0.24405   0.24633
 Alpha virt. eigenvalues --    0.25694   0.26962   0.27848   0.27973   0.28769
 Alpha virt. eigenvalues --    0.30223   0.30846   0.31086   0.33140   0.33732
 Alpha virt. eigenvalues --    0.34391   0.38142   0.38374   0.38787   0.41557
 Alpha virt. eigenvalues --    0.48874   0.59876   0.62446   0.63899   0.64843
 Alpha virt. eigenvalues --    0.66165   0.67125   0.70151   0.72546   0.73915
 Alpha virt. eigenvalues --    0.75716   0.79920   0.81929   0.88627   0.90835
 Alpha virt. eigenvalues --    0.93834   0.95738   0.97216   0.97514   0.98717
 Alpha virt. eigenvalues --    1.03885   1.04320   1.06427   1.06664   1.07225
 Alpha virt. eigenvalues --    1.11390   1.12325   1.14121   1.16372   1.18028
 Alpha virt. eigenvalues --    1.19935   1.20960   1.21571   1.26001   1.27628
 Alpha virt. eigenvalues --    1.28490   1.30334   1.33801   1.36391   1.38008
 Alpha virt. eigenvalues --    1.43777   1.44772   1.45954   1.51127   1.53605
 Alpha virt. eigenvalues --    1.55569   1.56632   1.59759   1.64920   1.67181
 Alpha virt. eigenvalues --    1.71073   1.73064   1.74363   1.76386   1.78044
 Alpha virt. eigenvalues --    1.81237   1.84592   1.88441   1.96098   1.97168
 Alpha virt. eigenvalues --    1.98152   2.01468   2.06832   2.09109   2.10069
 Alpha virt. eigenvalues --    2.13311   2.15911   2.16741   2.21464   2.25308
 Alpha virt. eigenvalues --    2.28494   2.30296   2.32053   2.34550   2.38795
 Alpha virt. eigenvalues --    2.43542   2.48470   2.49873   2.53952   2.59411
 Alpha virt. eigenvalues --    2.71241   2.76602   2.82383   2.84733   2.87200
 Alpha virt. eigenvalues --    2.96614   4.08974   4.14735   4.16984   4.20804
 Alpha virt. eigenvalues --    4.30609   4.32887   4.42088   4.55703
          Condensed to atoms (all electrons):
              1          2          3          4          5          6
     1  C    6.212981   0.392475   0.376927   0.374594  -0.462843  -0.080335
     2  H    0.392475   0.422160  -0.022455  -0.018957  -0.059483   0.000786
     3  H    0.376927  -0.022455   0.437064  -0.019665  -0.041509  -0.003470
     4  H    0.374594  -0.018957  -0.019665   0.420209  -0.031979   0.006398
     5  C   -0.462843  -0.059483  -0.041509  -0.031979   5.600821   0.042984
     6  O   -0.080335   0.000786  -0.003470   0.006398   0.042984   8.877607
     7  O   -0.110814   0.005347  -0.003132  -0.003096   0.292222  -0.148772
     8  H   -0.011794  -0.000042  -0.000023   0.000352   0.025338   0.007189
     9  O   -0.135826  -0.002562   0.007311  -0.004408   0.341601  -0.106082
    10  H    0.036260  -0.000007  -0.000202  -0.000079  -0.029339  -0.006679
    11  C    0.027185  -0.002156   0.001873   0.000558  -0.117830   0.020082
    12  H   -0.001126  -0.000006   0.000104  -0.000002   0.007674  -0.032567
    13  H    0.007805   0.000014  -0.001588   0.000020  -0.011733  -0.029699
    14  H   -0.006703   0.000123  -0.000112   0.000002  -0.008403  -0.055818
    15  H    0.001908   0.000064  -0.000072  -0.000076   0.004009   0.030184
    16  C   -0.003727   0.000019  -0.000087  -0.000003  -0.004289   0.008087
    17  H    0.000211   0.000000   0.000000   0.000000   0.000161   0.000845
    18  H   -0.000194   0.000000   0.000000   0.000000  -0.000729  -0.000712
    19  H   -0.000269   0.000000   0.000000   0.000000  -0.001398   0.000123
    20  O   -0.007511   0.000198  -0.000226   0.000049   0.022160  -0.081480
    21  H    0.004236  -0.000011   0.000010  -0.000001  -0.003543   0.007692
              7          8          9         10         11         12
     1  C   -0.110814  -0.011794  -0.135826   0.036260   0.027185  -0.001126
     2  H    0.005347  -0.000042  -0.002562  -0.000007  -0.002156  -0.000006
     3  H   -0.003132  -0.000023   0.007311  -0.000202   0.001873   0.000104
     4  H   -0.003096   0.000352  -0.004408  -0.000079   0.000558  -0.000002
     5  C    0.292222   0.025338   0.341601  -0.029339  -0.117830   0.007674
     6  O   -0.148772   0.007189  -0.106082  -0.006679   0.020082  -0.032567
     7  O    8.563320   0.177931  -0.036062  -0.002221   0.013526  -0.000253
     8  H    0.177931   0.277672  -0.004658  -0.000229  -0.001577   0.000004
     9  O   -0.036062  -0.004658   8.306809   0.194241  -0.000364  -0.000168
    10  H   -0.002221  -0.000229   0.194241   0.258681  -0.000169   0.000000
    11  C    0.013526  -0.001577  -0.000364  -0.000169   5.300457   0.378237
    12  H   -0.000253   0.000004  -0.000168   0.000000   0.378237   0.429427
    13  H   -0.001605   0.000001  -0.000795  -0.000001   0.387258  -0.018882
    14  H    0.012742  -0.000215   0.000957  -0.000017   0.393091  -0.022403
    15  H    0.007384  -0.000078   0.004179   0.000798   0.003050  -0.001162
    16  C    0.000196  -0.000412   0.002365  -0.000002  -0.006880  -0.000110
    17  H   -0.000311   0.000000  -0.000085   0.000005  -0.002405   0.000032
    18  H    0.000094   0.000001   0.000036  -0.000007   0.001276   0.000002
    19  H    0.001346  -0.000011   0.000008   0.000010   0.000592  -0.000009
    20  O   -0.027539   0.001069   0.023236   0.003001  -0.005153  -0.000844
    21  H    0.035530  -0.001533  -0.005421   0.000993  -0.002420   0.000035
             13         14         15         16         17         18
     1  C    0.007805  -0.006703   0.001908  -0.003727   0.000211  -0.000194
     2  H    0.000014   0.000123   0.000064   0.000019   0.000000   0.000000
     3  H   -0.001588  -0.000112  -0.000072  -0.000087   0.000000   0.000000
     4  H    0.000020   0.000002  -0.000076  -0.000003   0.000000   0.000000
     5  C   -0.011733  -0.008403   0.004009  -0.004289   0.000161  -0.000729
     6  O   -0.029699  -0.055818   0.030184   0.008087   0.000845  -0.000712
     7  O   -0.001605   0.012742   0.007384   0.000196  -0.000311   0.000094
     8  H    0.000001  -0.000215  -0.000078  -0.000412   0.000000   0.000001
     9  O   -0.000795   0.000957   0.004179   0.002365  -0.000085   0.000036
    10  H   -0.000001  -0.000017   0.000798  -0.000002   0.000005  -0.000007
    11  C    0.387258   0.393091   0.003050  -0.006880  -0.002405   0.001276
    12  H   -0.018882  -0.022403  -0.001162  -0.000110   0.000032   0.000002
    13  H    0.430051  -0.025390   0.001227   0.000386   0.000002   0.000000
    14  H   -0.025390   0.436085  -0.000266  -0.000367   0.000013  -0.000002
    15  H    0.001227  -0.000266   0.218501  -0.011702  -0.001813   0.001092
    16  C    0.000386  -0.000367  -0.011702   5.137163   0.400601   0.389734
    17  H    0.000002   0.000013  -0.001813   0.400601   0.470289  -0.025386
    18  H    0.000000  -0.000002   0.001092   0.389734  -0.025386   0.485129
    19  H    0.000001   0.000001   0.000632   0.403659  -0.027501  -0.030391
    20  O    0.000078   0.000401   0.129178   0.072087  -0.047219  -0.040142
    21  H    0.000004   0.000047  -0.011420  -0.016158   0.003639  -0.003339
             19         20         21
     1  C   -0.000269  -0.007511   0.004236
     2  H    0.000000   0.000198  -0.000011
     3  H    0.000000  -0.000226   0.000010
     4  H    0.000000   0.000049  -0.000001
     5  C   -0.001398   0.022160  -0.003543
     6  O    0.000123  -0.081480   0.007692
     7  O    0.001346  -0.027539   0.035530
     8  H   -0.000011   0.001069  -0.001533
     9  O    0.000008   0.023236  -0.005421
    10  H    0.000010   0.003001   0.000993
    11  C    0.000592  -0.005153  -0.002420
    12  H   -0.000009  -0.000844   0.000035
    13  H    0.000001   0.000078   0.000004
    14  H    0.000001   0.000401   0.000047
    15  H    0.000632   0.129178  -0.011420
    16  C    0.403659   0.072087  -0.016158
    17  H   -0.027501  -0.047219   0.003639
    18  H   -0.030391  -0.040142  -0.003339
    19  H    0.498329  -0.065803  -0.002678
    20  O   -0.065803   8.675649   0.175576
    21  H   -0.002678   0.175576   0.246469
 Mulliken atomic charges:
              1
     1  C   -0.613441
     2  H    0.284494
     3  H    0.269251
     4  H    0.276083
     5  C    0.436108
     6  O   -0.456364
     7  O   -0.775832
     8  H    0.531012
     9  O   -0.584310
    10  H    0.544962
    11  C   -0.388229
    12  H    0.262016
    13  H    0.262846
    14  H    0.276233
    15  H    0.624383
    16  C   -0.370559
    17  H    0.228924
    18  H    0.223537
    19  H    0.223358
    20  O   -0.826762
    21  H    0.572291
 Sum of Mulliken atomic charges =   1.00000
 Mulliken charges with hydrogens summed into heavy atoms:
              1
     1  C    0.216386
     5  C    0.436108
     6  O    0.168018
     7  O   -0.244820
     9  O   -0.039348
    11  C    0.412866
    16  C    0.305261
    20  O   -0.254471
 Sum of Mulliken charges with hydrogens summed into heavy atoms =   1.00000
 APT atomic charges:
              1
     1  C   -0.184834
     2  H    0.069186
     3  H    0.066205
     4  H    0.072043
     5  C    1.823476
     6  O   -1.208691
     7  O   -0.913226
     8  H    0.331286
     9  O   -0.914611
    10  H    0.402887
    11  C    0.459555
    12  H    0.052114
    13  H    0.049147
    14  H    0.044719
    15  H    0.851979
    16  C    0.568735
    17  H    0.010120
    18  H   -0.021191
    19  H   -0.022674
    20  O   -1.022844
    21  H    0.486618
 Sum of APT charges=   1.00000
 APT Atomic charges with hydrogens summed into heavy atoms:
              1
     1  C    0.022600
     2  H    0.000000
     3  H    0.000000
     4  H    0.000000
     5  C    1.823476
     6  O   -0.356712
     7  O   -0.581940
     8  H    0.000000
     9  O   -0.511723
    10  H    0.000000
    11  C    0.605535
    12  H    0.000000
    13  H    0.000000
    14  H    0.000000
    15  H    0.000000
    16  C    0.534990
    17  H    0.000000
    18  H    0.000000
    19  H    0.000000
    20  O   -0.536225
    21  H    0.000000
 Sum of APT charges=   1.00000
 Electronic spatial extent (au):  <R**2>=           1248.1113
 Charge=              1.0000 electrons
 Dipole moment (field-independent basis, Debye):
    X=              0.1237    Y=              1.2827    Z=              2.3454  Tot=              2.6761
 Quadrupole moment (field-independent basis, Debye-Ang):
   XX=            -28.0033   YY=            -34.7076   ZZ=            -48.2459
   XY=             -0.2793   XZ=             -1.9556   YZ=             -4.5524
 Traceless Quadrupole moment (field-independent basis, Debye-Ang):
   XX=              8.9823   YY=              2.2780   ZZ=            -11.2603
   XY=             -0.2793   XZ=             -1.9556   YZ=             -4.5524
 Octapole moment (field-independent basis, Debye-Ang**2):
  XXX=             15.9781  YYY=             -1.3054  ZZZ=              7.7242  XYY=             -1.1366
  XXY=              4.8159  XXZ=              6.0477  XZZ=              0.3995  YZZ=             -6.4771
  YYZ=              6.8871  XYZ=              2.6953
 Hexadecapole moment (field-independent basis, Debye-Ang**3):
 XXXX=           -809.3648 YYYY=           -299.8028 ZZZZ=           -172.8834 XXXY=             -7.4206
 XXXZ=             -1.1011 YYYX=             -1.6466 YYYZ=             -9.6433 ZZZX=             -7.8155
 ZZZY=            -18.8902 XXYY=           -221.2261 XXZZ=           -191.1038 YYZZ=            -76.3726
 XXYZ=            -17.9404 YYXZ=             -8.0805 ZZXY=              4.7764
 N-N= 4.539173775424D+02 E-N=-1.973160219544D+03  KE= 4.562096359241D+02
  Exact polarizability:  93.550  -0.426  84.967   3.972  -2.199  80.297
 Approx polarizability:  92.695  -0.596  88.457   5.946  -2.629  89.815
 D2PCM: C-PCM CHGder 2nd derivatives, FixD1E=F FixD2E=F DoIter=F DoCFld=F I1PDM=0
 Calling FoFJK, ICntrl=    100127 FMM=F ISym2X=0 I1Cent= 0 IOpClX= 0 NMat=1 NMatS=1 NMatT=0.
 Full mass-weighted force constant matrix:
 Low frequencies --- -151.4659  -14.0137   -0.0015   -0.0009   -0.0007   27.3736
 Low frequencies ---   66.5680   90.2409  132.3174
 ******    1 imaginary frequencies (negative Signs) ****** 
 Diagonal vibrational polarizability:
      191.0416455      88.9554566     220.3984708
 Harmonic frequencies (cm**-1), IR intensities (KM/Mole), Raman scattering
 activities (A**4/AMU), depolarization ratios for plane and unpolarized
 incident light, reduced masses (AMU), force constants (mDyne/A),
 and normal coordinates:
                     1                      2                      3
                     A                      A                      A
 Frequencies --  -150.7351                67.5950               130.3243
 Red. masses --     5.0147                 2.7000                 2.9174
 Frc consts  --     0.0671                 0.0073                 0.0292
 IR Inten    --   140.3038                 4.9435                10.4629
  Atom  AN      X      Y      Z        X      Y      Z        X      Y      Z
     1   6    -0.02   0.04  -0.08     0.03   0.09   0.06     0.04  -0.07   0.15
     2   1    -0.07   0.12  -0.03    -0.01   0.07   0.07    -0.05  -0.04   0.19
     3   1     0.00  -0.02  -0.02     0.12   0.11   0.04     0.06  -0.11   0.19
     4   1     0.03  -0.01  -0.12     0.00   0.13   0.13     0.10  -0.12   0.16
     5   6    -0.02   0.12  -0.23    -0.02   0.00  -0.02     0.05   0.00   0.03
     6   8     0.03  -0.05   0.00     0.02  -0.07  -0.04    -0.02   0.06  -0.02
     7   8     0.31  -0.06   0.26     0.04  -0.07  -0.02     0.07   0.01  -0.05
     8   1     0.32  -0.15   0.15     0.03  -0.04   0.01     0.09   0.00  -0.05
     9   8    -0.02   0.02  -0.05    -0.11  -0.01  -0.01     0.04   0.04  -0.03
    10   1     0.29   0.32  -0.33    -0.31  -0.21   0.14     0.08   0.07  -0.12
    11   6    -0.05  -0.03  -0.02     0.13  -0.08  -0.04    -0.12   0.12  -0.13
    12   1    -0.02  -0.04   0.03     0.11  -0.11  -0.12    -0.18   0.17  -0.20
    13   1    -0.04  -0.04  -0.09     0.14  -0.03   0.04    -0.18   0.02  -0.15
    14   1    -0.12  -0.02  -0.01     0.21  -0.09  -0.06    -0.06   0.23  -0.12
    15   1     0.19  -0.13   0.12     0.02  -0.13  -0.07    -0.02   0.11  -0.05
    16   6    -0.11  -0.03   0.00    -0.10   0.20   0.14    -0.04  -0.12   0.19
    17   1    -0.10  -0.04   0.00    -0.09   0.30   0.21     0.16  -0.02   0.30
    18   1    -0.18  -0.09  -0.02     0.02   0.32   0.19    -0.08  -0.15   0.24
    19   1    -0.07  -0.05   0.01    -0.34   0.15   0.18    -0.18  -0.21   0.27
    20   8    -0.16   0.03   0.04     0.02  -0.03  -0.08    -0.02  -0.05  -0.11
    21   1    -0.25   0.08   0.06    -0.02  -0.10  -0.12    -0.12  -0.11  -0.18
                     4                      5                      6
                     A                      A                      A
 Frequencies --   142.4653               156.4587               171.1424
 Red. masses --     3.1329                 1.0965                 1.3645
 Frc consts  --     0.0375                 0.0158                 0.0235
 IR Inten    --     4.8245                 2.1605                11.0519
  Atom  AN      X      Y      Z        X      Y      Z        X      Y      Z
     1   6    -0.01  -0.07  -0.10     0.00   0.00   0.04     0.02   0.05  -0.03
     2   1     0.06  -0.09  -0.14    -0.03   0.02   0.05     0.04  -0.03  -0.07
     3   1    -0.13  -0.07  -0.11     0.02  -0.02   0.05     0.04   0.13  -0.11
     4   1     0.01  -0.11  -0.16     0.00   0.00   0.04     0.00   0.09   0.04
     5   6     0.04   0.02   0.03    -0.01  -0.01  -0.01     0.01   0.01   0.01
     6   8    -0.01   0.06   0.01    -0.01   0.00  -0.01     0.03  -0.01   0.04
     7   8    -0.01   0.11   0.04     0.01  -0.02  -0.02     0.01  -0.01   0.01
     8   1    -0.01   0.13   0.06     0.02  -0.03  -0.03    -0.01   0.02   0.04
     9   8     0.16  -0.01   0.05    -0.04   0.01  -0.02     0.02   0.00   0.01
    10   1     0.13  -0.01   0.18     0.02   0.05  -0.11    -0.15  -0.15   0.20
    11   6     0.10   0.00   0.13     0.00  -0.01   0.00    -0.10   0.01   0.03
    12   1    -0.02   0.08  -0.02    -0.01   0.00  -0.01     0.17  -0.11   0.41
    13   1     0.03  -0.01   0.39     0.00  -0.01   0.03     0.07   0.12  -0.42
    14   1     0.33  -0.11   0.08     0.03  -0.02   0.00    -0.59   0.04   0.10
    15   1    -0.05   0.01  -0.11    -0.01   0.01  -0.02     0.03  -0.01   0.04
    16   6    -0.16   0.01  -0.01     0.02   0.00   0.01    -0.01   0.02  -0.02
    17   1    -0.04  -0.15  -0.08     0.26  -0.48  -0.23     0.03  -0.06  -0.05
    18   1    -0.13   0.08   0.29    -0.08  -0.01   0.56     0.01   0.06   0.12
    19   1    -0.37   0.18  -0.13    -0.09   0.44  -0.31    -0.11   0.10  -0.08
    20   8    -0.09  -0.12  -0.14     0.01   0.03   0.02     0.02  -0.06  -0.07
    21   1    -0.12  -0.09  -0.14     0.00   0.06   0.03     0.04  -0.09  -0.08
                     7                      8                      9
                     A                      A                      A
 Frequencies --   191.4336               224.1168               226.9475
 Red. masses --     3.1227                 1.4838                 2.0190
 Frc consts  --     0.0674                 0.0439                 0.0613
 IR Inten    --    24.5888                21.7211                76.1261
  Atom  AN      X      Y      Z        X      Y      Z        X      Y      Z
     1   6    -0.07   0.01  -0.06     0.02  -0.06   0.06     0.05  -0.02   0.06
     2   1    -0.07  -0.09  -0.10    -0.09  -0.16   0.06    -0.07  -0.19   0.03
     3   1    -0.06   0.09  -0.14     0.10   0.03  -0.01     0.12   0.12  -0.07
     4   1    -0.06   0.03   0.03     0.06  -0.03   0.24     0.11   0.02   0.29
     5   6    -0.06   0.00  -0.04     0.02  -0.03   0.00     0.05   0.01  -0.01
     6   8    -0.10   0.02  -0.09    -0.01   0.02  -0.07    -0.01   0.00  -0.02
     7   8     0.08   0.07   0.02    -0.01   0.07  -0.05    -0.01  -0.05  -0.03
     8   1     0.11   0.09   0.07     0.03   0.02  -0.08    -0.05   0.02   0.02
     9   8    -0.06  -0.07   0.07    -0.01  -0.02   0.00     0.11   0.01  -0.06
    10   1    -0.15  -0.13   0.22     0.34   0.29  -0.40    -0.40  -0.43   0.52
    11   6     0.01  -0.08   0.11     0.08  -0.03   0.03     0.04  -0.01  -0.02
    12   1     0.09  -0.11   0.23     0.32  -0.19   0.31     0.09  -0.06   0.01
    13   1     0.08   0.04   0.16     0.25   0.17  -0.21     0.09   0.06  -0.05
    14   1    -0.05  -0.28   0.09    -0.25  -0.12   0.06     0.00  -0.02  -0.02
    15   1    -0.11   0.09  -0.21    -0.03   0.01  -0.06     0.05  -0.03  -0.02
    16   6     0.13  -0.10   0.11    -0.05   0.01   0.01    -0.06  -0.05  -0.02
    17   1     0.36  -0.02   0.22    -0.09   0.06   0.03    -0.02  -0.10  -0.04
    18   1    -0.03  -0.25   0.10    -0.03   0.02  -0.05    -0.17  -0.15  -0.04
    19   1     0.13  -0.22   0.20    -0.03  -0.03   0.04     0.07  -0.03  -0.03
    20   8     0.06   0.15  -0.13    -0.05   0.00   0.04    -0.13   0.12   0.06
    21   1    -0.04   0.10  -0.19    -0.06   0.06   0.06    -0.15   0.12   0.06
                    10                     11                     12
                     A                      A                      A
 Frequencies --   276.9723               294.0327               305.4402
 Red. masses --     2.1933                 1.4702                 2.3645
 Frc consts  --     0.0991                 0.0749                 0.1300
 IR Inten    --    31.5427                13.1159                76.5967
  Atom  AN      X      Y      Z        X      Y      Z        X      Y      Z
     1   6     0.11   0.08   0.04     0.01   0.01   0.01     0.11   0.10  -0.08
     2   1     0.23   0.48   0.16    -0.19  -0.40  -0.09     0.17  -0.14  -0.20
     3   1     0.09  -0.22   0.35     0.13   0.33  -0.31     0.21   0.34  -0.32
     4   1     0.02   0.02  -0.36     0.10   0.12   0.50    -0.01   0.29   0.18
     5   6     0.08   0.01  -0.01     0.00   0.02  -0.04     0.06  -0.06   0.07
     6   8     0.05  -0.03  -0.08     0.01   0.01  -0.03     0.04   0.00   0.05
     7   8     0.01   0.10  -0.09     0.04   0.05  -0.02    -0.04  -0.10  -0.05
     8   1     0.03   0.12  -0.05     0.05   0.07   0.01    -0.02  -0.18  -0.13
     9   8    -0.01  -0.05   0.03    -0.02   0.01  -0.04    -0.02  -0.09   0.11
    10   1    -0.06  -0.10   0.05    -0.06  -0.03  -0.01     0.33   0.23  -0.28
    11   6    -0.12  -0.10   0.07    -0.09  -0.03   0.06    -0.03   0.02   0.00
    12   1    -0.20   0.09   0.14    -0.24   0.15  -0.03    -0.13   0.10  -0.11
    13   1    -0.20  -0.20   0.15    -0.21  -0.15   0.25    -0.10  -0.06   0.09
    14   1    -0.10  -0.22   0.05     0.09  -0.10   0.03     0.10   0.08  -0.01
    15   1     0.10  -0.03   0.00     0.00   0.00   0.02     0.10   0.06   0.03
    16   6    -0.04  -0.01   0.00     0.01   0.00   0.00    -0.04  -0.01   0.01
    17   1    -0.06  -0.01  -0.01    -0.07   0.01  -0.02     0.06  -0.02   0.03
    18   1    -0.05  -0.02  -0.02     0.07   0.06  -0.03    -0.13  -0.08   0.04
    19   1    -0.01  -0.01   0.00     0.00   0.01  -0.01    -0.03  -0.02   0.02
    20   8    -0.05   0.00   0.04     0.04  -0.09   0.05    -0.08   0.11  -0.06
    21   1    -0.06   0.03   0.05     0.05  -0.05   0.07    -0.10   0.05  -0.08
                    13                     14                     15
                     A                      A                      A
 Frequencies --   360.4650               401.4063               482.5663
 Red. masses --     5.1754                 3.5296                 4.8763
 Frc consts  --     0.3962                 0.3351                 0.6690
 IR Inten    --   167.9786                81.0145                21.6432
  Atom  AN      X      Y      Z        X      Y      Z        X      Y      Z
     1   6     0.04  -0.05   0.07     0.06   0.15   0.09     0.10  -0.13   0.00
     2   1    -0.15  -0.16   0.09    -0.01   0.31   0.18    -0.05  -0.12   0.06
     3   1     0.05  -0.01   0.03     0.40   0.10   0.17     0.05  -0.21   0.07
     4   1     0.17  -0.10   0.23    -0.09   0.31   0.18     0.24  -0.26   0.00
     5   6     0.06   0.05  -0.02    -0.06  -0.05  -0.07     0.06  -0.04  -0.09
     6   8     0.13  -0.20   0.12    -0.13   0.04  -0.14     0.20   0.19  -0.17
     7   8    -0.22   0.18   0.17    -0.12  -0.08   0.18    -0.12  -0.05   0.20
     8   1    -0.19   0.09   0.07    -0.20  -0.13   0.04    -0.22  -0.14  -0.01
     9   8     0.00   0.09  -0.14     0.19  -0.03  -0.04    -0.19  -0.11   0.02
    10   1     0.05   0.09  -0.33     0.33   0.17   0.00    -0.33  -0.31  -0.03
    11   6    -0.02  -0.17  -0.02    -0.04  -0.02  -0.01     0.02   0.17   0.06
    12   1    -0.10  -0.09  -0.09    -0.04  -0.02   0.01    -0.01   0.36   0.21
    13   1    -0.09  -0.29  -0.05    -0.03   0.03   0.08    -0.04   0.07   0.08
    14   1     0.02  -0.03  -0.01     0.00  -0.16  -0.04    -0.04   0.01   0.04
    15   1     0.30  -0.20   0.14    -0.22   0.09  -0.22     0.17   0.16  -0.04
    16   6     0.05   0.00   0.00     0.03   0.01  -0.01     0.00   0.01  -0.02
    17   1     0.21   0.01   0.05     0.01   0.04   0.00    -0.01   0.01  -0.02
    18   1    -0.09  -0.11   0.05     0.09   0.06  -0.02     0.00   0.02  -0.02
    19   1    -0.01  -0.06   0.04     0.00   0.01  -0.01    -0.01   0.01  -0.02
    20   8    -0.01   0.11  -0.17     0.05  -0.04  -0.02     0.00   0.01  -0.03
    21   1     0.00  -0.03  -0.21     0.05   0.03   0.00    -0.03   0.02  -0.03
                    16                     17                     18
                     A                      A                      A
 Frequencies --   496.9191               532.1165               652.9217
 Red. masses --     3.3165                 3.9218                 1.2710
 Frc consts  --     0.4825                 0.6543                 0.3192
 IR Inten    --    25.9965                25.4293               105.1269
  Atom  AN      X      Y      Z        X      Y      Z        X      Y      Z
     1   6    -0.15   0.00   0.05     0.07  -0.05  -0.06    -0.04   0.01   0.01
     2   1    -0.40  -0.08   0.10     0.40  -0.25  -0.26     0.01   0.03   0.00
     3   1    -0.29  -0.04   0.07    -0.32   0.07  -0.21     0.02   0.02   0.00
     4   1     0.13  -0.21   0.13     0.04  -0.09  -0.23    -0.13   0.07   0.01
     5   6    -0.03   0.20  -0.07     0.11   0.00   0.27    -0.05  -0.07   0.03
     6   8     0.13  -0.01  -0.10    -0.05   0.01  -0.17     0.06   0.02  -0.02
     7   8    -0.05  -0.13  -0.08     0.02  -0.08   0.10     0.04  -0.04  -0.02
     8   1    -0.21  -0.08  -0.16    -0.05  -0.08   0.04    -0.37   0.65   0.59
     9   8     0.08   0.06   0.19    -0.04   0.25   0.01     0.01   0.00  -0.03
    10   1     0.24   0.32   0.29    -0.15   0.01  -0.23     0.08   0.07  -0.08
    11   6    -0.02  -0.08  -0.02    -0.05  -0.12  -0.05     0.00  -0.01   0.00
    12   1    -0.06   0.09   0.10    -0.03  -0.02   0.09    -0.02   0.07   0.04
    13   1    -0.08  -0.17  -0.01    -0.05  -0.10   0.00    -0.02  -0.04   0.00
    14   1    -0.08  -0.16  -0.02    -0.10  -0.27  -0.07    -0.01  -0.02   0.00
    15   1     0.21  -0.11   0.08    -0.10   0.04  -0.24     0.05   0.02   0.08
    16   6     0.02   0.01   0.00    -0.01   0.00   0.00    -0.01   0.00   0.00
    17   1     0.03   0.01   0.00    -0.03   0.00   0.00     0.00  -0.01   0.00
    18   1    -0.01  -0.01   0.02     0.01   0.01  -0.01    -0.03  -0.02   0.00
    19   1    -0.01   0.00   0.01     0.01   0.01   0.00     0.00   0.00   0.00
    20   8     0.00   0.00  -0.02     0.00   0.00   0.02    -0.01   0.03  -0.01
    21   1     0.02  -0.06  -0.03     0.00   0.04   0.03     0.06  -0.12  -0.04
                    19                     20                     21
                     A                      A                      A
 Frequencies --   674.7776               843.6285               908.4955
 Red. masses --     2.6464                 1.0837                 3.8776
 Frc consts  --     0.7100                 0.4544                 1.8856
 IR Inten    --   283.5965               353.7046               274.4642
  Atom  AN      X      Y      Z        X      Y      Z        X      Y      Z
     1   6     0.17  -0.05  -0.03     0.01   0.00   0.00     0.17  -0.14  -0.09
     2   1     0.02  -0.08   0.00     0.03   0.00  -0.01     0.05   0.10   0.06
     3   1     0.04  -0.09   0.00     0.01   0.01  -0.01     0.70  -0.22   0.03
     4   1     0.37  -0.21  -0.03    -0.02   0.02  -0.01     0.04   0.03   0.08
     5   6     0.12   0.17  -0.11     0.00   0.01   0.01    -0.20  -0.11  -0.13
     6   8    -0.17  -0.05   0.05    -0.03   0.01  -0.04     0.02   0.12   0.08
     7   8    -0.02  -0.06  -0.02     0.01   0.02   0.01    -0.01   0.02  -0.02
     8   1    -0.52   0.46   0.27     0.01  -0.09  -0.13     0.18  -0.03   0.08
     9   8    -0.06  -0.01   0.05     0.00  -0.01   0.00    -0.02   0.18   0.14
    10   1     0.05   0.11  -0.02     0.00  -0.01  -0.01    -0.09   0.14   0.26
    11   6    -0.01   0.04   0.02     0.00   0.01  -0.01    -0.01  -0.17  -0.08
    12   1     0.04  -0.18  -0.10     0.02  -0.03  -0.01    -0.03  -0.10  -0.05
    13   1     0.05   0.13   0.03     0.03   0.08   0.05     0.04  -0.07  -0.05
    14   1     0.05   0.02   0.01     0.03  -0.05  -0.02     0.02  -0.02  -0.05
    15   1    -0.12  -0.01  -0.07     0.00  -0.03   0.40    -0.08   0.10   0.13
    16   6     0.03   0.01   0.00    -0.01   0.00   0.01    -0.02  -0.01   0.00
    17   1     0.01   0.01   0.00    -0.03  -0.06  -0.04    -0.02  -0.01   0.00
    18   1     0.04   0.02   0.00    -0.05  -0.04  -0.01     0.00   0.01   0.00
    19   1     0.01   0.01   0.00     0.04   0.03  -0.01    -0.01   0.00  -0.01
    20   8     0.02  -0.02   0.00    -0.01   0.04   0.02     0.01   0.01   0.00
    21   1     0.06  -0.08   0.00     0.36  -0.78  -0.20     0.03  -0.04  -0.02
                    22                     23                     24
                     A                      A                      A
 Frequencies --   991.3011               994.8479              1039.6350
 Red. masses --     3.4593                 6.2716                 1.5705
 Frc consts  --     2.0029                 3.6571                 1.0001
 IR Inten    --   297.9329                89.7656                80.9590
  Atom  AN      X      Y      Z        X      Y      Z        X      Y      Z
     1   6     0.03  -0.10   0.03    -0.03   0.06   0.05     0.08  -0.01   0.12
     2   1     0.38   0.01  -0.05     0.03  -0.09  -0.04     0.56  -0.29  -0.17
     3   1     0.25   0.05  -0.11    -0.35   0.10  -0.02    -0.35   0.19  -0.14
     4   1    -0.33   0.18  -0.05     0.09  -0.08  -0.08    -0.01  -0.07  -0.26
     5   6    -0.07  -0.01  -0.02     0.07   0.05   0.03    -0.12   0.04  -0.03
     6   8    -0.01  -0.12  -0.09    -0.01   0.32   0.12     0.02   0.01   0.00
     7   8    -0.01   0.00  -0.02     0.02   0.00   0.02    -0.01   0.01   0.00
     8   1     0.11   0.00   0.07    -0.15   0.01  -0.11     0.05  -0.02   0.02
     9   8     0.00   0.07   0.03    -0.01  -0.14  -0.07    -0.01  -0.04  -0.05
    10   1    -0.01   0.10   0.14     0.02  -0.12  -0.09     0.15   0.31   0.35
    11   6     0.00   0.15   0.06    -0.04  -0.29  -0.15     0.01  -0.01  -0.01
    12   1     0.03   0.12   0.07     0.01  -0.34  -0.11    -0.01   0.04   0.01
    13   1    -0.01   0.15   0.12     0.13   0.07   0.01    -0.01  -0.04  -0.01
    14   1     0.01   0.00   0.04     0.08  -0.11  -0.13    -0.02  -0.01   0.00
    15   1     0.18  -0.26   0.32     0.08   0.17   0.19    -0.01  -0.02   0.06
    16   6     0.25   0.12   0.02     0.27   0.12   0.03    -0.05  -0.02  -0.01
    17   1     0.22   0.08   0.00     0.15   0.07  -0.02     0.01   0.00   0.02
    18   1     0.04  -0.04   0.04     0.15   0.03   0.03    -0.04  -0.01   0.01
    19   1     0.14   0.04   0.07     0.15   0.08   0.04    -0.06  -0.03   0.00
    20   8    -0.19  -0.10  -0.04    -0.20  -0.12  -0.02     0.04   0.02   0.00
    21   1    -0.17   0.06   0.07    -0.15  -0.04   0.05     0.05   0.07   0.03
                    25                     26                     27
                     A                      A                      A
 Frequencies --  1088.0163              1132.2629              1164.2987
 Red. masses --     1.5298                 1.1336                 1.2145
 Frc consts  --     1.0670                 0.8562                 0.9700
 IR Inten    --    82.7059               122.8679                 7.3538
  Atom  AN      X      Y      Z        X      Y      Z        X      Y      Z
     1   6     0.08   0.11  -0.06     0.00   0.00   0.02    -0.01   0.02   0.02
     2   1    -0.36  -0.12   0.01     0.07  -0.03  -0.02     0.03  -0.04  -0.02
     3   1    -0.24  -0.14   0.17    -0.03   0.03  -0.02    -0.10   0.04  -0.01
     4   1     0.61  -0.32   0.02    -0.03   0.01  -0.03     0.02  -0.03  -0.04
     5   6    -0.09  -0.06   0.06    -0.01   0.00  -0.02     0.01  -0.02  -0.03
     6   8     0.00  -0.03  -0.02     0.00   0.00   0.01     0.03  -0.02   0.00
     7   8    -0.01   0.00  -0.01     0.00   0.00   0.00    -0.02   0.00  -0.01
     8   1     0.33  -0.03   0.25    -0.01   0.00  -0.01     0.15   0.00   0.15
     9   8     0.00   0.00  -0.02     0.00   0.00   0.01     0.01   0.02   0.02
    10   1     0.06   0.12   0.12     0.01   0.01   0.00    -0.03  -0.07  -0.08
    11   6     0.01   0.03   0.01     0.04   0.00   0.02    -0.08   0.03  -0.03
    12   1     0.01   0.07   0.05    -0.06   0.13  -0.01     0.12  -0.29   0.01
    13   1    -0.02  -0.02   0.01    -0.06  -0.24  -0.16     0.11   0.49   0.30
    14   1    -0.02   0.01   0.01    -0.08   0.15   0.06     0.17  -0.28  -0.11
    15   1    -0.05   0.00   0.04    -0.06   0.00  -0.35     0.17   0.13   0.22
    16   6     0.04   0.02   0.01     0.03  -0.01   0.08    -0.01  -0.03   0.04
    17   1     0.03   0.01   0.00    -0.44  -0.18  -0.16    -0.31  -0.10  -0.08
    18   1     0.02   0.00   0.00     0.23   0.12  -0.18     0.16   0.10  -0.09
    19   1     0.04   0.02   0.01     0.29   0.24  -0.11     0.08   0.12  -0.07
    20   8    -0.05  -0.01   0.00    -0.02   0.02  -0.01     0.03   0.01  -0.02
    21   1     0.01  -0.06  -0.01    -0.30  -0.26  -0.24    -0.24   0.09  -0.08
                    28                     29                     30
                     A                      A                      A
 Frequencies --  1191.6042              1192.9317              1221.7905
 Red. masses --     1.3326                 1.4759                 1.6369
 Frc consts  --     1.1148                 1.2375                 1.4397
 IR Inten    --    28.2093               109.6071               303.4315
  Atom  AN      X      Y      Z        X      Y      Z        X      Y      Z
     1   6     0.00  -0.02  -0.02     0.00   0.04   0.05     0.00   0.05   0.06
     2   1    -0.02   0.06   0.02     0.03  -0.13  -0.04     0.05  -0.16  -0.05
     3   1     0.12  -0.04   0.01    -0.24   0.08  -0.01    -0.27   0.10  -0.02
     4   1    -0.01   0.02   0.06     0.05  -0.06  -0.12     0.04  -0.06  -0.15
     5   6     0.00   0.04   0.04     0.01  -0.08  -0.08     0.00  -0.08  -0.12
     6   8    -0.01   0.01   0.02     0.01   0.01  -0.04    -0.03  -0.02   0.06
     7   8     0.00   0.00   0.00    -0.01   0.00   0.00     0.00   0.01  -0.01
     8   1     0.04  -0.01   0.03    -0.02   0.01   0.00    -0.09   0.02  -0.07
     9   8    -0.01  -0.02  -0.02     0.02   0.04   0.05     0.03   0.04   0.07
    10   1     0.04   0.07   0.07    -0.08  -0.18  -0.21    -0.12  -0.32  -0.37
    11   6     0.01   0.01  -0.05    -0.03  -0.03   0.09     0.05   0.03  -0.08
    12   1     0.04   0.14   0.16    -0.06  -0.33  -0.31     0.05   0.38   0.29
    13   1    -0.03   0.02   0.13     0.08   0.04  -0.21    -0.11  -0.15   0.16
    14   1    -0.04  -0.25  -0.08     0.11   0.46   0.14    -0.16  -0.38  -0.12
    15   1     0.00  -0.05  -0.04     0.00   0.00   0.05    -0.11  -0.02  -0.06
    16   6    -0.06   0.09   0.05    -0.03   0.06   0.01     0.01   0.01  -0.02
    17   1     0.08  -0.22  -0.11     0.16  -0.08  -0.03     0.14   0.05   0.03
    18   1    -0.48  -0.32  -0.21    -0.31  -0.20  -0.08    -0.04  -0.02   0.04
    19   1     0.58   0.06   0.07     0.28  -0.01   0.06    -0.02  -0.05   0.02
    20   8     0.04  -0.04  -0.02     0.02  -0.03  -0.01    -0.02   0.00   0.01
    21   1    -0.03   0.04  -0.01     0.01   0.01   0.01     0.04  -0.08   0.00
                    31                     32                     33
                     A                      A                      A
 Frequencies --  1254.8923              1310.5652              1374.8740
 Red. masses --     1.2645                 1.2445                 1.6616
 Frc consts  --     1.1733                 1.2594                 1.8506
 IR Inten    --   161.6197                82.8201                78.8282
  Atom  AN      X      Y      Z        X      Y      Z        X      Y      Z
     1   6    -0.03  -0.02   0.02     0.02   0.00  -0.01     0.00   0.01   0.00
     2   1     0.08   0.07   0.01     0.02   0.00  -0.01    -0.26   0.02   0.09
     3   1     0.02   0.06  -0.07     0.04  -0.02   0.01    -0.26   0.04  -0.04
     4   1    -0.12   0.06   0.00     0.05  -0.02   0.01    -0.21   0.16  -0.05
     5   6     0.07   0.06  -0.03    -0.04   0.05   0.03     0.16  -0.13  -0.07
     6   8    -0.02   0.03   0.00    -0.05   0.01  -0.03    -0.03   0.00   0.01
     7   8    -0.07  -0.03  -0.02     0.00  -0.01   0.00    -0.01   0.01   0.01
     8   1     0.69  -0.05   0.62    -0.05   0.02  -0.02     0.04  -0.01   0.02
     9   8     0.00  -0.01   0.01     0.02  -0.02   0.00    -0.05   0.04  -0.01
    10   1    -0.01  -0.08  -0.13    -0.06  -0.20  -0.23     0.10   0.40   0.50
    11   6     0.02  -0.02   0.00     0.06  -0.02   0.01     0.04   0.01  -0.01
    12   1    -0.03   0.06  -0.02    -0.06   0.18   0.00     0.01   0.03  -0.02
    13   1    -0.02  -0.13  -0.08    -0.04  -0.24  -0.10    -0.06  -0.17  -0.02
    14   1    -0.05   0.02   0.01    -0.14   0.09   0.05    -0.10  -0.07   0.00
    15   1     0.01  -0.04  -0.03     0.02   0.00   0.73    -0.01   0.22   0.24
    16   6     0.00   0.00  -0.02    -0.01  -0.03   0.04     0.00  -0.01   0.04
    17   1     0.06   0.03   0.02    -0.22  -0.07  -0.04    -0.12  -0.06  -0.03
    18   1    -0.02  -0.01   0.03     0.07   0.03  -0.07     0.03   0.00  -0.07
    19   1    -0.06  -0.04   0.01     0.03   0.08  -0.04     0.06   0.07  -0.02
    20   8     0.01   0.00   0.01     0.03   0.00  -0.05    -0.02  -0.01  -0.03
    21   1     0.01  -0.11  -0.02    -0.02   0.35   0.10     0.26   0.15   0.14
                    34                     35                     36
                     A                      A                      A
 Frequencies --  1448.9252              1463.7194              1471.4073
 Red. masses --     1.3305                 1.2460                 1.1080
 Frc consts  --     1.6458                 1.5729                 1.4134
 IR Inten    --    69.1991                41.0446               145.9245
  Atom  AN      X      Y      Z        X      Y      Z        X      Y      Z
     1   6     0.14  -0.05  -0.01     0.04  -0.02   0.00     0.00   0.00  -0.01
     2   1    -0.52   0.10   0.27    -0.10   0.04   0.07     0.04  -0.07  -0.05
     3   1    -0.46   0.05  -0.16    -0.08   0.05  -0.08     0.00  -0.09   0.09
     4   1    -0.37   0.34  -0.10    -0.08   0.05  -0.06    -0.03   0.06   0.06
     5   6    -0.05   0.03   0.03    -0.05   0.04   0.01    -0.01   0.01   0.01
     6   8     0.00   0.00  -0.01     0.04   0.01   0.01     0.02   0.01   0.01
     7   8     0.00   0.00   0.00     0.00   0.00  -0.01     0.00   0.00   0.00
     8   1    -0.02   0.00  -0.01     0.05  -0.01   0.03    -0.02   0.00  -0.02
     9   8     0.01  -0.01   0.00     0.01  -0.01   0.01     0.00   0.00   0.00
    10   1    -0.01  -0.07  -0.09    -0.03  -0.13  -0.17     0.00  -0.01   0.00
    11   6     0.00   0.00   0.00    -0.03   0.03   0.02     0.01   0.07   0.04
    12   1     0.01  -0.01   0.02     0.04  -0.16  -0.06     0.04  -0.34  -0.34
    13   1     0.00   0.01   0.04    -0.03  -0.02  -0.12    -0.14  -0.31  -0.25
    14   1    -0.01   0.05   0.01     0.13  -0.19  -0.04    -0.07  -0.52  -0.05
    15   1     0.04  -0.05   0.02    -0.18  -0.19  -0.23    -0.06   0.14   0.11
    16   6     0.00   0.01  -0.03     0.00  -0.03   0.07    -0.04   0.00  -0.02
    17   1     0.04   0.02  -0.01    -0.09  -0.02   0.05     0.26   0.04   0.07
    18   1    -0.03  -0.01   0.06     0.08   0.01  -0.18     0.15   0.17   0.06
    19   1    -0.04  -0.07   0.03     0.06   0.22  -0.12     0.23  -0.03   0.01
    20   8     0.02   0.00   0.02    -0.05   0.01  -0.04    -0.01  -0.01   0.01
    21   1    -0.26  -0.06  -0.11     0.67   0.15   0.28    -0.20  -0.05  -0.08
                    37                     38                     39
                     A                      A                      A
 Frequencies --  1488.9228              1493.3523              1497.0656
 Red. masses --     1.0698                 1.0952                 1.0490
 Frc consts  --     1.3973                 1.4390                 1.3852
 IR Inten    --    26.6352                 0.3320                22.3096
  Atom  AN      X      Y      Z        X      Y      Z        X      Y      Z
     1   6    -0.01  -0.04   0.00     0.00   0.02   0.02     0.01   0.00  -0.04
     2   1     0.13   0.52   0.18    -0.21  -0.32  -0.06     0.28   0.03  -0.10
     3   1    -0.17   0.27  -0.32     0.24  -0.03   0.08    -0.34  -0.29   0.25
     4   1     0.23  -0.16   0.18    -0.15   0.01  -0.33    -0.04   0.24   0.50
     5   6    -0.01  -0.02   0.00     0.01   0.02   0.01     0.00   0.01  -0.02
     6   8     0.00  -0.01   0.00    -0.01  -0.01  -0.01     0.00   0.00  -0.01
     7   8     0.00   0.00   0.00     0.00   0.00   0.00     0.00   0.00   0.00
     8   1    -0.02   0.00  -0.02     0.02   0.00   0.02     0.01   0.00   0.01
     9   8     0.00   0.00   0.00     0.00   0.00   0.00     0.00   0.00   0.00
    10   1     0.00   0.01   0.01     0.01   0.01   0.01    -0.01  -0.02  -0.02
    11   6     0.01  -0.02   0.00    -0.02  -0.02  -0.02     0.00   0.00  -0.03
    12   1    -0.12   0.16  -0.04     0.08   0.09   0.28     0.20  -0.16   0.19
    13   1     0.10   0.15   0.02     0.00   0.02   0.04    -0.14  -0.12   0.26
    14   1    -0.07   0.04   0.02     0.21   0.25   0.00    -0.01   0.27   0.02
    15   1    -0.01   0.07   0.04     0.00   0.04   0.05    -0.01  -0.04  -0.01
    16   6    -0.05  -0.02   0.00    -0.06  -0.02   0.00    -0.02  -0.01   0.01
    17   1     0.30   0.03   0.11     0.39   0.03   0.15     0.11   0.00   0.05
    18   1     0.21   0.20  -0.04     0.29   0.26  -0.07     0.08   0.07  -0.06
    19   1     0.26   0.06  -0.05     0.31   0.09  -0.08     0.07   0.06  -0.04
    20   8    -0.01   0.00   0.00    -0.02  -0.01   0.00    -0.01   0.00   0.00
    21   1    -0.01  -0.01   0.00    -0.01  -0.01   0.01     0.05   0.01   0.02
                    40                     41                     42
                     A                      A                      A
 Frequencies --  1508.2729              1510.8269              1521.7578
 Red. masses --     1.0476                 1.0477                 1.0459
 Frc consts  --     1.4041                 1.4090                 1.4270
 IR Inten    --    14.8613                10.0370                 8.1520
  Atom  AN      X      Y      Z        X      Y      Z        X      Y      Z
     1   6     0.00   0.00   0.00    -0.01  -0.01   0.00    -0.01  -0.01   0.02
     2   1     0.00  -0.05  -0.02     0.04   0.19   0.07    -0.09   0.08   0.08
     3   1     0.00  -0.04   0.04    -0.02   0.14  -0.15     0.18   0.21  -0.19
     4   1    -0.03   0.03   0.00     0.11  -0.10   0.02     0.08  -0.16  -0.22
     5   6     0.00   0.00   0.00     0.00  -0.01   0.00    -0.01   0.00   0.01
     6   8     0.00   0.00   0.00    -0.01   0.00   0.00     0.01   0.01  -0.01
     7   8     0.00   0.00   0.00     0.00   0.00   0.00     0.00   0.00   0.00
     8   1     0.00   0.00   0.00    -0.01   0.00  -0.01     0.00   0.00   0.00
     9   8     0.00   0.00   0.00     0.00   0.00   0.00     0.00   0.00   0.00
    10   1     0.00   0.01   0.01     0.00   0.01   0.02     0.00   0.00  -0.01
    11   6     0.01  -0.01   0.00    -0.04   0.02   0.00     0.02   0.03  -0.03
    12   1    -0.06   0.04  -0.08     0.26  -0.12   0.40     0.25  -0.40  -0.04
    13   1     0.04   0.07   0.04    -0.15  -0.30  -0.26    -0.28  -0.27   0.49
    14   1    -0.11  -0.01   0.02     0.56   0.02  -0.08    -0.34   0.20   0.05
    15   1     0.01   0.00   0.01    -0.03   0.04   0.08    -0.01  -0.01  -0.03
    16   6     0.01  -0.05  -0.02     0.01   0.00  -0.02     0.00   0.00   0.00
    17   1    -0.15   0.59   0.35    -0.19   0.12   0.01    -0.03   0.02   0.01
    18   1    -0.22  -0.19   0.22    -0.10  -0.05   0.24    -0.02  -0.02   0.01
    19   1     0.22   0.40  -0.34     0.09  -0.05   0.02    -0.01   0.01  -0.01
    20   8     0.01  -0.01   0.00     0.01   0.00   0.00     0.00   0.00   0.00
    21   1    -0.05  -0.03  -0.03    -0.06   0.00  -0.02     0.01   0.00   0.00
                    43                     44                     45
                     A                      A                      A
 Frequencies --  1525.1301              1715.9596              1989.2693
 Red. masses --     1.0425                 1.1164                 1.1232
 Frc consts  --     1.4287                 1.9368                 2.6189
 IR Inten    --     6.6452               261.0518              3210.7417
  Atom  AN      X      Y      Z        X      Y      Z        X      Y      Z
     1   6     0.00   0.00   0.00     0.01  -0.01   0.00     0.00   0.01   0.00
     2   1     0.00  -0.05  -0.02     0.02  -0.01   0.00    -0.01   0.00   0.00
     3   1    -0.01  -0.04   0.04     0.00  -0.01   0.00    -0.01   0.00   0.00
     4   1    -0.04   0.04   0.01    -0.04   0.03   0.01     0.03  -0.02   0.00
     5   6     0.00   0.01   0.00    -0.04   0.05   0.01    -0.02  -0.03   0.01
     6   8     0.01   0.00   0.00     0.00  -0.05   0.00    -0.07   0.03   0.00
     7   8     0.00   0.00   0.00     0.00   0.00   0.00     0.00   0.00   0.00
     8   1     0.02   0.00   0.01     0.02  -0.01   0.01    -0.02   0.01  -0.02
     9   8     0.00   0.00   0.00     0.01  -0.01   0.00     0.00   0.00   0.00
    10   1     0.00  -0.02  -0.03    -0.03  -0.08  -0.07     0.00   0.00   0.00
    11   6     0.01  -0.01   0.00     0.02  -0.01   0.00     0.01   0.01   0.01
    12   1    -0.06   0.04  -0.06     0.01   0.03   0.02     0.03  -0.02  -0.02
    13   1     0.05   0.11   0.10     0.01  -0.04   0.00    -0.04  -0.08  -0.06
    14   1    -0.13   0.05   0.02    -0.01   0.05   0.01     0.00  -0.06   0.00
    15   1    -0.04  -0.03  -0.06     0.23   0.93  -0.12     0.93  -0.22  -0.16
    16   6    -0.02   0.01  -0.04     0.01   0.01   0.00    -0.02  -0.01   0.00
    17   1    -0.31  -0.01  -0.10    -0.02   0.00  -0.02     0.01   0.00   0.03
    18   1     0.09   0.18   0.60    -0.07  -0.06  -0.02     0.05   0.06   0.01
    19   1     0.45  -0.34   0.24    -0.03   0.01   0.01     0.05   0.00  -0.02
    20   8    -0.02   0.00  -0.02    -0.02  -0.02   0.00     0.01   0.00   0.00
    21   1     0.20   0.05   0.08     0.18  -0.04   0.05     0.12  -0.03   0.08
                    46                     47                     48
                     A                      A                      A
 Frequencies --  3001.9388              3070.2281              3105.7206
 Red. masses --     1.0621                 1.0302                 1.0300
 Frc consts  --     5.6392                 5.7216                 5.8534
 IR Inten    --     1.5532                51.1826                 8.8085
  Atom  AN      X      Y      Z        X      Y      Z        X      Y      Z
     1   6    -0.04   0.03  -0.05     0.00   0.00   0.00     0.00   0.00   0.00
     2   1     0.29  -0.35   0.85     0.00   0.00   0.00     0.00   0.00   0.00
     3   1     0.01  -0.12  -0.13     0.00   0.00   0.00     0.00   0.02   0.02
     4   1     0.12   0.15  -0.07     0.00   0.00   0.00    -0.01  -0.01   0.00
     5   6     0.00   0.00   0.00     0.00   0.00   0.00     0.00   0.00   0.00
     6   8     0.00   0.00   0.00     0.00   0.00   0.00     0.00   0.00   0.00
     7   8     0.00   0.00   0.00     0.00   0.00   0.00     0.00   0.00   0.00
     8   1     0.00   0.00   0.00     0.00   0.00   0.00     0.00   0.00   0.00
     9   8     0.00   0.00   0.00     0.00   0.00   0.00     0.00   0.00   0.00
    10   1     0.00   0.00   0.00     0.00   0.00   0.00     0.00   0.00   0.00
    11   6     0.00   0.00   0.00     0.00   0.00   0.00     0.01   0.03   0.03
    12   1     0.00   0.00   0.00     0.00   0.00   0.00    -0.41  -0.24   0.22
    13   1     0.00   0.00   0.00     0.00   0.00   0.00     0.38  -0.22   0.09
    14   1     0.00   0.00   0.00     0.00   0.00   0.00    -0.09   0.11  -0.71
    15   1     0.00   0.00   0.00    -0.02   0.01   0.00     0.02   0.00   0.00
    16   6     0.00   0.00   0.00     0.04   0.01   0.02     0.00   0.00   0.00
    17   1     0.00   0.00   0.00    -0.09  -0.23   0.36     0.00   0.00   0.00
    18   1     0.00   0.00   0.00    -0.39   0.45  -0.06     0.00   0.00   0.00
    19   1     0.00   0.00   0.00     0.01  -0.40  -0.54     0.00   0.00   0.00
    20   8     0.00   0.00   0.00     0.00   0.00   0.00     0.00   0.00   0.00
    21   1     0.00   0.00   0.00     0.02   0.03  -0.07     0.00   0.00   0.00
                    49                     50                     51
                     A                      A                      A
 Frequencies --  3143.4842              3146.8372              3179.1490
 Red. masses --     1.0785                 1.1089                 1.1050
 Frc consts  --     6.2792                 6.4700                 6.5800
 IR Inten    --     0.1167                30.1210                77.4195
  Atom  AN      X      Y      Z        X      Y      Z        X      Y      Z
     1   6    -0.04  -0.03   0.06     0.00   0.00   0.00     0.00   0.00   0.00
     2   1    -0.08   0.08  -0.20     0.00   0.00   0.00     0.00   0.00   0.00
     3   1     0.02  -0.32  -0.29     0.00   0.00   0.00     0.00   0.00   0.00
     4   1     0.53   0.64  -0.22     0.00   0.00   0.00     0.00   0.00   0.00
     5   6     0.00   0.00   0.00     0.00   0.00   0.00     0.00   0.00   0.00
     6   8     0.00   0.00   0.00     0.00   0.00   0.00     0.00   0.00   0.00
     7   8     0.00   0.00   0.00     0.00   0.00   0.00     0.00   0.00   0.00
     8   1     0.00   0.00   0.00     0.00   0.00   0.00     0.00   0.00   0.00
     9   8     0.00   0.00   0.00     0.00   0.00   0.00     0.00   0.00   0.00
    10   1     0.00   0.00   0.00     0.00   0.00   0.00     0.00   0.00   0.00
    11   6     0.00   0.00   0.00     0.00   0.00   0.00     0.00   0.00   0.00
    12   1    -0.01  -0.01   0.01     0.00   0.00   0.00     0.00   0.00   0.00
    13   1     0.00   0.00   0.00     0.00   0.00   0.00     0.00   0.00   0.00
    14   1     0.00   0.00  -0.02     0.00   0.00   0.00     0.00   0.00   0.00
    15   1     0.00   0.00   0.00     0.00   0.00   0.00     0.01   0.00   0.01
    16   6     0.00   0.00   0.00    -0.04   0.08   0.04     0.00   0.05  -0.08
    17   1     0.00   0.00   0.00     0.00   0.05  -0.04    -0.17  -0.44   0.70
    18   1     0.00   0.00   0.00     0.47  -0.54   0.09     0.22  -0.25   0.02
    19   1     0.00   0.00   0.00     0.00  -0.39  -0.55    -0.01   0.17   0.21
    20   8     0.00   0.00   0.00     0.00   0.00   0.00    -0.01  -0.01   0.02
    21   1     0.00   0.00   0.01    -0.01  -0.02   0.03     0.08   0.11  -0.26
                    52                     53                     54
                     A                      A                      A
 Frequencies --  3193.9998              3206.7801              3207.2847
 Red. masses --     1.1007                 1.1049                 1.0727
 Frc consts  --     6.6158                 6.6942                 6.5013
 IR Inten    --     0.9086                36.2074               367.2835
  Atom  AN      X      Y      Z        X      Y      Z        X      Y      Z
     1   6    -0.02  -0.08  -0.04     0.00   0.00   0.00     0.00   0.00   0.00
     2   1     0.01  -0.03   0.05     0.00   0.00   0.00     0.00   0.00   0.00
     3   1    -0.04   0.63   0.61     0.00   0.01   0.00     0.00   0.01   0.01
     4   1     0.28   0.33  -0.13     0.00   0.00   0.00     0.00   0.00   0.00
     5   6     0.00   0.00   0.00     0.00   0.00   0.00     0.00   0.00   0.00
     6   8     0.00   0.00   0.00     0.00   0.00   0.00     0.00   0.00   0.00
     7   8     0.00   0.00   0.00     0.00   0.00   0.00     0.00   0.00   0.00
     8   1     0.00   0.00   0.00     0.00   0.00   0.00    -0.01  -0.01   0.01
     9   8     0.00   0.00   0.00     0.00   0.00   0.00     0.00   0.00   0.00
    10   1     0.00   0.00   0.00     0.00   0.00   0.00     0.00   0.00   0.00
    11   6    -0.01   0.00   0.00    -0.03  -0.04   0.08    -0.01  -0.01   0.03
    12   1     0.02   0.01  -0.01     0.55   0.31  -0.29     0.19   0.11  -0.10
    13   1     0.05  -0.03   0.01    -0.16   0.09  -0.03    -0.06   0.03  -0.01
    14   1     0.00   0.00   0.03    -0.08   0.10  -0.59    -0.03   0.03  -0.20
    15   1     0.00   0.00   0.00     0.01  -0.01   0.00    -0.04   0.02  -0.01
    16   6     0.00   0.00   0.00     0.00   0.00   0.01     0.00   0.01  -0.02
    17   1     0.00   0.00   0.00     0.02   0.05  -0.08    -0.07  -0.15   0.23
    18   1     0.00   0.00   0.00     0.00   0.01   0.00     0.01  -0.02   0.00
    19   1     0.00   0.00   0.00     0.00  -0.01  -0.01    -0.01   0.03   0.04
    20   8     0.00   0.00   0.00    -0.01  -0.01   0.02     0.02   0.02  -0.05
    21   1     0.00   0.00  -0.01     0.10   0.12  -0.28    -0.28  -0.34   0.78
                    55                     56                     57
                     A                      A                      A
 Frequencies --  3234.4089              3387.7035              3743.0906
 Red. masses --     1.1098                 1.0678                 1.0656
 Frc consts  --     6.8407                 7.2200                 8.7967
 IR Inten    --     1.1911               124.9193               153.4226
  Atom  AN      X      Y      Z        X      Y      Z        X      Y      Z
     1   6     0.00   0.00   0.00     0.00   0.00   0.00     0.00   0.00   0.00
     2   1     0.00   0.00  -0.01     0.00   0.00   0.00     0.00   0.00   0.00
     3   1     0.00  -0.05  -0.05     0.00   0.00   0.00     0.00   0.00   0.00
     4   1    -0.01  -0.01   0.00     0.00   0.00   0.00     0.00   0.00   0.00
     5   6     0.00   0.00   0.00     0.00   0.00   0.00     0.00   0.00   0.00
     6   8     0.00   0.00   0.00     0.00   0.00   0.00     0.00   0.00   0.00
     7   8     0.00   0.00   0.00    -0.03  -0.05   0.03     0.00   0.00   0.00
     8   1     0.00   0.00   0.00     0.45   0.72  -0.52     0.00   0.00   0.00
     9   8     0.00   0.00   0.00     0.00   0.00   0.00    -0.05   0.04  -0.01
    10   1     0.00   0.00   0.00     0.00   0.00   0.00     0.77  -0.60   0.21
    11   6    -0.09   0.02  -0.02     0.00   0.00   0.00     0.00   0.00   0.00
    12   1     0.33   0.19  -0.19     0.00   0.00   0.00     0.00   0.00   0.00
    13   1     0.74  -0.43   0.18     0.00   0.00   0.00     0.00   0.00   0.00
    14   1     0.02  -0.03   0.21     0.00   0.00   0.00     0.00   0.00   0.00
    15   1     0.00  -0.01   0.00     0.00   0.00   0.00     0.01   0.00   0.00
    16   6     0.00   0.00   0.00     0.00   0.00   0.00     0.00   0.00   0.00
    17   1     0.00   0.00   0.00     0.00   0.00   0.00     0.00   0.00   0.00
    18   1     0.00   0.00   0.00     0.00   0.00   0.00     0.00   0.00   0.00
    19   1     0.00   0.00   0.00     0.00   0.00   0.00     0.00   0.00   0.00
    20   8     0.00   0.00   0.00     0.00   0.00   0.00     0.00   0.00   0.00
    21   1     0.00   0.00   0.00    -0.01  -0.01   0.02     0.00   0.00   0.00

 -------------------
 - Thermochemistry -
 -------------------
 Temperature   298.150 Kelvin.  Pressure   1.00000 Atm.
 Atom     1 has atomic number  6 and mass  12.00000
 Atom     2 has atomic number  1 and mass   1.00783
 Atom     3 has atomic number  1 and mass   1.00783
 Atom     4 has atomic number  1 and mass   1.00783
 Atom     5 has atomic number  6 and mass  12.00000
 Atom     6 has atomic number  8 and mass  15.99491
 Atom     7 has atomic number  8 and mass  15.99491
 Atom     8 has atomic number  1 and mass   1.00783
 Atom     9 has atomic number  8 and mass  15.99491
 Atom    10 has atomic number  1 and mass   1.00783
 Atom    11 has atomic number  6 and mass  12.00000
 Atom    12 has atomic number  1 and mass   1.00783
 Atom    13 has atomic number  1 and mass   1.00783
 Atom    14 has atomic number  1 and mass   1.00783
 Atom    15 has atomic number  1 and mass   1.00783
 Atom    16 has atomic number  6 and mass  12.00000
 Atom    17 has atomic number  1 and mass   1.00783
 Atom    18 has atomic number  1 and mass   1.00783
 Atom    19 has atomic number  1 and mass   1.00783
 Atom    20 has atomic number  8 and mass  15.99491
 Atom    21 has atomic number  1 and mass   1.00783
 Molecular mass:   125.08138 amu.
 Principal axes and moments of inertia in atomic units:
                           1         2         3
     Eigenvalues --   667.916281504.660501754.65383
           X            0.99996  -0.00787  -0.00489
           Y            0.00779   0.99985  -0.01533
           Z            0.00501   0.01529   0.99987
 This molecule is an asymmetric top.
 Rotational symmetry number  1.
 Warning -- assumption of classical behavior for rotation
           may cause significant error
 Rotational temperatures (Kelvin)      0.12968     0.05756     0.04936
 Rotational constants (GHZ):           2.70205     1.19943     1.02855
    1 imaginary frequencies ignored.
 Zero-point vibrational energy     471044.4 (Joules/Mol)
                                  112.58232 (Kcal/Mol)
 Warning -- explicit consideration of  16 degrees of freedom as
           vibrations may cause significant error
 Vibrational temperatures:     97.25   187.51   204.98   225.11   246.24
          (Kelvin)            275.43   322.45   326.53   398.50   423.05
                              439.46   518.63   577.53   694.30   714.95
                              765.60   939.41   970.85  1213.79  1307.12
                             1426.26  1431.36  1495.80  1565.41  1629.07
                             1675.16  1714.45  1716.36  1757.88  1805.51
                             1885.61  1978.13  2084.68  2105.96  2117.02
                             2142.23  2148.60  2153.94  2170.07  2173.74
                             2189.47  2194.32  2468.88  2862.11  4319.12
                             4417.37  4468.43  4522.77  4527.59  4574.08
                             4595.45  4613.84  4614.56  4653.59  4874.14
                             5385.47
 
 Zero-point correction=                           0.179411 (Hartree/Particle)
 Thermal correction to Energy=                    0.190534
 Thermal correction to Enthalpy=                  0.191478
 Thermal correction to Gibbs Free Energy=         0.143710
 Sum of electronic and zero-point Energies=           -460.553095
[...]
 39459,-0.00015237,0.00009761,0.00045145,0.00150565,-0.00086471,0.00027
 530,-0.00028873,0.00010737,0.00013774,0.02915133,-0.02900727,-0.001356
 91,-0.00045411,0.00066710,-0.00040912,0.00139242,0.00430032,0.00493407
 ,0.00065562,-0.00064613,-0.00268285,-0.11831462,0.07130792,-0.05058696
 ,0.08929319,-0.04058081,0.05320700,-0.00129410,-0.00091941,0.00043402,
 -0.00029691,-0.00011725,-0.00011523,-0.00082932,-0.00060133,0.00021663
 ,0.00019795,0.00010288,0.00003556,0.00425218,-0.00881797,-0.01317979,-
 0.09532215,-0.00520621,0.01075423,0.00042512,-0.00007168,-0.00002730,0
 .00002209,0.00008767,-0.00020374,-0.00158643,-0.00788591,-0.00107593,-
 0.00086692,-0.00014975,0.00001492,0.64614157,0.00049307,0.00293063,0.0
 0047292,-0.00011682,0.00036876,-0.00017041,-0.00044045,-0.00043420,-0.
 00078792,0.00166230,-0.00097097,-0.00029716,-0.02094802,-0.03655436,0.
 00267247,0.00574455,-0.13187833,-0.03769084,0.00196340,0.00251199,-0.0
 0398866,-0.00114008,0.00014383,-0.00094744,0.00101056,0.00629488,0.001
 71125,-0.00002071,-0.00098028,-0.00003454,-0.02513403,0.44866658,0.001
 21588,0.00137014,-0.00107282,-0.00043262,-0.00015990,-0.00018374,0.000
 63193,0.00037507,0.00047461,0.00043832,-0.00005261,-0.00000879,-0.0140
 0677,-0.00304433,0.01229466,0.01299255,-0.05363713,-0.09940182,0.00108
 759,0.00222545,-0.00341333,-0.00090436,-0.00011884,-0.00057969,0.00322
 873,0.00754869,0.00289547,0.00025516,-0.00088414,0.00024550,-0.0169345
 3,-0.09361714,0.57970552,-0.00014583,0.00000914,0.00037330,0.00006639,
 0.00009062,0.00004862,0.00002186,-0.00013114,-0.00032035,0.00008603,-0
 .00015669,-0.00010206,0.00077614,0.00188552,-0.00050362,0.00214035,0.0
 0007388,-0.00108593,-0.00003482,0.00003676,0.00006682,-0.00000739,-0.0
 0000588,-0.00000696,0.00015618,-0.00001469,0.00006962,-0.00000199,0.00
 002338,-0.00001461,-0.23309032,-0.10292495,0.09568960,0.24102015,0.000
 18713,-0.00006374,-0.00009175,-0.00001760,-0.00007819,-0.00003886,-0.0
 0022776,0.00005408,0.00029610,-0.00018367,0.00022594,0.00014831,0.0045
 5533,0.00186780,-0.00470482,-0.02933552,-0.02931357,0.00999973,0.00002
 890,-0.00041332,0.00062857,0.00015407,0.00010405,0.00006132,-0.0010174
 1,-0.00306959,-0.00070254,-0.00025235,0.00018972,-0.00003740,-0.091397
 00,-0.10141044,0.05130514,0.10914658,0.12074202,0.00011400,-0.00024576
 ,0.00011267,0.00005948,0.00006597,0.00003160,-0.00021175,0.00008140,0.
 00005547,-0.00005669,0.00007950,0.00008328,0.00132621,0.00026841,-0.00
 294623,-0.01800516,-0.01588263,0.00731329,-0.00000487,0.00021055,0.000
 48990,0.00010033,0.00008898,0.00014899,-0.00049994,-0.00193476,-0.0003
 8881,-0.00013151,0.00009473,-0.00005638,0.10258853,0.05999336,-0.10608
 037,-0.10331465,-0.05285234,0.10425332,-0.00045760,-0.00036471,0.00060
 864,-0.00039235,-0.00032010,-0.00027878,-0.00089664,-0.00155302,0.0000
 8112,0.00009925,-0.00014977,-0.00021606,0.00035373,-0.00060487,0.00043
 396,0.00757839,-0.00437277,0.00135437,-0.00007140,0.00007269,0.0000104
 9,0.,0.00000162,0.00002950,-0.00012580,0.00036423,0.00004193,0.0000318
 7,0.00000766,0.00001063,-0.26512237,0.12459999,-0.05154610,-0.01750337
 ,0.01231663,-0.00647245,0.27587918,-0.00007143,0.00001777,-0.00018941,
 -0.00044243,-0.00039370,-0.00016534,-0.00090028,-0.00067872,0.00058167
 ,-0.00015438,0.00029179,0.00002608,0.00371711,0.00100166,-0.00046688,0
 .02767943,-0.02814678,-0.00162156,-0.00041106,-0.00036257,0.00050181,0
 .00008594,0.00001781,0.00010023,-0.00078852,-0.00013061,-0.00008232,0.
 00007356,0.00024718,0.00003899,0.11173213,-0.11394948,0.03083232,-0.01
 242104,0.01099364,-0.00365765,-0.12804507,0.13318272,-0.00015250,-0.00
 015494,0.00069910,-0.00025670,-0.00002025,-0.00020435,0.00056437,0.000
 47028,-0.00030032,-0.00002683,-0.00013460,-0.00021476,0.00039528,0.001
 51541,-0.00035475,0.01865781,-0.01601693,0.00121445,0.00003560,0.00012
 392,0.00018592,0.00009035,0.00009859,0.00015471,-0.00004268,-0.0002376
 1,-0.00005139,0.00002553,0.00012750,-0.00005939,-0.05854968,0.03520159
 ,-0.06703215,0.01186558,-0.00742968,0.00398477,0.05572539,-0.02640878,
 0.06452914,0.00007100,0.00002345,-0.00024082,0.00009278,0.00004405,0.0
 0004130,-0.00044370,-0.00003445,-0.00025355,0.00002181,0.00005684,0.00
 013575,0.00029478,-0.00026680,-0.00185010,0.00112253,-0.00253744,-0.00
 204063,-0.00012796,0.00064042,0.00024415,-0.00012429,-0.00004787,0.000
 08543,-0.00015978,-0.00002533,0.00020855,0.00001190,-0.00001756,0.0000
 0798,-0.06181573,0.00753727,-0.03486065,0.00642423,-0.00275507,0.02520
 554,-0.00023798,0.00343306,-0.02656144,0.05502480,-0.00017790,-0.00040
 673,0.00030376,0.00009541,-0.00000542,-0.00001293,-0.00008671,0.000014
 56,-0.00008974,-0.00011352,0.00006775,0.00001271,0.00116050,0.00367925
 ,-0.00359083,-0.00496386,-0.01252398,-0.04081490,0.00029685,-0.0008176
 6,0.00034426,0.00011917,0.00039003,0.00024777,-0.00004045,-0.00071616,
 0.00065452,-0.00000313,0.00003843,-0.00007669,0.00800923,-0.05933564,0
 .05878908,0.00390405,0.00021478,0.01300599,-0.00035629,0.00048082,0.01
 477419,-0.00603502,0.06785921,-0.00011481,-0.00022728,0.00013730,0.000
 04793,0.00003350,0.00003165,-0.00028880,0.00001837,0.00013520,-0.00007
 658,0.00006949,0.00004796,0.00185205,0.00220477,-0.00144733,-0.0017848
 7,-0.00903756,-0.01263948,-0.00005208,0.00092216,0.00044806,0.00021973
 ,0.00001519,0.00032092,-0.00020364,-0.00063137,0.00008421,-0.00006199,
 0.00009405,-0.00005200,-0.03573820,0.04540837,-0.31693859,-0.00247921,
 0.00243835,-0.00816635,0.00061616,0.00168049,-0.00159527,0.03897833,-0
 .04301966,0.34010423,0.00246421,0.00292554,-0.00204514,-0.00052347,0.0
 0003336,-0.00027258,-0.00027193,-0.00017714,0.00023584,0.00139607,-0.0
 0031305,-0.00014462,-0.03433508,-0.03041825,0.01417685,-0.13660046,0.0
 4535269,-0.00429536,-0.00271859,0.00683989,-0.00537480,-0.00229515,-0.
 00004754,-0.00091158,0.00184244,0.00772871,0.00153417,0.00158280,-0.00
 193584,0.00036400,0.01445534,0.01483448,0.00703358,-0.00007342,-0.0023
 8616,-0.00048033,0.00050286,-0.00578347,-0.00311970,-0.00035661,-0.002
 62311,-0.00178858,0.12924090,-0.00391176,-0.00684997,0.00341810,0.0007
 9951,-0.00008229,0.00007125,0.00034754,0.00010850,-0.00011408,-0.00205
 956,0.00090877,0.00028094,-0.01352752,0.03360717,-0.00515315,0.0282411
 3,-0.08368973,0.00140740,0.00166364,-0.00329427,0.00206508,0.00144804,
 -0.00025864,0.00026863,0.00318481,-0.00408029,-0.00242056,-0.00251628,
 -0.00244297,-0.00016681,0.01954287,-0.02120478,-0.00330135,0.00021123,
 0.00016727,0.00070432,-0.00143925,-0.00168684,-0.00146667,0.00014842,0
 .00145161,0.00059966,-0.00488864,0.10258977,0.00080609,0.00263896,-0.0
 0093228,-0.00009330,-0.00004063,0.00016585,-0.00020852,-0.00011778,0.0
 0005904,0.00074037,-0.00035403,0.00020557,0.01662685,-0.00473344,0.001
 65096,-0.01814217,0.00544100,-0.03050885,-0.00073781,-0.00092185,0.000
 05843,-0.00086911,0.00008490,0.00008620,-0.00053794,-0.00014074,-0.001
 63511,-0.00015135,-0.00018855,0.00126606,0.01411563,-0.00736963,-0.000
 06164,-0.00024944,0.00092563,0.00108507,-0.00053326,-0.00180809,-0.001
 23620,0.00088872,-0.00071909,-0.00059679,-0.01660299,0.00116852,0.0554
 4805,0.00043890,0.00040514,0.00013037,0.00007821,-0.00004658,-0.000074
 92,-0.00002720,-0.00002981,0.00002968,0.00018367,-0.00008467,-0.000026
 05,-0.00342458,-0.00232242,-0.00047012,0.00905729,-0.00269775,-0.00021
 607,0.00345918,0.00014927,-0.00157555,0.00056872,-0.00012599,0.0002755
 5,0.00124244,0.00098778,0.00065057,-0.00151413,-0.00123249,-0.00041051
 ,-0.00060091,0.00293218,0.00100388,-0.00036096,0.00089620,-0.00026922,
 0.00013693,-0.00015623,-0.00008242,-0.00011047,-0.00008617,0.00002094,
 -0.01955240,0.00414207,-0.00421775,0.46623632,0.00024930,0.00036837,-0
 .00010287,-0.00001534,-0.00000745,-0.00004188,-0.00001700,-0.00001851,
 0.00001210,0.00014761,-0.00003692,-0.00002839,-0.00255079,-0.00247301,
 0.00053267,0.01244814,-0.00753722,0.00047084,0.00088539,0.00102055,-0.
 00096554,0.00022671,-0.00012637,0.00000272,0.00030268,0.00077149,0.000
 37299,-0.00003049,-0.00046478,-0.00004050,0.00112234,0.00185902,0.0007
 7282,0.00062903,-0.00039200,0.00003774,-0.00011570,-0.00056162,-0.0002
 5712,-0.00002250,-0.00014665,-0.00017413,-0.01205533,0.01529102,-0.004
 08260,-0.05923744,0.57840676,-0.00000424,-0.00003921,0.00027392,0.0000
 7298,-0.00002361,0.00000414,-0.00001823,0.00001885,-0.00000258,-0.0000
 1331,0.00000042,-0.00000501,-0.00006496,0.00025124,-0.00153470,-0.0006
 5340,0.00095371,0.00078364,0.00334565,-0.00021563,-0.00160211,0.000483
 20,-0.00020905,-0.00003991,-0.00044840,0.00007343,0.00044613,0.0003735
 3,0.00023934,-0.00029223,-0.00023818,0.00006442,-0.00001085,-0.0002078
 3,0.00002776,0.00028876,0.00001593,0.00007050,0.00000479,0.00005984,0.
 00007037,-0.00007031,-0.00025263,-0.00385452,-0.00173232,-0.02288795,-
 0.02246989,0.62107670,-0.00002047,0.00002917,-0.00011882,-0.00003780,0
 .00001186,0.00000540,0.00000327,-0.00000216,0.00000243,-0.00000177,0.0
 0000310,0.00000319,0.00029347,-0.00015376,0.00052925,-0.00041438,0.000
 24134,-0.00015446,-0.00124733,0.00017324,0.00052673,-0.00017938,0.0000
 8723,-0.00002352,-0.00007412,-0.00007920,-0.00016804,0.00013922,0.0001
 2234,0.00013010,-0.00001597,-0.00020315,-0.00001389,-0.00004732,0.0001
 1861,-0.00000031,0.00000793,0.00002326,-0.00000475,0.00000024,-0.00000
 835,-0.00000008,0.00064889,-0.00059437,0.00086300,-0.05749428,-0.02101
 601,0.03652950,0.07273408,-0.00002993,-0.00002136,-0.00003439,-0.00001
 391,0.00000584,0.00000632,0.00000176,0.00000203,-0.00000059,-0.0000131
 2,0.00000673,0.00000249,0.00027271,0.00014979,0.00017211,-0.00086040,0
 .00028855,0.00005054,-0.00056723,-0.00000314,0.00027596,-0.00007639,0.
 00004873,-0.00001982,-0.00006149,-0.00010082,-0.00009739,0.00008625,0.
 00008981,0.00005943,-0.00000398,-0.00020328,-0.00009409,0.00004995,-0.
 00003146,0.00001270,0.00000043,0.00002601,0.00000359,0.00000784,0.0000
 0823,0.00000113,0.00138845,-0.00043096,0.00029605,-0.02720470,-0.12715
 096,0.11766516,0.03693126,0.13273330,0.00001553,0.00002553,-0.00002941
 ,-0.00000794,0.00000215,-0.00000274,0.00000193,-0.00000275,-0.00000045
 ,0.00000807,-0.00000308,-0.00000127,-0.00010791,-0.00012186,0.00010947
 ,0.00061538,-0.00024809,-0.00008309,-0.00018580,0.00005744,0.00003147,
 -0.00002766,0.00000381,0.00000617,0.00002964,0.00001965,-0.00001625,-0
 .00002126,-0.00002573,0.00002029,0.00007434,0.00016584,0.00001514,0.00
 003650,-0.00011350,0.00002231,-0.00002332,-0.00003117,0.00000134,-0.00
 000696,-0.00001312,-0.00000523,-0.00043601,0.00052319,0.00011536,0.047
 92164,0.12338463,-0.24881953,-0.04896489,-0.13135867,0.25724816,-0.000
 12221,-0.00016492,0.00004043,0.00000066,0.00000703,0.00001793,0.000009
 19,0.00001051,-0.00000826,-0.00006839,0.00002065,0.00001145,0.00112712
 ,0.00107188,-0.00018396,-0.00445801,0.00234543,-0.00012167,-0.00054003
 ,-0.00028848,0.00054186,-0.00009285,0.00007084,-0.00000979,-0.00019077
 ,-0.00036344,-0.00017916,0.00016077,0.00026431,0.00005245,-0.00032653,
 -0.00073978,-0.00032834,0.00002117,0.00002324,0.00000767,0.00000815,0.
 00017286,0.00010758,0.00002476,0.00005512,0.00003879,0.00574524,-0.004
 94193,0.00179044,-0.15368072,0.12856299,-0.01651409,0.00721208,-0.0048
 7859,0.00004273,0.18149043,-0.00002969,-0.00006599,0.00002773,0.000004
 43,0.00000016,0.00000416,0.00000211,0.00000294,-0.00000140,-0.00002479
 ,0.00000488,0.00000478,0.00027611,0.00037037,-0.00011388,-0.00187435,0
 .00106071,-0.00006398,-0.00008146,-0.00014409,0.00015683,-0.00001818,0
 .00001165,0.00001139,-0.00003350,-0.00010650,-0.00004576,-0.00001090,0
 .00005703,-0.00000408,-0.00020077,-0.00027801,-0.00012569,-0.00002754,
 0.00009320,-0.00002940,0.00002112,0.00008148,0.00003788,0.00000285,0.0
 0002443,0.00003151,0.00135951,-0.00182980,0.00038817,0.13691171,-0.214
 12214,0.02448907,0.00993367,-0.01061024,0.00015031,-0.13911193,0.22046
 416,-0.00001641,-0.00001738,-0.00000329,-0.00000273,0.00000098,0.00000
 344,-0.00000008,0.00000108,-0.00000111,-0.00000953,0.00000302,0.000002
 55,0.00020239,0.00014941,-0.00000331,-0.00071748,0.00044246,-0.0001115
 1,-0.00007992,-0.00003733,0.00006890,-0.00001482,0.00000645,-0.0000116
 2,-0.00004207,-0.00006048,-0.00003788,0.00003677,0.00005800,0.00001873
 ,-0.00007159,-0.00015192,-0.00007827,0.00001173,-0.00000722,-0.0000106
 3,0.00000011,0.00002273,0.00002633,-0.00000207,0.00001374,0.00002490,0
 .00102076,-0.00091263,0.00033855,-0.01791001,0.02188363,-0.05844727,-0
 .01773819,0.02046003,-0.00068876,0.02326310,-0.02402418,0.05251341,-0.
 00002759,-0.00001222,0.00001121,-0.00000517,0.00000032,0.00000558,-0.0
 0000878,0.00000662,0.00000272,-0.00001489,0.00000969,0.00000219,0.0003
 4378,0.00000470,-0.00016930,-0.00097431,0.00059190,0.00010193,-0.00012
 642,0.00009109,0.00015425,0.00001319,0.00002492,-0.00001813,-0.0002888
 5,-0.00004455,0.00003861,0.00037814,0.00026079,0.00001043,-0.00014536,
 -0.00041492,-0.00035635,-0.00001906,0.00011336,-0.00004759,0.00003364,
 0.00008017,0.00004380,-0.00011907,0.00008564,0.00008963,0.00194555,-0.
 00184555,-0.00027721,-0.05156003,0.01018407,0.01370398,0.00137190,0.00
 483686,0.00408116,0.00242112,0.01116020,0.01739790,0.06125834,-0.00003
 674,-0.00003779,0.00000992,-0.00000209,0.00000351,0.00000488,0.0000016
 7,0.00000417,-0.00000348,-0.00001890,0.00000664,0.00000211,0.00035401,
 0.00021043,-0.00008307,-0.00094918,0.00042499,-0.00001606,-0.00025490,
 -0.00005791,0.00023480,-0.00004129,0.00002330,-0.00002634,-0.00014950,
 -0.00009007,-0.00001807,0.00019311,0.00014754,0.00001918,-0.00000683,-
 0.00023788,-0.00002876,0.00006011,-0.00004307,0.00000645,-0.00001147,0
 .00002925,0.00002062,0.00003303,-0.00000667,0.00001567,0.00173180,-0.0
 0089088,0.00054527,0.00672878,-0.14563683,-0.12440744,0.00054312,0.013
 06599,0.01405599,0.00144328,-0.01213301,-0.02044672,0.00112795,0.15263
 786,-0.00002323,-0.00001085,-0.00003938,-0.00001359,0.00000438,0.00000
 406,-0.00000077,-0.00000001,0.00000102,-0.00000943,0.00000437,0.000003
 15,0.00018754,0.00002196,0.00015394,-0.00074790,0.00040951,-0.00007941
 ,-0.00049019,-0.00007119,0.00016868,-0.00009172,0.00002614,-0.00002377
 ,-0.00007044,-0.00003331,-0.00005906,0.00009934,0.00008252,0.00003697,
 -0.00019107,-0.00023636,-0.00007106,-0.00002936,0.00012392,-0.00006135
 ,0.00002988,0.00005793,0.00002084,0.00000588,-0.00001410,0.00005602,0.
 00095898,-0.00084596,0.00010416,0.00627015,-0.12659992,-0.23018387,0.0
 0127172,-0.01622797,-0.01817781,0.00054246,0.00321223,0.00506652,-0.00
 318185,0.14029543,0.24010761,-0.00149612,-0.00174571,0.00028483,0.0000
 2774,0.00007727,0.00019900,0.00012283,0.00010602,-0.00007969,-0.000682
 07,0.00025321,0.00014898,0.01073292,0.01231742,-0.00095952,-0.06331092
 ,0.03727217,-0.00503199,-0.01591420,-0.00429446,0.01337988,-0.00211607
 ,0.00188040,-0.00014592,-0.00272296,-0.00465086,-0.00256366,0.00115830
 ,0.00241153,0.00025908,-0.00377192,-0.00955300,-0.00434656,0.00046904,
 0.00037039,0.00011638,0.00014449,0.00217123,0.00125949,0.00029411,0.00
 056150,0.00063501,0.02295146,-0.02521191,0.01643652,-0.17741273,-0.045
 64531,-0.04072282,-0.01902664,-0.00893540,-0.00128824,-0.03905791,-0.0
 1846020,-0.00602376,-0.01659117,-0.01088750,-0.00472945,0.39404763,0.0
 0102134,0.00201675,-0.00138760,-0.00038878,0.00003306,-0.00002100,-0.0
 0010466,-0.00006502,0.00005909,0.00057149,-0.00023751,-0.00009102,-0.0
 0183750,-0.01142905,0.00476255,0.04002476,-0.00556279,0.00175401,-0.00
 456125,0.00362674,0.00020743,-0.00053274,0.00047868,-0.00015042,-0.001
 24698,0.00189574,0.00045599,0.00172157,0.00041477,0.00019698,-0.000507
 87,0.00601557,0.00163570,-0.00046342,0.00020009,-0.00011124,-0.0000134
 3,-0.00056995,-0.00022252,-0.00026379,-0.00025844,-0.00025829,-0.02383
 508,-0.02146295,-0.00318040,-0.05212285,-0.09137166,-0.00526654,-0.023
 41180,-0.00739351,-0.00519642,0.01524233,0.01633691,0.00315522,-0.0267
 9909,-0.00752553,-0.00126239,0.11367340,0.18139254,-0.00039594,-0.0011
 5721,0.00158515,0.00043228,-0.00008379,-0.00007469,0.00000500,0.000067
 41,-0.00003810,-0.00031986,0.00012853,-0.00000650,0.00044928,0.0054079
 8,-0.00603221,-0.01711985,0.00534005,0.00858240,0.01050522,0.00164642,
 -0.00104663,0.00219511,-0.00131875,0.00075173,0.00014264,-0.00071414,0
 .00120074,-0.00027401,-0.00027174,-0.00072822,-0.00209682,-0.00090385,
 -0.00108606,0.00025094,-0.00012471,-0.00010708,0.00011402,0.00064408,0
 .00032001,0.00007275,0.00025143,0.00018648,0.01669108,0.00168690,-0.01
 786643,-0.00646134,0.01292234,-0.09197058,0.03070794,0.01083124,0.0091
 3940,-0.00804521,-0.00411719,0.00167499,-0.02976210,-0.00912715,0.0024
 1081,-0.06001312,-0.10751155,0.38640500,0.00009920,-0.00084140,0.00246
 877,0.00074146,-0.00020044,-0.00013683,-0.00005113,0.00006072,-0.00002
 845,-0.00013201,0.00003249,-0.00003608,-0.00435973,0.00512406,-0.01148
 942,-0.00715758,-0.00028538,0.00230170,0.00403188,-0.00128295,0.001618
 96,0.00263957,-0.00180241,0.00118190,0.00070156,0.00071028,0.00336023,
 -0.00063284,-0.00120256,-0.00232598,-0.00040931,0.00085809,0.00015297,
 0.00010294,-0.00033790,-0.00002367,0.00003107,0.00000516,0.00002592,0.
 00011262,0.00020704,0.00009026,0.01395136,0.00120753,-0.00964680,-0.01
 566325,-0.01405236,0.02744142,-0.00385160,-0.00093037,-0.00175692,0.00
 031674,0.00020162,0.00069589,0.00211503,0.00014155,0.00021301,-0.08784
 581,-0.03616564,0.06292198,0.09525985,-0.00014053,-0.00022254,0.000233
 69,0.00008079,0.00001400,0.00000634,0.00000560,0.00001667,-0.00001721,
 -0.00004732,0.00002032,0.00000914,0.00241439,0.00198403,-0.00064029,-0
 .00219179,0.00095071,-0.00103638,0.00246088,-0.00545583,0.00116617,-0.
 00222725,0.00033155,0.00039570,0.00006831,-0.00071174,-0.00036634,-0.0
 0120483,0.00008583,-0.00069955,0.00042286,-0.00135359,0.00020960,0.000
 02510,-0.00003721,0.00006366,-0.00003789,0.00011012,-0.00002447,0.0000
 7862,-0.00001176,-0.00018443,0.00226916,-0.00591974,0.01216833,-0.0078
 0602,-0.00767110,0.01256162,-0.00274939,-0.00047930,-0.00127414,0.0011
 9859,0.00078187,-0.00053890,0.00053805,0.00010597,0.00106366,-0.041710
 19,-0.06653445,0.08640370,0.04855287,0.08399621,0.00008437,0.00041269,
 -0.00195228,-0.00050438,0.00011549,0.00009598,0.00011851,-0.00007856,0
 .00002505,0.00010251,-0.00005778,0.00001829,-0.00333947,-0.00127166,0.
 00790988,0.00418932,-0.00071338,-0.00016354,-0.00044538,0.00142210,-0.
 00817124,-0.00065251,0.00043952,-0.00115279,0.00057698,-0.00040535,-0.
 00209008,-0.00198460,-0.00057341,0.00002554,0.00018820,0.00050568,0.00
 038829,-0.00009870,0.00014798,-0.00005224,-0.00000215,-0.00012561,-0.0
 0009283,-0.00011802,-0.00011677,-0.00006558,-0.00629094,0.00604172,-0.
 00601367,-0.00170086,-0.00562962,0.01183317,-0.00338231,-0.00200385,0.
 00111544,-0.00106642,0.00001152,-0.00034466,-0.00183084,-0.00105323,0.
 00056192,0.09318554,0.11243241,-0.29330021,-0.07702885,-0.10949991,0.2
 9142557||0.00306089,-0.00072760,-0.01150433,-0.00785169,0.00523929,-0.
 00570571,-0.00052159,-0.00094530,-0.00092596,0.00012932,0.00020131,-0.
 00006909,-0.04337834,0.01529597,-0.01083492,0.01052240,0.00925350,-0.0
 0616319,0.05429948,-0.00096149,0.04086490,-0.00429794,-0.01761168,0.01
 537357,0.00074751,-0.01062142,-0.02367259,-0.00363212,0.00340717,0.004
 18182,0.00078095,-0.00530111,-0.00514913,0.00053437,0.00062630,0.00018
 055,0.00023091,0.00058262,0.00043251,0.00019241,-0.00075338,0.00180352
 ,-0.00786439,0.00275948,-0.00025627,-0.00366545,-0.00033647,-0.0000306
 6,0.00034815,0.00055866,-0.00021879,0.00090105,-0.00048504,0.00027550,
 0.00039805,0.00008102,0.00094288,0.00933784,0.00771287,-0.01858921,-0.
 01027181,-0.00797470,0.01906458|||@


 IF MATHEMATICALLY YOU END UP WITH THE INCORRECT ANSWER,
 TRY MULTIPLYING BY THE PAGE NUMBER.
 Job cpu time:  0 days  0 hours 23 minutes 19.0 seconds.
 File lengths (MBytes):  RWF=    107 Int=      0 D2E=      0 Chk=      8 Scr=      1
 Normal termination of Gaussian 09 at Wed Sep 23 12:29:07 2015.
