 Entering Link 1 = C:\G09W\l1.exe PID=      3464.
  
 Copyright (c) 1988,1990,1992,1993,1995,1998,2003,2009, Gaussian, Inc.
                  All Rights Reserved.
  
 This is part of the Gaussian(R) 09 program.  It is based on
 the Gaussian(R) 03 system (copyright 2003, Gaussian, Inc.),
 the Gaussian(R) 98 system (copyright 1998, Gaussian, Inc.),
 the Gaussian(R) 94 system (copyright 1995, Gaussian, Inc.),
 the Gaussian 92(TM) system (copyright 1992, Gaussian, Inc.),
 the Gaussian 90(TM) system (copyright 1990, Gaussian, Inc.),
 the Gaussian 88(TM) system (copyright 1988, Gaussian, Inc.),
 the Gaussian 86(TM) system (copyright 1986, Carnegie Mellon
 University), and the Gaussian 82(TM) system (copyright 1983,
 Carnegie Mellon University). Gaussian is a federally registered
 trademark of Gaussian, Inc.
  
 This software contains proprietary and confidential information,
 including trade secrets, belonging to Gaussian, Inc.
  
 This software is provided under written license and may be
 used, copied, transmitted, or stored only in accord with that
 written license.
  
 The following legend is applicable only to US Government
 contracts under FAR:
  
                    RESTRICTED RIGHTS LEGEND
  
 Use, reproduction and disclosure by the US Government is
 subject to restrictions as set forth in subparagraphs (a)
 and (c) of the Commercial Computer Software - Restricted
 Rights clause in FAR 52.227-19.
  
 Gaussian, Inc.
 340 Quinnipiac St., Bldg. 40, Wallingford CT 06492
  
  
 ---------------------------------------------------------------
 Warning -- This program may not be used in any manner that
 competes with the business of Gaussian, Inc. or will provide
 assistance to any competitor of Gaussian, Inc.  The licensee
 of this program is prohibited from giving any competitor of
 Gaussian, Inc. access to this program.  By using this program,
 the user acknowledges that Gaussian, Inc. is engaged in the
 business of creating and licensing software in the field of
 computational chemistry and represents and warrants to the
 licensee that it is not a competitor of Gaussian, Inc. and that
 it will not use this program in any manner prohibited above.
 ---------------------------------------------------------------
  

 Cite this work as:
 Gaussian 09, Revision A.02,
 M. J. Frisch, G. W. Trucks, H. B. Schlegel, G. E. Scuseria, 
 M. A. Robb, J. R. Cheeseman, G. Scalmani, V. Barone, B. Mennucci, 
 G. A. Petersson, H. Nakatsuji, M. Caricato, X. Li, H. P. Hratchian, 
 A. F. Izmaylov, J. Bloino, G. Zheng, J. L. Sonnenberg, M. Hada, 
 M. Ehara, K. Toyota, R. Fukuda, J. Hasegawa, M. Ishida, T. Nakajima, 
 Y. Honda, O. Kitao, H. Nakai, T. Vreven, J. A. Montgomery, Jr., 
 J. E. Peralta, F. Ogliaro, M. Bearpark, J. J. Heyd, E. Brothers, 
 K. N. Kudin, V. N. Staroverov, R. Kobayashi, J. Normand, 
 K. Raghavachari, A. Rendell, J. C. Burant, S. S. Iyengar, J. Tomasi, 
 M. Cossi, N. Rega, J. M. Millam, M. Klene, J. E. Knox, J. B. Cross, 
 V. Bakken, C. Adamo, J. Jaramillo, R. Gomperts, R. E. Stratmann, 
 O. Yazyev, A. J. Austin, R. Cammi, C. Pomelli, J. W. Ochterski, 
 R. L. Martin, K. Morokuma, V. G. Zakrzewski, G. A. Voth, 
 P. Salvador, J. J. Dannenberg, S. Dapprich, A. D. Daniels, 
 O. Farkas, J. B. Foresman, J. V. Ortiz, J. Cioslowski, 
 and D. J. Fox, Gaussian, Inc., Wallingford CT, 2009.
 
 ******************************************
 Gaussian 09:  IA32W-G09RevA.02 11-Jun-2009
                30-Sep-2015 
 ******************************************
 %chk=C:\Users\214584429\Google Drive\214584429 MONSURAT\Silva-2014remix\TSB-4smd
 .chk
 ----------------------------------------
 # freq x3lyp/6-31+g(d) geom=connectivity
 ----------------------------------------
 1/10=4,30=1,38=1,57=2/1,3;
 2/12=2,17=6,18=5,40=1/2;
 3/5=1,6=6,7=11,11=2,16=1,25=1,30=1,71=2,74=-33/1,2,3;
 4//1;
 5/5=2,38=5,98=1/2;
 8/6=4,10=90,11=11/1;
 11/6=1,8=1,9=11,15=111,16=1/1,2,10;
 10/6=1/2;
 6/7=2,8=2,9=2,10=2,18=1,28=1/1;
 7/8=1,10=1,25=1/1,2,3,16;
 1/10=4,30=1/3;
 99//99;
 ----------
 opt step 7
 ----------
 Symbolic Z-matrix:
 Charge =  1 Multiplicity = 1
 C                     0.27622   2.02406  -0.19873 
 H                     1.25281   2.51142  -0.23374 
 H                    -0.11416   2.03361   0.82432 
 H                    -0.41826   2.54196  -0.86237 
 C                     1.49752  -1.39383  -0.89672 
 H                     0.60268  -1.8388   -1.34153 
 H                     2.03117  -2.16827  -0.33718 
 H                     2.13881  -1.00903  -1.69419 
 C                     1.10469  -0.26478   0.03474 
 O                     2.17007   0.37433   0.6606 
 H                     2.94088  -0.21877   0.69519 
 O                    -1.95488  -0.62207  -0.25799 
 H                    -1.41376  -0.01618  -0.83612 
 O                     0.36466   0.67843  -0.71493 
 H                    -1.29571  -0.75168   0.50938 
 O                     0.24474  -0.81902   1.0605 
 H                     0.40242  -0.33679   1.8937 
 C                    -3.23881  -0.02103   0.1669 
 H                    -3.69607  -0.74403   0.83898 
 H                    -3.04021   0.92974   0.6617 
 H                    -3.82497   0.10691  -0.74065 
 

 GradGradGradGradGradGradGradGradGradGradGradGradGradGradGradGradGradGrad
 Berny optimization.
 Initialization pass.
 Trust Radius=3.00D-01 FncErr=1.00D-07 GrdErr=1.00D-07
 Number of steps in this run=   2 maximum allowed number of steps=   2.
 GradGradGradGradGradGradGradGradGradGradGradGradGradGradGradGradGradGrad

                          Input orientation:                          
 ---------------------------------------------------------------------
 Center     Atomic      Atomic             Coordinates (Angstroms)
 Number     Number       Type             X           Y           Z
 ---------------------------------------------------------------------
      1          6           0        0.276215    2.024059   -0.198734
      2          1           0        1.252807    2.511419   -0.233737
      3          1           0       -0.114162    2.033611    0.824320
      4          1           0       -0.418264    2.541962   -0.862365
      5          6           0        1.497524   -1.393827   -0.896715
      6          1           0        0.602683   -1.838797   -1.341527
      7          1           0        2.031167   -2.168268   -0.337182
      8          1           0        2.138812   -1.009026   -1.694185
      9          6           0        1.104686   -0.264783    0.034738
     10          8           0        2.170066    0.374330    0.660597
     11          1           0        2.940880   -0.218772    0.695185
     12          8           0       -1.954882   -0.622069   -0.257987
     13          1           0       -1.413760   -0.016180   -0.836118
     14          8           0        0.364658    0.678431   -0.714931
     15          1           0       -1.295706   -0.751681    0.509381
     16          8           0        0.244740   -0.819017    1.060496
     17          1           0        0.402423   -0.336793    1.893696
     18          6           0       -3.238807   -0.021029    0.166895
     19          1           0       -3.696072   -0.744031    0.838977
     20          1           0       -3.040214    0.929737    0.661699
     21          1           0       -3.824967    0.106905   -0.740653
 ---------------------------------------------------------------------
                    Distance matrix (angstroms):
                    1          2          3          4          5
     1  C    0.000000
     2  H    1.092006   0.000000
     3  H    1.095046   1.793429   0.000000
     4  H    1.091298   1.785661   1.787681   0.000000
     5  C    3.696041   3.968674   4.160147   4.377426   0.000000
     6  H    4.041561   4.535884   4.494475   4.523602   1.093891
     7  H    4.546936   4.745104   4.858735   5.334960   1.094354
     8  H    3.860731   3.912984   4.547131   4.454220   1.093289
     9  C    2.445337   2.793084   2.718758   3.316924   1.515476
    10  O    2.654567   2.491655   2.828023   3.703714   2.450288
    11  H    3.595806   3.341621   3.797787   4.618600   2.449117
    12  O    3.461690   4.484262   3.407679   3.568972   3.594814
    13  H    2.724858   3.723197   2.940689   2.745140   3.221360
    14  O    1.443952   2.092893   2.105962   2.026685   2.368688
    15  H    3.267582   4.206538   3.041888   3.674190   3.192427
    16  O    3.109619   3.712552   2.884801   3.928505   2.393857
    17  H    3.157184   3.655330   2.651271   4.068984   3.178515
    18  C    4.083069   5.171885   3.796993   3.947627   5.044668
    19  H    4.951589   6.019973   4.532724   4.943313   5.514372
    20  H    3.596747   4.661926   3.131575   3.434627   5.330916
    21  H    4.559479   5.641138   4.464461   4.189265   5.532220
                    6          7          8          9         10
     6  H    0.000000
     7  H    1.777027   0.000000
     8  H    1.781174   1.787984   0.000000
     9  C    2.150263   2.149406   2.147671   0.000000
    10  O    3.370923   2.734897   2.731236   1.391114   0.000000
    11  H    3.498549   2.386188   2.641383   1.951901   0.973201
    12  O    3.032429   4.276165   4.355540   3.094236   4.341866
    13  H    2.764672   4.092425   3.787188   2.676334   3.903391
    14  O    2.604941   3.320187   2.637057   1.413965   2.289990
    15  H    2.865582   3.713687   4.088746   2.494842   3.647238
    16  O    2.633968   2.639186   3.348414   1.448745   2.300191
    17  H    3.572504   3.314200   4.042256   1.988488   2.269535
    18  C    4.509619   5.712911   5.775685   4.352334   5.445728
    19  H    4.942915   6.017729   6.366553   4.891192   5.974456
    20  H    4.994837   6.026135   6.010932   4.358917   5.239799
    21  H    4.873489   6.295515   6.141758   5.004085   6.162421
                   11         12         13         14         15
    11  H    0.000000
    12  O    5.003966   0.000000
    13  H    4.620479   0.997071   0.000000
    14  O    3.070883   2.698215   1.913097   0.000000
    15  H    4.274012   1.019885   1.537942   2.510173   0.000000
    16  O    2.786201   2.572066   2.644298   2.325698   1.637448
    17  H    2.809648   3.204373   3.294419   2.799472   2.229821
    18  C    6.205379   1.479945   2.082512   3.775158   2.103994
    19  H    6.659257   2.061540   2.923125   4.574665   2.422901
    20  H    6.090458   2.105201   2.404905   3.681225   2.427689
    21  H    6.924188   2.064361   2.416233   4.228506   2.949053
                   16         17         18         19         20
    16  O    0.000000
    17  H    0.975513   0.000000
    18  C    3.683803   4.042290   0.000000
    19  H    3.947745   4.251580   1.087896   0.000000
    20  H    3.742740   3.869582   1.090058   1.806399   0.000000
    21  H    4.545766   5.000749   1.087931   1.798871   1.805403
                   21
    21  H    0.000000
 Stoichiometry    C4H13O4(1+)
 Framework group  C1[X(C4H13O4)]
 Deg. of freedom    57
 Full point group                 C1      NOp   1
 Largest Abelian subgroup         C1      NOp   1
 Largest concise Abelian subgroup C1      NOp   1
                         Standard orientation:                         
 ---------------------------------------------------------------------
 Center     Atomic      Atomic             Coordinates (Angstroms)
 Number     Number       Type             X           Y           Z
 ---------------------------------------------------------------------
      1          6           0        0.276215    2.024059   -0.198734
      2          1           0        1.252807    2.511419   -0.233737
      3          1           0       -0.114162    2.033611    0.824320
      4          1           0       -0.418264    2.541962   -0.862365
      5          6           0        1.497524   -1.393827   -0.896715
      6          1           0        0.602683   -1.838797   -1.341527
      7          1           0        2.031167   -2.168268   -0.337182
      8          1           0        2.138812   -1.009026   -1.694185
      9          6           0        1.104686   -0.264783    0.034738
     10          8           0        2.170066    0.374330    0.660597
     11          1           0        2.940880   -0.218772    0.695185
     12          8           0       -1.954882   -0.622069   -0.257987
     13          1           0       -1.413760   -0.016180   -0.836118
     14          8           0        0.364658    0.678431   -0.714931
     15          1           0       -1.295706   -0.751681    0.509381
     16          8           0        0.244740   -0.819017    1.060496
     17          1           0        0.402423   -0.336793    1.893696
     18          6           0       -3.238807   -0.021029    0.166895
     19          1           0       -3.696072   -0.744031    0.838977
     20          1           0       -3.040214    0.929737    0.661699
     21          1           0       -3.824967    0.106905   -0.740653
 ---------------------------------------------------------------------
 Rotational constants (GHZ):      2.7204261      1.1839429      1.0160161
 Standard basis: 6-31+G(d) (6D, 7F)
 There are   178 symmetry adapted basis functions of A   symmetry.
 Integral buffers will be    262144 words long.
 Raffenetti 2 integral format.
 Two-electron integral symmetry is turned on.
   178 basis functions,   308 primitive gaussians,   178 cartesian basis functions
    34 alpha electrons       34 beta electrons
       nuclear repulsion energy       458.6118049659 Hartrees.
 NAtoms=   21 NActive=   21 NUniq=   21 SFac= 7.50D-01 NAtFMM=   80 NAOKFM=F Big=F
 One-electron integrals computed using PRISM.
 NBasis=   178 RedAO= T  NBF=   178
 NBsUse=   178 1.00D-06 NBFU=   178
 Harris functional with IExCor= 3102 diagonalized for initial guess.
 ExpMin= 4.38D-02 ExpMax= 5.48D+03 ExpMxC= 8.25D+02 IAcc=2 IRadAn=         0 AccDes= 0.00D+00
 HarFok:  IExCor= 3102 AccDes= 0.00D+00 IRadAn=         0 IDoV= 1
 ScaDFX=  1.000000  1.000000  1.000000  1.000000
 FoFCou: FMM=F IPFlag=           0 FMFlag=      100000 FMFlg1=           0
         NFxFlg=           0 DoJE=T BraDBF=F KetDBF=T FulRan=T
         Omega=  0.000000  0.000000  1.000000  0.000000  0.000000 ICntrl=     500 IOpCl=  0
         NMat0=    1 NMatS0=    1 NMatT0=    0 NMatD0=    1 NMtDS0=    0 NMtDT0=    0
         I1Cent=           4 NGrid=           0.
 Petite list used in FoFCou.
 Initial guess orbital symmetries:
       Occupied  (A) (A) (A) (A) (A) (A) (A) (A) (A) (A) (A) (A)
                 (A) (A) (A) (A) (A) (A) (A) (A) (A) (A) (A) (A)
                 (A) (A) (A) (A) (A) (A) (A) (A) (A) (A)
       Virtual   (A) (A) (A) (A) (A) (A) (A) (A) (A) (A) (A) (A)
                 (A) (A) (A) (A) (A) (A) (A) (A) (A) (A) (A) (A)
                 (A) (A) (A) (A) (A) (A) (A) (A) (A) (A) (A) (A)
                 (A) (A) (A) (A) (A) (A) (A) (A) (A) (A) (A) (A)
                 (A) (A) (A) (A) (A) (A) (A) (A) (A) (A) (A) (A)
                 (A) (A) (A) (A) (A) (A) (A) (A) (A) (A) (A) (A)
                 (A) (A) (A) (A) (A) (A) (A) (A) (A) (A) (A) (A)
                 (A) (A) (A) (A) (A) (A) (A) (A) (A) (A) (A) (A)
                 (A) (A) (A) (A) (A) (A) (A) (A) (A) (A) (A) (A)
                 (A) (A) (A) (A) (A) (A) (A) (A) (A) (A) (A) (A)
                 (A) (A) (A) (A) (A) (A) (A) (A) (A) (A) (A) (A)
                 (A) (A) (A) (A) (A) (A) (A) (A) (A) (A) (A) (A)
 The electronic state of the initial guess is 1-A.
 Requested convergence on RMS density matrix=1.00D-08 within 128 cycles.
 Requested convergence on MAX density matrix=1.00D-06.
 Requested convergence on             energy=1.00D-06.
 No special actions if energy rises.
 SCF Done:  E(RX3LYP) =  -460.689825746     A.U. after   12 cycles
             Convg  =    0.5479D-08             -V/T =  2.0088
 Range of M.O.s used for correlation:     1   178
 NBasis=   178 NAE=    34 NBE=    34 NFC=     0 NFV=     0
 NROrb=    178 NOA=    34 NOB=    34 NVA=   144 NVB=   144

 **** Warning!!: The largest alpha MO coefficient is  0.42821365D+02

 Symmetrizing basis deriv contribution to polar:
 IMax=3 JMax=2 DiffMx= 0.00D+00
 G2DrvN: will do    22 centers at a time, making    1 passes doing MaxLOS=2.
 Calling FoFCou, ICntrl=  3107 FMM=F I1Cent=   0 AccDes= 0.00D+00.
 FoFDir/FoFCou used for L=0 through L=2.
 End of G2Drv Frequency-dependent properties file   721 does not exist.
 End of G2Drv Frequency-dependent properties file   722 does not exist.
          IDoAtm=111111111111111111111
          Differentiating once with respect to electric field.
                with respect to dipole field.
          Differentiating once with respect to nuclear coordinates.
          There are    66 degrees of freedom in the 1st order CPHF.  IDoFFX=5.
     63 vectors produced by pass  0 Test12= 7.42D-15 1.52D-09 XBig12= 3.75D+01 1.16D+00.
 AX will form    63 AO Fock derivatives at one time.
     63 vectors produced by pass  1 Test12= 7.42D-15 1.52D-09 XBig12= 2.55D+00 2.46D-01.
     63 vectors produced by pass  2 Test12= 7.42D-15 1.52D-09 XBig12= 1.88D-02 1.70D-02.
     63 vectors produced by pass  3 Test12= 7.42D-15 1.52D-09 XBig12= 3.83D-05 8.23D-04.
     63 vectors produced by pass  4 Test12= 7.42D-15 1.52D-09 XBig12= 4.15D-08 2.40D-05.
     34 vectors produced by pass  5 Test12= 7.42D-15 1.52D-09 XBig12= 3.01D-11 8.05D-07.
      3 vectors produced by pass  6 Test12= 7.42D-15 1.52D-09 XBig12= 2.69D-14 2.71D-08.
 Inverted reduced A of dimension   352 with in-core refinement.
 Isotropic polarizability for W=    0.000000       66.20 Bohr**3.
 End of Minotr Frequency-dependent properties file   721 does not exist.
 End of Minotr Frequency-dependent properties file   722 does not exist.

 **********************************************************************

            Population analysis using the SCF density.

 **********************************************************************

 Orbital symmetries:
       Occupied  (A) (A) (A) (A) (A) (A) (A) (A) (A) (A) (A) (A)
                 (A) (A) (A) (A) (A) (A) (A) (A) (A) (A) (A) (A)
                 (A) (A) (A) (A) (A) (A) (A) (A) (A) (A)
       Virtual   (A) (A) (A) (A) (A) (A) (A) (A) (A) (A) (A) (A)
                 (A) (A) (A) (A) (A) (A) (A) (A) (A) (A) (A) (A)
                 (A) (A) (A) (A) (A) (A) (A) (A) (A) (A) (A) (A)
                 (A) (A) (A) (A) (A) (A) (A) (A) (A) (A) (A) (A)
                 (A) (A) (A) (A) (A) (A) (A) (A) (A) (A) (A) (A)
                 (A) (A) (A) (A) (A) (A) (A) (A) (A) (A) (A) (A)
                 (A) (A) (A) (A) (A) (A) (A) (A) (A) (A) (A) (A)
                 (A) (A) (A) (A) (A) (A) (A) (A) (A) (A) (A) (A)
                 (A) (A) (A) (A) (A) (A) (A) (A) (A) (A) (A) (A)
                 (A) (A) (A) (A) (A) (A) (A) (A) (A) (A) (A) (A)
                 (A) (A) (A) (A) (A) (A) (A) (A) (A) (A) (A) (A)
                 (A) (A) (A) (A) (A) (A) (A) (A) (A) (A) (A) (A)
 The electronic state is 1-A.
 Alpha  occ. eigenvalues --  -19.48583 -19.39002 -19.37619 -19.36910 -10.54165
 Alpha  occ. eigenvalues --  -10.46488 -10.40836 -10.35783  -1.33070  -1.28681
 Alpha  occ. eigenvalues --   -1.19920  -1.19172  -0.93160  -0.93031  -0.85278
 Alpha  occ. eigenvalues --   -0.80549  -0.79115  -0.75211  -0.73211  -0.68832
 Alpha  occ. eigenvalues --   -0.67338  -0.65264  -0.62915  -0.60893  -0.59918
 Alpha  occ. eigenvalues --   -0.59321  -0.57146  -0.56058  -0.54795  -0.53238
 Alpha  occ. eigenvalues --   -0.51459  -0.50262  -0.47705  -0.45985
 Alpha virt. eigenvalues --   -0.16942  -0.13127  -0.12603  -0.11384  -0.10115
 Alpha virt. eigenvalues --   -0.08462  -0.07531  -0.07265  -0.06495  -0.05324
 Alpha virt. eigenvalues --   -0.04939  -0.04192  -0.03644  -0.02751  -0.01770
 Alpha virt. eigenvalues --   -0.01330  -0.00546  -0.00070   0.00878   0.01552
 Alpha virt. eigenvalues --    0.01868   0.03551   0.04004   0.04302   0.04585
 Alpha virt. eigenvalues --    0.05157   0.06310   0.06893   0.07374   0.08410
 Alpha virt. eigenvalues --    0.09297   0.10564   0.10809   0.11432   0.12498
 Alpha virt. eigenvalues --    0.13390   0.14040   0.15026   0.16899   0.17350
 Alpha virt. eigenvalues --    0.18508   0.19240   0.20135   0.20419   0.21637
 Alpha virt. eigenvalues --    0.22633   0.24862   0.25882   0.28253   0.28974
 Alpha virt. eigenvalues --    0.31452   0.46179   0.46896   0.50680   0.52154
 Alpha virt. eigenvalues --    0.54222   0.57042   0.57305   0.61517   0.62509
 Alpha virt. eigenvalues --    0.64039   0.66718   0.70480   0.73136   0.74667
 Alpha virt. eigenvalues --    0.81247   0.82216   0.82529   0.85126   0.87477
 Alpha virt. eigenvalues --    0.89166   0.91562   0.93103   0.94510   0.95562
 Alpha virt. eigenvalues --    0.97054   0.97537   0.98645   1.01311   1.03297
 Alpha virt. eigenvalues --    1.03443   1.06876   1.08812   1.13041   1.13639
 Alpha virt. eigenvalues --    1.15857   1.16259   1.20261   1.26124   1.26610
 Alpha virt. eigenvalues --    1.28490   1.30005   1.33448   1.34197   1.37264
 Alpha virt. eigenvalues --    1.40899   1.42625   1.47417   1.55284   1.56579
 Alpha virt. eigenvalues --    1.59915   1.61518   1.65804   1.68129   1.72018
 Alpha virt. eigenvalues --    1.74009   1.76038   1.78883   1.79641   1.83956
 Alpha virt. eigenvalues --    1.86729   1.88235   1.91275   1.92244   2.04417
 Alpha virt. eigenvalues --    2.07745   2.08293   2.08473   2.09327   2.10697
 Alpha virt. eigenvalues --    2.11275   2.15323   2.16293   2.21970   2.27125
 Alpha virt. eigenvalues --    2.35513   2.39956   2.41723   2.48759   2.50008
 Alpha virt. eigenvalues --    2.58681   2.62495   2.73749   2.78873   2.80819
 Alpha virt. eigenvalues --    2.85762   3.85894   4.02945   4.05761   4.12330
 Alpha virt. eigenvalues --    4.15448   4.24784   4.27520   4.49011
          Condensed to atoms (all electrons):
              1          2          3          4          5          6
     1  C    5.304381   0.395657   0.395834   0.389285  -0.014854   0.002075
     2  H    0.395657   0.432813  -0.030613  -0.021240   0.008443   0.000004
     3  H    0.395834  -0.030613   0.528278  -0.032928  -0.014204  -0.000004
     4  H    0.389285  -0.021240  -0.032928   0.481810   0.000478  -0.000002
     5  C   -0.014854   0.008443  -0.014204   0.000478   6.279587   0.363671
     6  H    0.002075   0.000004  -0.000004  -0.000002   0.363671   0.467068
     7  H    0.001383  -0.000006   0.000010   0.000002   0.380671  -0.021542
     8  H   -0.003234   0.000022  -0.000011   0.000006   0.436730  -0.020366
     9  C   -0.140228  -0.029433   0.004021   0.005741  -0.652613  -0.032514
    10  O   -0.029537   0.005325  -0.003573   0.000568  -0.099663   0.006906
    11  H    0.005926  -0.000106   0.000031  -0.000008   0.010374   0.000140
    12  O    0.015368  -0.000783  -0.001281   0.001820   0.032233   0.004863
    13  H   -0.013561   0.000313   0.000073  -0.001406  -0.011485   0.000062
    14  O    0.079159  -0.022758  -0.066683  -0.049025  -0.096697   0.000948
    15  H    0.000668   0.000014  -0.000291   0.000041  -0.018981  -0.000349
    16  O   -0.012163  -0.002001   0.017593  -0.003089  -0.022934  -0.001677
    17  H   -0.008429   0.000129  -0.001885   0.000071  -0.005180  -0.000033
    18  C   -0.004096   0.000494  -0.001922  -0.000124  -0.010127   0.000375
    19  H    0.000173   0.000000   0.000005   0.000002   0.000052   0.000001
    20  H    0.001361   0.000005   0.000246  -0.000057  -0.002073   0.000002
    21  H   -0.000678   0.000000   0.000009  -0.000008   0.000380   0.000002
              7          8          9         10         11         12
     1  C    0.001383  -0.003234  -0.140228  -0.029537   0.005926   0.015368
     2  H   -0.000006   0.000022  -0.029433   0.005325  -0.000106  -0.000783
     3  H    0.000010  -0.000011   0.004021  -0.003573   0.000031  -0.001281
     4  H    0.000002   0.000006   0.005741   0.000568  -0.000008   0.001820
     5  C    0.380671   0.436730  -0.652613  -0.099663   0.010374   0.032233
     6  H   -0.021542  -0.020366  -0.032514   0.006906   0.000140   0.004863
     7  H    0.462137  -0.024179  -0.041432  -0.006777   0.002064  -0.000375
     8  H   -0.024179   0.438137  -0.093683   0.000250  -0.000885   0.000032
     9  C   -0.041432  -0.093683   6.062678   0.343612  -0.028578  -0.116826
    10  O   -0.006777   0.000250   0.343612   8.437245   0.189218   0.003813
    11  H    0.002064  -0.000885  -0.028578   0.189218   0.291133   0.000112
    12  O   -0.000375   0.000032  -0.116826   0.003813   0.000112   8.816852
    13  H    0.000004   0.000016   0.031535   0.000013  -0.000031   0.106808
    14  O    0.007270  -0.002399   0.093801  -0.062852   0.009578  -0.030760
    15  H    0.000080   0.000001   0.023297   0.000583  -0.000055   0.051652
    16  O   -0.000921   0.005474   0.114673  -0.120480   0.003612  -0.031751
    17  H   -0.000158  -0.000133   0.043648   0.006953  -0.000995   0.001126
    18  C    0.000079   0.000043   0.012533   0.000413  -0.000024   0.030143
    19  H    0.000000   0.000000  -0.000507  -0.000001   0.000000  -0.035630
    20  H    0.000000   0.000000   0.004344  -0.000022   0.000000  -0.051607
    21  H    0.000000   0.000000  -0.000459   0.000001   0.000000  -0.033437
             13         14         15         16         17         18
     1  C   -0.013561   0.079159   0.000668  -0.012163  -0.008429  -0.004096
     2  H    0.000313  -0.022758   0.000014  -0.002001   0.000129   0.000494
     3  H    0.000073  -0.066683  -0.000291   0.017593  -0.001885  -0.001922
     4  H   -0.001406  -0.049025   0.000041  -0.003089   0.000071  -0.000124
     5  C   -0.011485  -0.096697  -0.018981  -0.022934  -0.005180  -0.010127
     6  H    0.000062   0.000948  -0.000349  -0.001677  -0.000033   0.000375
     7  H    0.000004   0.007270   0.000080  -0.000921  -0.000158   0.000079
     8  H    0.000016  -0.002399   0.000001   0.005474  -0.000133   0.000043
     9  C    0.031535   0.093801   0.023297   0.114673   0.043648   0.012533
    10  O    0.000013  -0.062852   0.000583  -0.120480   0.006953   0.000413
    11  H   -0.000031   0.009578  -0.000055   0.003612  -0.000995  -0.000024
    12  O    0.106808  -0.030760   0.051652  -0.031751   0.001126   0.030143
    13  H    0.226718   0.071108  -0.003064  -0.006917   0.000142  -0.005131
    14  O    0.071108   8.698522   0.003038  -0.196942  -0.003586   0.005311
    15  H   -0.003064   0.003038   0.222337   0.097390  -0.005745  -0.003141
    16  O   -0.006917  -0.196942   0.097390   8.753329   0.169625  -0.001179
    17  H    0.000142  -0.003586  -0.005745   0.169625   0.268609  -0.000888
    18  C   -0.005131   0.005311  -0.003141  -0.001179  -0.000888   5.172731
    19  H    0.002681  -0.000041  -0.001342  -0.000264  -0.000005   0.387615
    20  H   -0.000755  -0.001044  -0.000978   0.000188   0.000018   0.385959
    21  H   -0.002074   0.000156   0.002268  -0.000194   0.000002   0.386980
             19         20         21
     1  C    0.000173   0.001361  -0.000678
     2  H    0.000000   0.000005   0.000000
     3  H    0.000005   0.000246   0.000009
     4  H    0.000002  -0.000057  -0.000008
     5  C    0.000052  -0.002073   0.000380
     6  H    0.000001   0.000002   0.000002
     7  H    0.000000   0.000000   0.000000
     8  H    0.000000   0.000000   0.000000
     9  C   -0.000507   0.004344  -0.000459
    10  O   -0.000001  -0.000022   0.000001
    11  H    0.000000   0.000000   0.000000
    12  O   -0.035630  -0.051607  -0.033437
    13  H    0.002681  -0.000755  -0.002074
    14  O   -0.000041  -0.001044   0.000156
    15  H   -0.001342  -0.000978   0.002268
    16  O   -0.000264   0.000188  -0.000194
    17  H   -0.000005   0.000018   0.000002
    18  C    0.387615   0.385959   0.386980
    19  H    0.417018  -0.024731  -0.016510
    20  H   -0.024731   0.465241  -0.024817
    21  H   -0.016510  -0.024817   0.416847
 Mulliken atomic charges:
              1
     1  C   -0.364489
     2  H    0.263723
     3  H    0.207296
     4  H    0.228064
     5  C   -0.563808
     6  H    0.230374
     7  H    0.241688
     8  H    0.264181
     9  C    0.396390
    10  O   -0.671998
    11  H    0.518495
    12  O   -0.762372
    13  H    0.604953
    14  O   -0.436106
    15  H    0.632576
    16  O   -0.761372
    17  H    0.536713
    18  C   -0.356044
    19  H    0.271483
    20  H    0.248720
    21  H    0.271533
 Sum of Mulliken atomic charges =   1.00000
 Mulliken charges with hydrogens summed into heavy atoms:
              1
     1  C    0.334593
     5  C    0.172435
     9  C    0.396390
    10  O   -0.153502
    12  O    0.475158
    14  O   -0.436106
    16  O   -0.224659
    18  C    0.435692
 Sum of Mulliken charges with hydrogens summed into heavy atoms =   1.00000
 APT atomic charges:
              1
     1  C    0.432442
     2  H    0.034293
     3  H   -0.028902
     4  H    0.018071
     5  C   -0.055241
     6  H    0.031769
     7  H    0.028042
     8  H    0.044631
     9  C    1.330664
    10  O   -0.692534
    11  H    0.319440
    12  O   -0.735534
    13  H    0.482206
    14  O   -0.881163
    15  H    0.590376
    16  O   -0.828088
    17  H    0.287641
    18  C    0.460521
    19  H    0.068856
    20  H    0.026466
    21  H    0.066045
 Sum of APT charges=   1.00000
 APT Atomic charges with hydrogens summed into heavy atoms:
              1
     1  C    0.455904
     2  H    0.000000
     3  H    0.000000
     4  H    0.000000
     5  C    0.049200
     6  H    0.000000
     7  H    0.000000
     8  H    0.000000
     9  C    1.330664
    10  O   -0.373094
    11  H    0.000000
    12  O    0.337048
    13  H    0.000000
    14  O   -0.881163
    15  H    0.000000
    16  O   -0.540447
    17  H    0.000000
    18  C    0.621888
    19  H    0.000000
    20  H    0.000000
    21  H    0.000000
 Sum of APT charges=   1.00000
 Electronic spatial extent (au):  <R**2>=           1249.6743
 Charge=              1.0000 electrons
 Dipole moment (field-independent basis, Debye):
    X=             -4.1413    Y=              0.1235    Z=              1.0770  Tot=              4.2809
 Quadrupole moment (field-independent basis, Debye-Ang):
   XX=            -16.6987   YY=            -43.7246   ZZ=            -43.9274
   XY=             -4.6269   XZ=             -0.3537   YZ=             -0.1313
 Traceless Quadrupole moment (field-independent basis, Debye-Ang):
   XX=             18.0848   YY=             -8.9410   ZZ=             -9.1438
   XY=             -4.6269   XZ=             -0.3537   YZ=             -0.1313
 Octapole moment (field-independent basis, Debye-Ang**2):
  XXX=            -44.9254  YYY=             10.9400  ZZZ=             11.4740  XYY=              2.1286
  XXY=            -12.5792  XXZ=              5.8412  XZZ=             -3.6663  YZZ=             -2.5500
  YYZ=             -3.0782  XYZ=              2.0151
 Hexadecapole moment (field-independent basis, Debye-Ang**3):
 XXXX=           -593.9948 YYYY=           -368.0663 ZZZZ=           -166.7721 XXXY=            -16.6473
 XXXZ=             13.7369 YYYX=              5.7233 YYYZ=             -6.3453 ZZZX=              9.5006
 ZZZY=             -3.9769 XXYY=           -214.8749 XXZZ=           -170.4748 YYZZ=            -98.0325
 XXYZ=            -14.3557 YYXZ=             -3.9252 ZZXY=             -1.8637
 N-N= 4.586118049659D+02 E-N=-1.983386557124D+03  KE= 4.566539363991D+02
  Exact polarizability:  74.563  -1.748  65.144   0.500   0.205  58.893
 Approx polarizability:  88.913   0.097  81.949   2.119  -0.669  80.967
 Calling FoFJK, ICntrl=    100127 FMM=F ISym2X=0 I1Cent= 0 IOpClX= 0 NMat=1 NMatS=1 NMatT=0.
 Full mass-weighted force constant matrix:
 Low frequencies --- -122.2609  -39.1852  -19.2708   -0.0006    0.0007    0.0009
 Low frequencies ---   15.4907   48.5146   86.1688
 ******    1 imaginary frequencies (negative Signs) ****** 
 Diagonal vibrational polarizability:
      136.7003966      30.7724092      51.6689840
 Harmonic frequencies (cm**-1), IR intensities (KM/Mole), Raman scattering
 activities (A**4/AMU), depolarization ratios for plane and unpolarized
 incident light, reduced masses (AMU), force constants (mDyne/A),
 and normal coordinates:
                     1                      2                      3
                     A                      A                      A
 Frequencies --  -120.9708                44.4567                85.4637
 Red. masses --     2.4300                 3.1644                 2.2868
 Frc consts  --     0.0210                 0.0037                 0.0098
 IR Inten    --     6.2119                 3.7953                 2.6920
  Atom  AN      X      Y      Z        X      Y      Z        X      Y      Z
     1   6     0.05   0.00  -0.01    -0.15  -0.08  -0.04     0.18   0.09  -0.15
     2   1     0.03   0.04   0.13    -0.18  -0.01   0.01     0.22  -0.01  -0.44
     3   1    -0.06  -0.06  -0.05    -0.19  -0.11  -0.06     0.41   0.30  -0.07
     4   1     0.10   0.03  -0.05    -0.15  -0.13  -0.08     0.09   0.05  -0.09
     5   6     0.03  -0.01   0.02     0.18   0.03   0.00     0.04   0.05  -0.02
     6   1     0.04   0.02  -0.02     0.24  -0.04  -0.06     0.07   0.05  -0.07
     7   1    -0.04  -0.02   0.07     0.21   0.07   0.02     0.05   0.04  -0.04
     8   1     0.10  -0.06   0.06     0.19   0.10   0.04     0.06   0.11   0.03
     9   6     0.02   0.04  -0.03     0.02  -0.02  -0.01    -0.03  -0.01   0.02
    10   8     0.00  -0.04   0.07    -0.08   0.06   0.08    -0.07   0.02   0.06
    11   1    -0.05  -0.09   0.16    -0.01   0.14   0.06    -0.07   0.03   0.12
    12   8    -0.06  -0.01  -0.05    -0.04  -0.03  -0.02    -0.02   0.00  -0.02
    13   1    -0.39  -0.08  -0.36     0.00  -0.11  -0.06     0.02   0.10   0.11
    14   8     0.14   0.04  -0.07    -0.02  -0.07  -0.04    -0.06   0.00   0.04
    15   1     0.22   0.20  -0.19     0.00  -0.10  -0.06    -0.04  -0.13  -0.03
    16   8    -0.12   0.07  -0.08    -0.01  -0.11  -0.07    -0.02  -0.10  -0.02
    17   1    -0.17   0.07  -0.07    -0.03  -0.17  -0.03    -0.09  -0.09  -0.01
    18   6    -0.02  -0.09   0.16     0.11   0.23   0.10    -0.02  -0.06   0.08
    19   1     0.19  -0.07   0.33     0.03   0.32   0.15    -0.07  -0.21  -0.13
    20   1     0.00  -0.02   0.03     0.36   0.19   0.08     0.00  -0.19   0.33
    21   1    -0.23  -0.23   0.28     0.05   0.34   0.16     0.03   0.20   0.08
                     4                      5                      6
                     A                      A                      A
 Frequencies --   126.8494               137.5971               177.5337
 Red. masses --     2.8990                 1.2736                 1.1509
 Frc consts  --     0.0275                 0.0142                 0.0214
 IR Inten    --     4.1283                 0.9978                 1.9892
  Atom  AN      X      Y      Z        X      Y      Z        X      Y      Z
     1   6     0.01  -0.05  -0.03     0.06   0.03   0.00    -0.01  -0.04   0.06
     2   1     0.00  -0.03  -0.02     0.05   0.03  -0.20    -0.12   0.16  -0.41
     3   1     0.00  -0.06  -0.03     0.24   0.08   0.07     0.50  -0.14   0.25
     4   1     0.01  -0.06  -0.03    -0.06   0.01   0.10    -0.44  -0.15   0.42
     5   6     0.16   0.02  -0.03    -0.02   0.03  -0.03     0.02  -0.03   0.03
     6   1     0.20  -0.01  -0.07    -0.02   0.04  -0.03     0.03  -0.05   0.05
     7   1     0.18   0.04  -0.03    -0.01   0.02  -0.05     0.02   0.00   0.07
     8   1     0.17   0.08   0.00    -0.03   0.06  -0.02     0.02  -0.06   0.02
     9   6     0.06  -0.02  -0.01    -0.02   0.01   0.01     0.01   0.00  -0.01
    10   8     0.01   0.00   0.05    -0.01   0.00   0.01     0.01   0.02  -0.02
    11   1     0.12   0.12  -0.17    -0.03  -0.01   0.03     0.01   0.02  -0.01
    12   8    -0.08   0.15   0.14    -0.01  -0.08   0.01    -0.02   0.01  -0.02
    13   1    -0.09   0.11   0.10    -0.01  -0.14  -0.05    -0.05  -0.01  -0.06
    14   8     0.03  -0.05  -0.03    -0.03   0.01   0.04     0.02  -0.01  -0.02
    15   1    -0.11   0.19   0.15     0.01  -0.01   0.01     0.00   0.04  -0.03
    16   8     0.04  -0.05  -0.05     0.00  -0.03   0.00    -0.01   0.04  -0.01
    17   1     0.20  -0.22   0.02    -0.01  -0.03   0.01     0.00   0.03  -0.01
    18   6    -0.23  -0.02  -0.05     0.03   0.03  -0.04    -0.02   0.01   0.00
    19   1    -0.11   0.02   0.08     0.19   0.32   0.38    -0.05  -0.04  -0.08
    20   1    -0.45   0.13  -0.25     0.06   0.27  -0.51     0.00  -0.04   0.09
    21   1    -0.20  -0.35  -0.11    -0.14  -0.42   0.01     0.01   0.11  -0.01
                     7                      8                      9
                     A                      A                      A
 Frequencies --   202.2648               235.4016               258.8211
 Red. masses --     2.9901                 2.2826                 1.1160
 Frc consts  --     0.0721                 0.0745                 0.0440
 IR Inten    --    15.5793                59.1086                36.6429
  Atom  AN      X      Y      Z        X      Y      Z        X      Y      Z
     1   6    -0.08  -0.03  -0.02     0.06  -0.02   0.07    -0.02   0.00   0.00
     2   1    -0.10   0.01  -0.11     0.11  -0.11   0.19    -0.05   0.03  -0.03
     3   1    -0.01  -0.01   0.00    -0.06   0.00   0.03    -0.01  -0.02   0.00
     4   1    -0.15  -0.07   0.01     0.18   0.06   0.00    -0.06  -0.04   0.01
     5   6    -0.03  -0.05   0.03     0.05  -0.04   0.05     0.00   0.00  -0.02
     6   1    -0.03  -0.09   0.09     0.05  -0.26   0.27     0.03   0.29  -0.36
     7   1     0.02  -0.01   0.04     0.29   0.13   0.05    -0.36  -0.20   0.05
     8   1    -0.07  -0.05  -0.01    -0.15  -0.01  -0.09     0.34  -0.05   0.23
     9   6    -0.03  -0.04   0.02     0.02  -0.01   0.00     0.00   0.00  -0.01
    10   8    -0.06   0.02   0.00     0.04   0.10  -0.13     0.00   0.02  -0.04
    11   1    -0.03   0.05   0.01    -0.19  -0.16   0.56    -0.21  -0.22   0.55
    12   8     0.15   0.24  -0.12    -0.11   0.01  -0.11     0.02   0.02   0.05
    13   1     0.18   0.41   0.06    -0.11   0.04  -0.07     0.04   0.01   0.05
    14   8    -0.06  -0.04   0.01    -0.02  -0.02   0.05     0.02   0.00   0.00
    15   1     0.11   0.05  -0.13    -0.11  -0.09  -0.15     0.02  -0.01   0.05
    16   8     0.00  -0.06   0.02     0.08  -0.06   0.03     0.01  -0.03   0.00
    17   1    -0.06  -0.02   0.01    -0.16   0.18  -0.06    -0.10   0.10  -0.05
    18   6     0.08  -0.07   0.07    -0.08   0.02   0.02     0.00   0.00  -0.01
    19   1     0.45  -0.11   0.29    -0.01   0.03   0.08    -0.02   0.00  -0.02
    20   1    -0.10   0.06  -0.12    -0.02   0.03  -0.01    -0.04   0.01  -0.02
    21   1    -0.17  -0.39   0.19    -0.17   0.01   0.08     0.03  -0.03  -0.03
                    10                     11                     12
                     A                      A                      A
 Frequencies --   272.3216               295.7357               378.4231
 Red. masses --     1.4605                 3.0009                 2.9458
 Frc consts  --     0.0638                 0.1546                 0.2485
 IR Inten    --    15.6860                41.6349                 1.1664
  Atom  AN      X      Y      Z        X      Y      Z        X      Y      Z
     1   6    -0.01   0.01  -0.01     0.16  -0.05   0.15     0.06  -0.15   0.01
     2   1    -0.04   0.06  -0.04     0.27  -0.26   0.33     0.11  -0.25   0.02
     3   1     0.02  -0.03   0.00     0.08  -0.18   0.12     0.08  -0.16   0.02
     4   1    -0.07  -0.03   0.01     0.32   0.22   0.20     0.10  -0.04   0.06
     5   6    -0.02   0.01  -0.04     0.07  -0.07   0.06     0.07   0.14  -0.13
     6   1    -0.05  -0.27   0.29     0.15  -0.13  -0.04     0.16   0.11  -0.27
     7   1     0.35   0.19  -0.13    -0.02   0.00   0.25     0.25   0.09  -0.36
     8   1    -0.35   0.09  -0.26     0.20  -0.16   0.13    -0.01   0.49  -0.03
     9   6    -0.01   0.00  -0.03    -0.07   0.00  -0.09    -0.05  -0.05   0.04
    10   8    -0.04  -0.01   0.02    -0.15   0.10  -0.07    -0.02  -0.05   0.00
    11   1    -0.21  -0.20   0.51    -0.03   0.25  -0.21    -0.09  -0.13   0.14
    12   8     0.07   0.01   0.11     0.07  -0.01   0.08     0.01   0.02  -0.03
    13   1     0.04  -0.04   0.04     0.10   0.01   0.11     0.02   0.02  -0.03
    14   8     0.05   0.02  -0.04    -0.07   0.01  -0.08    -0.06  -0.12  -0.02
    15   1     0.10   0.07   0.11     0.05   0.00   0.11    -0.02   0.06  -0.01
    16   8    -0.05  -0.02  -0.03    -0.08   0.02  -0.07    -0.05   0.18   0.13
    17   1    -0.08   0.01  -0.04    -0.01  -0.02  -0.06     0.01   0.35   0.02
    18   6     0.03   0.00  -0.03     0.05  -0.01  -0.01     0.02  -0.01   0.01
    19   1    -0.05  -0.01  -0.08     0.01   0.01  -0.02     0.05  -0.03   0.01
    20   1    -0.04   0.00   0.00     0.01   0.00  -0.03     0.02  -0.02   0.03
    21   1     0.12   0.00  -0.09     0.10  -0.04  -0.05    -0.02   0.01   0.04
                    13                     14                     15
                     A                      A                      A
 Frequencies --   396.8121               452.4235               530.1152
 Red. masses --     3.2003                 1.3509                 1.7591
 Frc consts  --     0.2969                 0.1629                 0.2913
 IR Inten    --     2.4998                45.5930               112.1398
  Atom  AN      X      Y      Z        X      Y      Z        X      Y      Z
     1   6    -0.08   0.13  -0.01     0.00   0.02   0.01     0.02  -0.05  -0.01
     2   1    -0.07   0.10  -0.07    -0.02   0.05   0.03     0.01  -0.03   0.00
     3   1    -0.07   0.22  -0.01     0.01  -0.07   0.01     0.01  -0.08  -0.02
     4   1    -0.08   0.07  -0.05    -0.03   0.05   0.05     0.02  -0.06  -0.02
     5   6     0.19   0.00   0.08     0.01  -0.02   0.00    -0.03   0.07   0.04
     6   1     0.40  -0.29  -0.05     0.01  -0.05   0.01    -0.05   0.12   0.05
     7   1     0.28   0.19   0.27     0.02   0.00   0.02    -0.02   0.03  -0.02
     8   1     0.28   0.07   0.18     0.00  -0.03  -0.01    -0.05   0.11   0.04
     9   6    -0.05   0.00  -0.02     0.00  -0.02  -0.01     0.00   0.03   0.05
    10   8     0.09  -0.19  -0.12    -0.02  -0.04   0.05     0.08   0.05  -0.08
    11   1    -0.07  -0.39  -0.10    -0.03  -0.05   0.06    -0.03  -0.07   0.11
    12   8     0.02   0.00   0.02    -0.03  -0.03  -0.03     0.00  -0.01  -0.02
    13   1     0.06   0.04   0.09     0.38   0.23   0.53     0.17   0.10   0.23
    14   8    -0.10   0.06   0.08     0.04   0.04  -0.08     0.05  -0.03   0.00
    15   1     0.00  -0.03   0.04    -0.35  -0.52   0.08    -0.17  -0.15   0.07
    16   8    -0.11   0.04  -0.03     0.04   0.05  -0.02    -0.14   0.00  -0.02
    17   1    -0.13   0.05  -0.03    -0.01   0.17  -0.08     0.32  -0.73   0.30
    18   6     0.02  -0.01   0.00    -0.02   0.00   0.03     0.01  -0.01   0.01
    19   1     0.01   0.01   0.01     0.04   0.04   0.12     0.04   0.00   0.04
    20   1     0.00   0.00  -0.01     0.01   0.03  -0.04     0.03  -0.01   0.00
    21   1     0.03  -0.02  -0.01    -0.09  -0.08   0.06    -0.03  -0.02   0.04
                    16                     17                     18
                     A                      A                      A
 Frequencies --   536.0870               564.9406               605.2696
 Red. masses --     1.5051                 5.1612                 3.7534
 Frc consts  --     0.2549                 0.9705                 0.8102
 IR Inten    --    23.2243                18.0647                22.7477
  Atom  AN      X      Y      Z        X      Y      Z        X      Y      Z
     1   6    -0.01   0.03   0.00     0.01   0.09   0.00     0.02  -0.11  -0.02
     2   1     0.03  -0.04   0.00    -0.07   0.25   0.07     0.10  -0.25   0.04
     3   1     0.01   0.01   0.01     0.00  -0.12  -0.01     0.11  -0.27   0.01
     4   1     0.03   0.09   0.02    -0.08   0.05   0.06     0.05   0.16   0.16
     5   6     0.01  -0.04  -0.01     0.02   0.06   0.03    -0.08   0.22   0.19
     6   1     0.03  -0.10   0.01     0.23  -0.12  -0.20    -0.08   0.18   0.23
     7   1    -0.02   0.01   0.10     0.14   0.15   0.04    -0.13   0.27   0.30
     8   1     0.06  -0.14  -0.01     0.07   0.33   0.20    -0.06   0.12   0.16
     9   6    -0.03   0.01  -0.05    -0.17  -0.04   0.03    -0.04   0.14   0.01
    10   8    -0.04  -0.04   0.06    -0.14  -0.05  -0.14     0.10  -0.09   0.05
    11   1    -0.16  -0.19   0.32    -0.08   0.02  -0.33    -0.09  -0.36  -0.08
    12   8     0.00  -0.01  -0.04    -0.01  -0.01  -0.03     0.01   0.02   0.02
    13   1    -0.07  -0.04  -0.13    -0.12  -0.08  -0.19    -0.06  -0.05  -0.10
    14   8    -0.07   0.02  -0.03     0.21   0.11  -0.17    -0.12   0.00  -0.18
    15   1    -0.02   0.18   0.00    -0.01   0.08   0.00     0.08   0.00  -0.05
    16   8     0.10   0.07   0.01     0.04  -0.17   0.29     0.10  -0.10  -0.05
    17   1     0.71  -0.40   0.16     0.21  -0.14   0.24    -0.27   0.08  -0.08
    18   6     0.00   0.00   0.01    -0.02   0.01   0.01     0.00   0.00  -0.01
    19   1     0.03  -0.02   0.00     0.00  -0.01   0.00    -0.01   0.00  -0.02
    20   1     0.04  -0.02   0.03     0.01  -0.01   0.02    -0.03   0.01   0.00
    21   1    -0.03   0.03   0.03    -0.03   0.03   0.02     0.03  -0.01  -0.03
                    19                     20                     21
                     A                      A                      A
 Frequencies --   778.0610               868.4919               941.6204
 Red. masses --     5.0879                 2.9228                 7.0666
 Frc consts  --     1.8148                 1.2989                 3.6916
 IR Inten    --    18.4515               109.5909                50.8773
  Atom  AN      X      Y      Z        X      Y      Z        X      Y      Z
     1   6    -0.03   0.13   0.02    -0.01   0.11   0.03     0.00   0.00   0.00
     2   1     0.08  -0.08   0.09     0.00   0.08   0.06     0.01  -0.02   0.00
     3   1     0.07  -0.11   0.05     0.00   0.05   0.04     0.01   0.00   0.00
     4   1     0.01   0.43   0.21    -0.02   0.19   0.09     0.00   0.03   0.01
     5   6     0.08  -0.16  -0.13    -0.02  -0.05   0.11     0.01   0.00   0.01
     6   1    -0.03  -0.01  -0.07     0.00   0.14  -0.13    -0.03   0.06   0.03
     7   1     0.06  -0.29  -0.29     0.17  -0.27  -0.39     0.01  -0.05  -0.05
     8   1     0.01  -0.19  -0.21    -0.18   0.52   0.26    -0.02   0.02   0.00
     9   6     0.10   0.01   0.02    -0.03  -0.21   0.22     0.02  -0.01   0.01
    10   8     0.21   0.09   0.11     0.01   0.01  -0.04    -0.01  -0.01  -0.01
    11   1     0.16   0.01   0.12     0.08   0.12   0.13     0.00   0.01   0.01
    12   8    -0.01   0.00   0.00     0.00   0.00   0.02     0.39  -0.18  -0.12
    13   1    -0.03  -0.01  -0.04     0.00  -0.13  -0.15     0.29   0.05   0.01
    14   8    -0.17   0.04  -0.23    -0.03   0.00  -0.09    -0.02   0.01  -0.01
    15   1     0.02   0.06   0.01    -0.02   0.19  -0.01     0.36   0.19   0.00
    16   8    -0.15  -0.10   0.19     0.06   0.05  -0.15    -0.02   0.00  -0.01
    17   1    -0.24  -0.12   0.23    -0.01  -0.09  -0.06    -0.06  -0.03   0.01
    18   6     0.01  -0.01   0.00     0.02  -0.01   0.00    -0.46   0.20   0.15
    19   1     0.00   0.00   0.00     0.02  -0.02  -0.01    -0.27   0.07   0.14
    20   1     0.00  -0.01   0.00     0.00  -0.01   0.01    -0.21   0.17   0.10
    21   1     0.00   0.01   0.01     0.01   0.00   0.01    -0.24   0.14   0.00
                    22                     23                     24
                     A                      A                      A
 Frequencies --   958.5494              1040.1200              1059.1245
 Red. masses --     2.3288                 1.4285                 2.1536
 Frc consts  --     1.2607                 0.9105                 1.4233
 IR Inten    --   152.3082                51.5680                86.1899
  Atom  AN      X      Y      Z        X      Y      Z        X      Y      Z
     1   6    -0.01   0.07   0.02    -0.01   0.09   0.04    -0.01   0.16   0.08
     2   1     0.00   0.05   0.02     0.03   0.00  -0.01     0.02   0.07   0.00
     3   1     0.00   0.04   0.02     0.00   0.12   0.04    -0.02   0.18   0.07
     4   1     0.00   0.08   0.02     0.00   0.00  -0.03     0.00  -0.01  -0.06
     5   6     0.11   0.08   0.07    -0.02   0.06   0.00    -0.06   0.04   0.02
     6   1    -0.33   0.58   0.46    -0.01  -0.02   0.07     0.04  -0.05  -0.06
     7   1    -0.12  -0.25  -0.17    -0.08   0.14   0.16     0.01   0.16   0.11
     8   1    -0.13  -0.18  -0.24     0.04  -0.06  -0.01     0.00   0.13   0.11
     9   6     0.20  -0.01  -0.02    -0.01  -0.04  -0.05    -0.01  -0.03  -0.10
    10   8    -0.13  -0.10  -0.08     0.03   0.02   0.02     0.03   0.02   0.02
    11   1    -0.01   0.08   0.07     0.07   0.06   0.03     0.07   0.06   0.04
    12   8    -0.02   0.00   0.00     0.00   0.00   0.00     0.00   0.00  -0.01
    13   1    -0.01   0.05   0.05     0.35  -0.39  -0.12    -0.32   0.42   0.16
    14   8    -0.03  -0.03  -0.03     0.02  -0.09  -0.02     0.03  -0.19  -0.04
    15   1     0.02   0.04   0.00    -0.28   0.20   0.22     0.27  -0.14  -0.19
    16   8    -0.02   0.00   0.04    -0.03  -0.03   0.00    -0.01   0.00   0.01
    17   1     0.01   0.01   0.02     0.17   0.21  -0.18     0.15   0.05  -0.05
    18   6     0.01  -0.01  -0.01    -0.01   0.03  -0.03     0.00  -0.03   0.03
    19   1    -0.01   0.02   0.00     0.35  -0.19  -0.02    -0.37   0.22   0.05
    20   1     0.02  -0.01  -0.01    -0.04  -0.06   0.16     0.07   0.06  -0.16
    21   1     0.00   0.01   0.00    -0.31   0.05   0.17     0.28  -0.02  -0.15
                    25                     26                     27
                     A                      A                      A
 Frequencies --  1086.7520              1115.6396              1141.7548
 Red. masses --     1.6592                 1.3497                 1.9022
 Frc consts  --     1.1546                 0.9898                 1.4610
 IR Inten    --    73.0800               137.8673               120.1605
  Atom  AN      X      Y      Z        X      Y      Z        X      Y      Z
     1   6    -0.01   0.07   0.04     0.01  -0.02   0.01    -0.01   0.03  -0.01
     2   1     0.04  -0.03  -0.02    -0.02   0.06  -0.01     0.01   0.00   0.04
     3   1     0.01   0.07   0.04    -0.04   0.02  -0.01     0.03  -0.02   0.01
     4   1     0.01   0.00  -0.02    -0.01  -0.13  -0.05    -0.01   0.12   0.06
     5   6     0.04  -0.06  -0.01     0.07  -0.03   0.04     0.06   0.08  -0.13
     6   1    -0.02   0.07  -0.03    -0.11   0.25   0.10    -0.06  -0.12   0.30
     7   1     0.03  -0.20  -0.20     0.00  -0.27  -0.23    -0.28   0.15   0.31
     8   1    -0.07  -0.03  -0.09    -0.14   0.03  -0.09     0.20  -0.55  -0.30
     9   6    -0.06   0.13   0.03    -0.11   0.02  -0.03    -0.08  -0.07   0.19
    10   8    -0.03   0.01   0.00     0.04   0.05   0.02     0.00   0.01  -0.02
    11   1    -0.31  -0.37  -0.29    -0.23  -0.33  -0.25    -0.09  -0.11  -0.07
    12   8     0.00   0.02   0.01     0.01  -0.01   0.00     0.01   0.00   0.00
    13   1     0.12  -0.27  -0.17    -0.08   0.21   0.14    -0.06   0.10   0.02
    14   8     0.03  -0.11   0.00     0.01   0.01   0.01     0.02  -0.03  -0.02
    15   1     0.06  -0.34  -0.11    -0.10   0.30   0.14    -0.03   0.16   0.01
    16   8     0.05   0.03  -0.01    -0.01  -0.03  -0.01     0.02   0.02  -0.03
    17   1    -0.27  -0.21   0.18     0.24   0.22  -0.20    -0.16  -0.04   0.04
    18   6     0.00   0.04   0.01    -0.01  -0.04  -0.02     0.00  -0.03   0.01
    19   1     0.11  -0.13  -0.09    -0.05   0.11   0.10    -0.15   0.11   0.06
    20   1    -0.25   0.06   0.07     0.28  -0.08  -0.05     0.15  -0.02  -0.08
    21   1     0.02  -0.12  -0.02    -0.09   0.15   0.06     0.07   0.06  -0.02
                    28                     29                     30
                     A                      A                      A
 Frequencies --  1155.2362              1182.5368              1219.8121
 Red. masses --     1.3923                 1.2813                 1.3950
 Frc consts  --     1.0948                 1.0557                 1.2230
 IR Inten    --    71.2619                 5.8409                22.2379
  Atom  AN      X      Y      Z        X      Y      Z        X      Y      Z
     1   6    -0.01   0.03   0.00     0.11   0.05  -0.06    -0.08   0.04  -0.11
     2   1     0.02  -0.04   0.02    -0.14   0.59   0.34     0.13  -0.36   0.19
     3   1     0.03  -0.02   0.02    -0.17  -0.59  -0.16     0.25  -0.42   0.02
     4   1     0.01   0.07   0.02    -0.21  -0.14   0.13    -0.03   0.63   0.30
     5   6    -0.05  -0.03  -0.01     0.00   0.00   0.00     0.00  -0.01   0.01
     6   1     0.09  -0.15  -0.18     0.01  -0.02  -0.01     0.00   0.03  -0.02
     7   1     0.10   0.08   0.00     0.00   0.02   0.02     0.02  -0.02  -0.03
     8   1     0.04   0.10   0.12     0.01   0.00   0.00    -0.03   0.05   0.02
     9   6     0.08   0.09   0.01     0.00   0.00  -0.01    -0.01   0.01  -0.02
    10   8    -0.04  -0.03  -0.01     0.00   0.00   0.00    -0.01   0.00   0.00
    11   1    -0.03   0.00  -0.01    -0.02  -0.03  -0.01    -0.01  -0.01  -0.03
    12   8     0.01   0.00   0.01     0.00   0.00   0.00     0.00   0.00   0.00
    13   1     0.02   0.13   0.15     0.00  -0.01   0.00     0.00   0.01   0.01
    14   8     0.01  -0.05   0.00    -0.05  -0.04   0.03     0.05  -0.03   0.08
    15   1    -0.07   0.31   0.15     0.00   0.01   0.00    -0.01   0.00   0.00
    16   8     0.04   0.02   0.00     0.00   0.00   0.00    -0.01  -0.01  -0.01
    17   1    -0.38  -0.19   0.19    -0.02  -0.01   0.01     0.17   0.12  -0.11
    18   6    -0.03  -0.05  -0.06     0.00   0.01   0.00     0.00   0.00   0.01
    19   1     0.04   0.12   0.17     0.04  -0.03  -0.02    -0.03   0.01   0.00
    20   1     0.44  -0.17  -0.03    -0.04   0.01   0.02    -0.02   0.01  -0.01
    21   1    -0.32   0.29   0.17    -0.01  -0.02   0.00     0.04  -0.02  -0.02
                    31                     32                     33
                     A                      A                      A
 Frequencies --  1255.9604              1312.7593              1351.9019
 Red. masses --     1.2719                 1.3648                 1.5202
 Frc consts  --     1.1821                 1.3857                 1.6370
 IR Inten    --    86.0501                15.0926               105.4063
  Atom  AN      X      Y      Z        X      Y      Z        X      Y      Z
     1   6    -0.01   0.00   0.01    -0.01   0.00  -0.01     0.00  -0.02   0.00
     2   1     0.00  -0.01  -0.01     0.01  -0.04   0.01    -0.05   0.09  -0.02
     3   1     0.02   0.04   0.02     0.03  -0.02   0.01    -0.03   0.11   0.00
     4   1     0.02   0.01  -0.01     0.00   0.04   0.01     0.03   0.11   0.06
     5   6    -0.02  -0.01  -0.01     0.03   0.01   0.00    -0.06   0.01  -0.02
     6   1     0.02  -0.05  -0.04    -0.05   0.10   0.08     0.06  -0.18  -0.04
     7   1     0.03   0.04   0.01    -0.06  -0.03   0.03     0.05   0.11   0.03
     8   1     0.04   0.02   0.04    -0.05  -0.02  -0.07     0.13   0.00   0.13
     9   6     0.03   0.02   0.02    -0.08  -0.04  -0.02     0.15  -0.04   0.07
    10   8    -0.01   0.00   0.00     0.02  -0.01   0.00    -0.03   0.05   0.00
    11   1    -0.08  -0.09  -0.07     0.13   0.15   0.11    -0.37  -0.43  -0.32
    12   8    -0.03  -0.08  -0.03     0.01  -0.04   0.05     0.01   0.00   0.03
    13   1    -0.10   0.35   0.31    -0.36   0.31   0.14    -0.15   0.06  -0.01
    14   8     0.01  -0.01  -0.01     0.01   0.00   0.00    -0.01   0.01  -0.02
    15   1    -0.10   0.55   0.15     0.32  -0.23  -0.15     0.21  -0.25  -0.15
    16   8     0.01  -0.01  -0.01     0.02   0.02   0.00    -0.04  -0.02   0.00
    17   1    -0.09   0.01   0.00    -0.08  -0.10   0.09     0.35   0.17  -0.18
    18   6     0.06   0.07   0.03     0.00   0.06  -0.10    -0.01   0.02  -0.05
    19   1     0.16  -0.19  -0.19     0.41  -0.12  -0.03     0.14  -0.01   0.02
    20   1    -0.41   0.13   0.11    -0.03  -0.11   0.24     0.02  -0.06   0.10
    21   1     0.12  -0.24  -0.05    -0.39   0.02   0.14    -0.16   0.02   0.05
                    34                     35                     36
                     A                      A                      A
 Frequencies --  1402.3446              1458.9849              1481.3310
 Red. masses --     1.7480                 1.5171                 1.1153
 Frc consts  --     2.0254                 1.9027                 1.4420
 IR Inten    --   108.8091                59.2561                 7.6162
  Atom  AN      X      Y      Z        X      Y      Z        X      Y      Z
     1   6     0.01   0.00   0.02     0.01  -0.01   0.01     0.00   0.02   0.01
     2   1     0.00   0.03  -0.03    -0.01   0.04  -0.03     0.07  -0.12  -0.06
     3   1    -0.05   0.02  -0.01    -0.05   0.04  -0.01    -0.06  -0.09  -0.02
     4   1     0.00  -0.05   0.00     0.00   0.00   0.02    -0.06  -0.10  -0.02
     5   6    -0.02   0.01   0.02     0.04  -0.13  -0.10     0.00   0.00  -0.01
     6   1     0.18  -0.18  -0.22    -0.33   0.31   0.23    -0.01  -0.01   0.03
     7   1     0.13  -0.15  -0.32    -0.03   0.25   0.48    -0.03   0.00   0.03
     8   1     0.05  -0.36  -0.12    -0.02   0.53   0.17     0.00   0.04   0.01
     9   6    -0.03   0.18   0.14    -0.01   0.10   0.08     0.00   0.00   0.01
    10   8    -0.01  -0.06  -0.04    -0.01  -0.02  -0.02     0.00   0.00   0.00
    11   1     0.25   0.32   0.23     0.07   0.09   0.06     0.00   0.00   0.00
    12   8     0.01   0.00   0.01     0.00   0.00   0.00     0.02  -0.01  -0.01
    13   1    -0.09   0.07   0.02    -0.03   0.00  -0.02     0.05  -0.01  -0.02
    14   8     0.00  -0.04  -0.02     0.00  -0.02  -0.01     0.00   0.01   0.00
    15   1     0.03  -0.06  -0.02     0.00  -0.04  -0.01     0.05  -0.01   0.00
    16   8    -0.03  -0.04  -0.02    -0.01  -0.02  -0.01     0.00   0.00   0.00
    17   1     0.39   0.26  -0.26     0.18   0.12  -0.12     0.03   0.02  -0.02
    18   6     0.00   0.01  -0.01    -0.01   0.00   0.00     0.08  -0.03  -0.02
    19   1     0.04   0.00   0.01     0.04  -0.02   0.01    -0.49   0.32  -0.03
    20   1     0.00  -0.02   0.04     0.04  -0.01   0.01    -0.49   0.05   0.07
    21   1    -0.03  -0.01   0.00     0.03  -0.02  -0.03    -0.46   0.11   0.34
                    37                     38                     39
                     A                      A                      A
 Frequencies --  1494.8285              1508.4679              1508.9884
 Red. masses --     1.1313                 1.0462                 1.0465
 Frc consts  --     1.4894                 1.4026                 1.4040
 IR Inten    --    10.0892                 4.5947                 3.4345
  Atom  AN      X      Y      Z        X      Y      Z        X      Y      Z
     1   6     0.01  -0.09  -0.02     0.03   0.00   0.00     0.01   0.01   0.00
     2   1    -0.26   0.47   0.10     0.09  -0.14  -0.10     0.05  -0.08  -0.02
     3   1     0.02   0.45  -0.01    -0.35   0.14  -0.14    -0.07  -0.01  -0.03
     4   1     0.16   0.49   0.25    -0.24   0.04   0.31    -0.08  -0.05   0.04
     5   6     0.01   0.00   0.02     0.01   0.00   0.01    -0.03  -0.03   0.02
     6   1     0.06   0.06  -0.15     0.07   0.04  -0.16    -0.12   0.50  -0.31
     7   1    -0.04   0.01   0.08    -0.05   0.03   0.10     0.53   0.39   0.07
     8   1    -0.17  -0.01  -0.14    -0.17   0.00  -0.13     0.04  -0.35  -0.09
     9   6    -0.02   0.01  -0.02     0.01  -0.01   0.00    -0.01  -0.03   0.01
    10   8     0.00   0.00   0.00     0.00   0.00   0.00     0.00   0.01   0.00
    11   1     0.02   0.03   0.03    -0.01  -0.01   0.00    -0.03  -0.04  -0.02
    12   8     0.01   0.00   0.00    -0.01   0.00  -0.01     0.00   0.00   0.00
    13   1     0.00  -0.01  -0.01     0.04  -0.01   0.01    -0.01   0.00  -0.01
    14   8     0.01  -0.03   0.00     0.01   0.00   0.00     0.00   0.01   0.00
    15   1    -0.04  -0.01   0.04     0.00   0.04   0.00     0.00   0.00   0.00
    16   8     0.00   0.00   0.00     0.00   0.00   0.00     0.00   0.00   0.00
    17   1    -0.03  -0.02   0.02    -0.01  -0.01   0.01    -0.02  -0.01   0.01
    18   6     0.02  -0.01   0.01    -0.01  -0.02  -0.03     0.00   0.01   0.01
    19   1    -0.14   0.00  -0.09     0.20   0.26   0.42    -0.05  -0.06  -0.10
    20   1    -0.07   0.05  -0.07    -0.26  -0.10   0.25     0.06   0.03  -0.07
    21   1    -0.13   0.02   0.10     0.25   0.18  -0.16    -0.06  -0.04   0.04
                    40                     41                     42
                     A                      A                      A
 Frequencies --  1512.5219              1513.9462              1514.2399
 Red. masses --     1.0465                 1.0667                 1.0421
 Frc consts  --     1.4105                 1.4406                 1.4078
 IR Inten    --    34.2819                 4.2783                 6.4459
  Atom  AN      X      Y      Z        X      Y      Z        X      Y      Z
     1   6     0.02   0.00  -0.01     0.02  -0.02  -0.01     0.03   0.01   0.00
     2   1     0.08  -0.13   0.00    -0.01   0.03   0.01     0.12  -0.20  -0.13
     3   1    -0.23   0.13  -0.10    -0.17   0.20  -0.08    -0.34   0.05  -0.14
     4   1    -0.22  -0.02   0.23    -0.11   0.13   0.23    -0.24  -0.02   0.25
     5   6     0.00   0.01   0.00    -0.03   0.01  -0.02     0.01   0.01   0.00
     6   1     0.04  -0.07   0.01    -0.22  -0.03   0.42     0.06  -0.10  -0.02
     7   1    -0.09  -0.06   0.00     0.26  -0.03  -0.34    -0.14  -0.07   0.04
     8   1    -0.04   0.05  -0.01     0.52  -0.08   0.37    -0.10   0.08  -0.05
     9   6     0.01   0.00  -0.01    -0.04   0.01  -0.03     0.01   0.00   0.00
    10   8     0.00   0.00   0.00     0.01   0.00   0.00     0.00   0.00   0.00
    11   1     0.00   0.00   0.00     0.04   0.04   0.01     0.00   0.00   0.00
    12   8     0.00   0.01   0.00     0.00   0.00   0.00     0.00   0.00   0.01
    13   1     0.02  -0.01  -0.02     0.00   0.00   0.00    -0.04   0.05   0.04
    14   8     0.00   0.00   0.00     0.01  -0.01   0.00     0.01   0.00   0.00
    15   1    -0.05   0.03   0.02    -0.02  -0.01   0.02     0.05  -0.03  -0.02
    16   8     0.00   0.00   0.00     0.01   0.00   0.00     0.00   0.00   0.00
    17   1    -0.02  -0.01   0.01    -0.04  -0.03   0.03     0.02   0.00   0.00
    18   6     0.00   0.05   0.00     0.00  -0.01   0.00     0.00  -0.01   0.04
    19   1    -0.28   0.04  -0.19     0.02   0.03   0.05     0.07  -0.34  -0.29
    20   1     0.37  -0.19   0.28    -0.07   0.02  -0.01     0.07   0.25  -0.49
    21   1    -0.13  -0.62   0.00     0.02   0.08   0.00    -0.10   0.25   0.12
                    43                     44                     45
                     A                      A                      A
 Frequencies --  1531.0801              1748.6463              2925.2098
 Red. masses --     1.0490                 1.0885                 1.0789
 Frc consts  --     1.4489                 1.9610                 5.4393
 IR Inten    --    19.1951               670.5268              1131.8389
  Atom  AN      X      Y      Z        X      Y      Z        X      Y      Z
     1   6     0.00   0.00  -0.06     0.00  -0.01   0.00     0.00   0.00   0.00
     2   1     0.09  -0.13   0.69    -0.02   0.03   0.01     0.00   0.00   0.00
     3   1     0.33   0.39   0.10     0.01   0.02   0.00     0.00   0.00   0.00
     4   1    -0.33  -0.32   0.07     0.01   0.02   0.01     0.01   0.00   0.00
     5   6     0.00   0.00   0.00     0.00   0.00   0.00     0.00   0.00   0.00
     6   1     0.01  -0.01  -0.01    -0.01   0.01   0.01     0.00   0.00   0.00
     7   1    -0.02   0.00   0.02     0.01   0.00  -0.01     0.00  -0.01   0.01
     8   1    -0.02   0.02  -0.01     0.01  -0.01   0.00     0.00  -0.01   0.00
     9   6     0.01   0.01   0.01    -0.02   0.00   0.00     0.00  -0.01   0.01
    10   8     0.00   0.00   0.00     0.00   0.00   0.00     0.00   0.00   0.00
    11   1     0.00  -0.01   0.00     0.01   0.01   0.01     0.00   0.00   0.00
    12   8     0.00   0.00   0.00    -0.07   0.00   0.00    -0.03   0.02  -0.06
    13   1     0.00   0.00   0.00     0.55  -0.13   0.30    -0.05  -0.07   0.03
    14   8    -0.01   0.00  -0.01     0.00   0.00   0.00     0.00   0.00   0.00
    15   1     0.01  -0.02  -0.01     0.62   0.26  -0.36     0.51  -0.17   0.83
    16   8     0.00   0.00   0.00     0.00   0.00   0.01     0.01   0.00  -0.01
    17   1     0.03   0.00  -0.01     0.06   0.01  -0.01     0.01   0.01   0.01
    18   6     0.00  -0.01   0.00    -0.01  -0.01   0.00     0.00   0.00   0.00
    19   1     0.02   0.00   0.01    -0.02   0.00  -0.01    -0.01  -0.02   0.02
    20   1    -0.05   0.03  -0.04     0.06  -0.02  -0.01     0.02   0.02   0.01
    21   1     0.00   0.07   0.01    -0.02  -0.02   0.00     0.01  -0.01  -0.03
                    46                     47                     48
                     A                      A                      A
 Frequencies --  3066.2974              3077.1486              3117.4201
 Red. masses --     1.0351                 1.0355                 1.0278
 Frc consts  --     5.7339                 5.7771                 5.8852
 IR Inten    --    26.4443                 0.7765                 4.5923
  Atom  AN      X      Y      Z        X      Y      Z        X      Y      Z
     1   6     0.01  -0.03  -0.04     0.00   0.00   0.00     0.00   0.00   0.00
     2   1     0.38   0.18  -0.03     0.01   0.00   0.00     0.01   0.00   0.00
     3   1    -0.28  -0.01   0.75     0.00   0.00   0.01     0.00   0.00   0.01
     4   1    -0.26   0.19  -0.26     0.00   0.00   0.00     0.00   0.00   0.00
     5   6     0.00   0.00   0.00     0.01  -0.04  -0.03     0.00   0.00   0.00
     6   1    -0.01   0.00   0.00     0.48   0.23   0.24     0.00   0.00   0.00
     7   1     0.00   0.00   0.00    -0.30   0.44  -0.32     0.00   0.00   0.00
     8   1     0.01   0.00  -0.01    -0.30  -0.19   0.38     0.00   0.00   0.00
     9   6     0.00   0.00   0.00     0.00   0.00   0.00     0.00   0.00   0.00
    10   8     0.00   0.00   0.00     0.00   0.00   0.00     0.00   0.00   0.00
    11   1     0.00   0.00   0.00     0.00   0.00   0.00     0.00   0.00   0.00
    12   8     0.00   0.00   0.00     0.00   0.00   0.00     0.00   0.00   0.00
    13   1    -0.01  -0.01   0.01     0.00   0.00   0.00     0.02   0.02  -0.02
    14   8     0.00   0.00   0.00     0.00   0.00   0.00     0.00   0.00   0.00
    15   1     0.00   0.00   0.00     0.00   0.00   0.00    -0.02   0.01  -0.03
    16   8     0.00   0.00   0.00     0.00   0.00   0.00     0.00   0.00   0.00
    17   1     0.00   0.00   0.00     0.00   0.00   0.00     0.00   0.00   0.00
    18   6     0.00   0.00   0.00     0.00   0.00   0.00     0.03  -0.03  -0.02
    19   1     0.00   0.00   0.00     0.00   0.00   0.00    -0.21  -0.34   0.31
    20   1     0.00  -0.01   0.00     0.00   0.00   0.00     0.14   0.60   0.31
    21   1     0.00   0.00   0.00     0.00   0.00   0.00    -0.27   0.05  -0.43
                    49                     50                     51
                     A                      A                      A
 Frequencies --  3153.4334              3154.1140              3165.8716
 Red. masses --     1.1038                 1.1001                 1.1049
 Frc consts  --     6.4672                 6.4480                 6.5246
 IR Inten    --     7.9072                13.7122                 1.2935
  Atom  AN      X      Y      Z        X      Y      Z        X      Y      Z
     1   6     0.00   0.00  -0.01     0.03   0.04  -0.08     0.00   0.00   0.00
     2   1    -0.05  -0.02   0.00    -0.50  -0.23   0.00     0.00   0.00   0.00
     3   1    -0.02   0.00   0.05    -0.20  -0.01   0.53     0.00   0.00   0.00
     4   1     0.03  -0.02   0.03     0.39  -0.27   0.36     0.00   0.00   0.00
     5   6    -0.07   0.02  -0.06     0.01   0.00   0.01     0.06   0.06  -0.05
     6   1     0.57   0.29   0.28    -0.05  -0.02  -0.02    -0.33  -0.16  -0.18
     7   1     0.34  -0.50   0.36    -0.03   0.04  -0.03     0.17  -0.22   0.16
     8   1    -0.05  -0.02   0.04     0.01   0.00  -0.01    -0.50  -0.30   0.62
     9   6     0.00   0.00   0.00     0.00   0.00   0.00     0.00   0.00   0.00
    10   8     0.00   0.00   0.00     0.00   0.00   0.00     0.00   0.00   0.00
    11   1     0.00   0.00   0.00     0.00   0.00   0.00     0.00   0.00   0.00
    12   8     0.00   0.00   0.00     0.00   0.00   0.00     0.00   0.00   0.00
    13   1     0.00   0.00   0.00     0.00   0.00   0.00     0.00   0.00   0.00
    14   8     0.00   0.00   0.00     0.00   0.00   0.00     0.00   0.00   0.00
    15   1     0.00   0.00  -0.01     0.00   0.00   0.00     0.00   0.00   0.00
    16   8     0.00   0.00   0.00     0.00   0.00   0.00     0.00   0.00   0.00
    17   1     0.00   0.00   0.00     0.00   0.00   0.00     0.00   0.00   0.00
    18   6     0.00   0.00   0.00     0.00   0.00   0.00     0.00   0.00   0.00
    19   1     0.00   0.00   0.00     0.00   0.00   0.00     0.00   0.00   0.00
    20   1     0.00   0.00   0.00     0.00   0.00   0.00     0.00   0.00   0.00
    21   1     0.00   0.00   0.00     0.00   0.00   0.00     0.00   0.00   0.00
                    52                     53                     54
                     A                      A                      A
 Frequencies --  3182.9747              3224.4806              3245.5011
 Red. masses --     1.1089                 1.1112                 1.1132
 Frc consts  --     6.6193                 6.8071                 6.9089
 IR Inten    --     4.6080                 0.4442                 0.9440
  Atom  AN      X      Y      Z        X      Y      Z        X      Y      Z
     1   6    -0.09   0.00  -0.03     0.00   0.00   0.00     0.00   0.00   0.00
     2   1     0.65   0.31  -0.03     0.00   0.00   0.00     0.00   0.00   0.00
     3   1     0.00   0.00  -0.03     0.00   0.00   0.00     0.00   0.00   0.00
     4   1     0.43  -0.32   0.43     0.00   0.00   0.00     0.00   0.00   0.00
     5   6     0.00   0.00   0.00     0.00   0.00   0.00     0.00   0.00   0.00
     6   1     0.00   0.00   0.00     0.00   0.00   0.00     0.00   0.00   0.00
     7   1     0.00  -0.01   0.00     0.00   0.00   0.00     0.00   0.00   0.00
     8   1     0.00   0.00   0.00     0.00   0.00   0.00     0.00   0.00   0.00
     9   6     0.00   0.00   0.00     0.00   0.00   0.00     0.00   0.00   0.00
    10   8     0.00   0.00   0.00     0.00   0.00   0.00     0.00   0.00   0.00
    11   1     0.00   0.00   0.00     0.00   0.00   0.00     0.00   0.00   0.00
    12   8     0.00   0.00   0.00     0.00   0.00   0.00     0.00   0.00   0.00
    13   1     0.00   0.00   0.00     0.00   0.01  -0.01     0.00  -0.02   0.01
    14   8     0.00   0.00   0.00     0.00   0.00   0.00     0.00   0.00   0.00
    15   1     0.00   0.00  -0.01     0.00   0.00   0.00    -0.01   0.00   0.00
    16   8     0.00   0.00   0.00     0.00   0.00   0.00     0.00   0.00   0.00
    17   1     0.00   0.00   0.00     0.00   0.00   0.00     0.00   0.00   0.00
    18   6     0.00   0.00   0.00     0.05   0.07   0.04     0.01  -0.05   0.08
    19   1     0.00   0.00   0.00    -0.19  -0.31   0.30     0.30   0.49  -0.44
    20   1     0.00   0.00   0.00    -0.14  -0.62  -0.32     0.00   0.01   0.02
    21   1     0.00   0.00   0.00    -0.27   0.07  -0.43    -0.37   0.07  -0.58
                    55                     56                     57
                     A                      A                      A
 Frequencies --  3362.8790              3702.4454              3728.8064
 Red. masses --     1.0616                 1.0660                 1.0671
 Frc consts  --     7.0736                 8.6093                 8.7418
 IR Inten    --   620.4898                79.5415               100.9346
  Atom  AN      X      Y      Z        X      Y      Z        X      Y      Z
     1   6     0.00   0.00   0.00     0.00   0.00   0.00     0.00   0.00   0.00
     2   1    -0.01  -0.01   0.00     0.00   0.00   0.00     0.00   0.00   0.00
     3   1     0.01   0.00  -0.02     0.00   0.00   0.00     0.00   0.00   0.00
     4   1     0.00   0.00   0.00     0.00   0.00   0.00     0.00   0.00   0.00
     5   6     0.00   0.00   0.00     0.00   0.00   0.00     0.00   0.00   0.00
     6   1     0.00   0.00   0.00     0.00   0.00   0.00     0.00   0.00   0.00
     7   1     0.00   0.00   0.00     0.00   0.00   0.00     0.00   0.00   0.00
     8   1     0.00   0.00   0.00     0.00   0.00   0.00     0.00   0.00   0.00
     9   6     0.00   0.00   0.00     0.00   0.00   0.00     0.00   0.00   0.00
    10   8     0.00   0.00   0.00     0.00   0.00   0.00    -0.05   0.04   0.00
    11   1     0.00   0.00   0.00     0.02  -0.02   0.00     0.80  -0.60   0.04
    12   8     0.03   0.04  -0.03     0.00   0.00   0.00     0.00   0.00   0.00
    13   1    -0.45  -0.61   0.63     0.00   0.00   0.00     0.00   0.00   0.00
    14   8     0.00   0.00   0.00     0.00   0.00   0.00     0.00   0.00   0.00
    15   1    -0.05   0.04  -0.09     0.01   0.00   0.01     0.00   0.00   0.00
    16   8     0.00   0.00   0.00     0.01   0.03   0.05     0.00   0.00   0.00
    17   1     0.00   0.00   0.00    -0.16  -0.48  -0.86     0.00   0.01   0.02
    18   6     0.00   0.00   0.00     0.00   0.00   0.00     0.00   0.00   0.00
    19   1    -0.03  -0.02   0.03     0.00   0.00   0.00     0.00   0.00   0.00
    20   1    -0.01   0.01   0.00     0.00   0.00   0.00     0.00   0.00   0.00
    21   1    -0.01   0.00   0.00     0.00   0.00   0.00     0.00   0.00   0.00

 -------------------
 - Thermochemistry -
 -------------------
 Temperature   298.150 Kelvin.  Pressure   1.00000 Atm.
 Atom     1 has atomic number  6 and mass  12.00000
 Atom     2 has atomic number  1 and mass   1.00783
 Atom     3 has atomic number  1 and mass   1.00783
 Atom     4 has atomic number  1 and mass   1.00783
 Atom     5 has atomic number  6 and mass  12.00000
 Atom     6 has atomic number  1 and mass   1.00783
 Atom     7 has atomic number  1 and mass   1.00783
 Atom     8 has atomic number  1 and mass   1.00783
 Atom     9 has atomic number  6 and mass  12.00000
 Atom    10 has atomic number  8 and mass  15.99491
 Atom    11 has atomic number  1 and mass   1.00783
 Atom    12 has atomic number  8 and mass  15.99491
 Atom    13 has atomic number  1 and mass   1.00783
 Atom    14 has atomic number  8 and mass  15.99491
 Atom    15 has atomic number  1 and mass   1.00783
 Atom    16 has atomic number  8 and mass  15.99491
 Atom    17 has atomic number  1 and mass   1.00783
 Atom    18 has atomic number  6 and mass  12.00000
 Atom    19 has atomic number  1 and mass   1.00783
 Atom    20 has atomic number  1 and mass   1.00783
 Atom    21 has atomic number  1 and mass   1.00783
 Molecular mass:   125.08138 amu.
 Principal axes and moments of inertia in atomic units:
                           1         2         3
     Eigenvalues --   663.403881524.348241776.29198
           X            0.99961  -0.02453  -0.01365
           Y            0.02502   0.99900   0.03694
           Z            0.01273  -0.03727   0.99922
 This molecule is an asymmetric top.
 Rotational symmetry number  1.
 Warning -- assumption of classical behavior for rotation
           may cause significant error
 Rotational temperatures (Kelvin)      0.13056     0.05682     0.04876
 Rotational constants (GHZ):           2.72043     1.18394     1.01602
    1 imaginary frequencies ignored.
 Zero-point vibrational energy     481800.8 (Joules/Mol)
                                  115.15315 (Kcal/Mol)
 Warning -- explicit consideration of  17 degrees of freedom as
           vibrations may cause significant error
 Vibrational temperatures:     63.96   122.96   182.51   197.97   255.43
          (Kelvin)            291.01   338.69   372.39   391.81   425.50
                              544.47   570.92   650.94   762.72   771.31
                              812.82   870.85  1119.45  1249.56  1354.78
                             1379.14  1496.50  1523.84  1563.59  1605.15
                             1642.73  1662.13  1701.40  1755.04  1807.04
                             1888.77  1945.08  2017.66  2099.15  2131.30
                             2150.72  2170.35  2171.10  2176.18  2178.23
                             2178.65  2202.88  2515.91  4208.72  4411.71
                             4427.32  4485.27  4537.08  4538.06  4554.98
                             4579.58  4639.30  4669.55  4838.43  5326.99
                             5364.91
 
 Zero-point correction=                           0.183508 (Hartree/Particle)
 Thermal correction to Energy=                    0.194467
 Thermal correction to Enthalpy=                  0.195411
 Thermal correction to Gibbs Free Energy=         0.147326
 Sum of electronic and zero-point Energies=           -460.506318
 Sum of electronic and thermal Energies=              -460.495359
 Sum of electronic and thermal Enthalpies=            -460.494414
 Sum of electronic and thermal Free Energies=         -460.542500
 
                     E (Thermal)             CV                S
                      KCal/Mol        Cal/Mol-Kelvin    Cal/Mol-Kelvin
 Total                  122.030             38.668            101.205
 Electronic               0.000              0.000              0.000
 Translational            0.889              2.981             40.385
 Rotational               0.889              2.981             28.976
 Vibrational            120.253             32.706             31.844
 Vibration     1          0.595              1.980              5.050
 Vibration     2          0.601              1.959              3.761
 Vibration     3          0.611              1.926              2.993
 Vibration     4          0.614              1.916              2.837
 Vibration     5          0.628              1.870              2.354
 Vibration     6          0.639              1.837              2.112
 Vibration     7          0.655              1.787              1.837
 Vibration     8          0.668              1.748              1.670
 Vibration     9          0.675              1.724              1.581
 Vibration    10          0.690              1.682              1.441
 Vibration    11          0.749              1.516              1.045
 Vibration    12          0.763              1.477              0.974
 Vibration    13          0.811              1.356              0.788
 Vibration    14          0.885              1.183              0.587
 Vibration    15          0.891              1.170              0.574
[...]
 52669,0.00094464,0.00106144,-0.00006260,0.00073635,0.00123688,0.000592
 05,-0.00099519,-0.00052761,0.00021727,-0.00038825,0.00001059,-0.028935
 62,0.02293782,-0.00215796,-0.30904166,0.20107344,-0.02837017,0.3348424
 1,0.00032641,-0.00064898,0.00021372,0.00044138,0.00016209,-0.00016125,
 -0.00017974,-0.00007168,0.00006439,0.00017501,0.00023545,0.00013897,-0
 .00228004,0.00124256,-0.00156533,0.00043479,-0.00084302,-0.00000779,-0
 .00031392,-0.00149473,0.00021927,0.00003535,0.00033985,0.00011146,-0.0
 2170059,0.01255378,-0.00259052,0.24845282,-0.21165795,-0.00000403,-0.2
 1934244,0.20462124,0.00018461,-0.00142317,-0.00050500,0.00011882,0.000
 06074,0.00009404,-0.00011790,0.00011924,0.00017612,0.00004117,0.000121
 52,0.00020111,0.00087816,0.00060005,0.00071102,0.00054918,0.00043266,0
 .00007010,-0.00028536,-0.00069394,0.00044185,-0.00028627,-0.00013376,-
 0.00148817,-0.01714526,0.01314469,-0.00062749,-0.00740950,-0.01883457,
 -0.00950430,0.02910547,0.00489941,0.01677940,-0.00244971,0.00644675,0.
 00199822,0.00018185,-0.00130328,-0.00064065,-0.00003309,-0.00034402,-0
 .00083829,0.00024410,-0.00058730,0.00037538,-0.00059097,-0.00012841,0.
 00079403,-0.00018131,-0.00023279,-0.00031124,-0.00004775,-0.00009115,-
 0.00007454,-0.00018038,0.00012697,0.00013245,0.00884319,0.00026681,-0.
 00647516,-0.00543909,-0.00186756,0.00006631,0.00081739,-0.00016808,-0.
 00028424,0.54646435,-0.00007474,0.00264074,0.00066541,0.00000030,-0.00
 036090,-0.00006162,0.00026476,-0.00022460,-0.00006693,0.00024440,0.000
 01901,-0.00007352,-0.00028930,0.00017819,-0.00075164,0.00003874,0.0001
 7535,0.00036919,-0.00003221,0.00023934,0.00013605,0.00023056,-0.000001
 85,-0.00004801,-0.00000701,-0.00820740,0.00717940,-0.00013305,0.001934
 88,-0.00130887,-0.00012321,-0.00009367,-0.00042193,0.02872884,0.304399
 29,0.00150098,-0.00199509,-0.00074971,-0.00010201,0.00074748,0.0002673
 0,-0.00018240,0.00035267,0.00038465,-0.00019284,-0.00018325,-0.0000323
 6,-0.00052496,-0.00108617,0.00088615,-0.00001581,0.00038879,0.00012700
 ,0.00033461,-0.00024233,-0.00001851,-0.00007411,0.00030491,0.00038827,
 0.00239066,0.01177673,-0.01659603,-0.00194284,-0.00307465,0.00282222,0
 .00042510,-0.00014985,0.00019208,-0.00925246,-0.16275471,0.47214019,0.
 00366838,-0.00856346,-0.00206086,-0.00010434,0.00214689,0.00089156,-0.
 00023990,0.00104607,0.00117016,-0.00024730,0.00051986,-0.00028067,0.00
 017493,-0.00071645,0.00091727,-0.00002493,0.00064867,0.00002946,0.0004
 0770,-0.00032706,-0.00010062,-0.00015842,0.00005411,0.00019327,-0.0072
 8288,0.01453595,-0.01384560,0.00297772,-0.00216017,0.00318927,-0.00005
 151,0.00016367,0.00054467,-0.14651888,-0.09711760,0.09839048,0.1340508
 3,-0.00207719,-0.00417164,-0.00185564,0.00030826,0.00005189,0.00010686
 ,-0.00022097,0.00023087,0.00019779,-0.00035342,-0.00077940,0.00034524,
 0.00070426,0.00001193,0.00095121,0.00024191,-0.00071318,-0.00042374,-0
 .00016567,-0.00039520,-0.00026903,-0.00029568,-0.00001696,0.00002018,0
 .00064239,0.01171202,-0.00618364,0.00199025,-0.00227556,0.00144525,0.0
 0009577,0.00023615,0.00060547,-0.10804349,-0.18341000,0.15750355,0.091
 63504,0.18134495,-0.00186100,-0.00006819,0.00069531,0.00018920,-0.0004
 8135,-0.00040609,-0.00024640,-0.00040821,-0.00075260,0.00007454,0.0003
 1705,0.00040315,0.00044418,0.00050048,-0.00023095,-0.00001494,-0.00047
 176,0.00026484,-0.00022662,-0.00004553,-0.00015200,0.00022267,-0.00010
 544,-0.00005823,-0.00521209,-0.00394533,0.00398081,-0.00013977,0.00102
 081,-0.00088774,-0.00014776,-0.00004195,-0.00009248,0.08865761,0.12423
 682,-0.15253548,-0.10610009,-0.14925653,0.18629435,-0.06885027,0.01306
 491,-0.01194299,0.01043690,-0.02567079,-0.01251341,0.00130421,0.012796
 54,0.00290247,0.00103314,0.02374750,0.01157184,-0.00575291,0.01715792,
 -0.00616667,0.00044551,0.00065955,0.00018851,0.00045462,0.00179410,0.0
 0143228,0.00047664,-0.00061958,-0.00184342,-0.09299402,0.01290712,-0.0
 2181919,-0.04624902,0.02212542,-0.03383567,-0.00053251,-0.00203867,-0.
 00891337,-0.01872436,-0.01346698,0.00900775,0.01126690,0.00879657,0.00
 275222,0.19267084,-0.00794258,-0.17484640,-0.05608351,0.00224691,-0.03
 179337,-0.01249672,0.00577104,-0.01406730,-0.01222314,0.00149183,-0.03
 166207,-0.01256801,0.02789985,-0.03622834,0.01920154,0.00002580,0.0018
 2864,0.00204659,0.00257482,-0.00551390,-0.00498215,0.00015086,0.000724
 49,0.00085054,0.03926675,-0.13665639,0.01646240,0.00557517,0.01482593,
 0.00147009,-0.00277789,-0.00046948,-0.00008656,-0.01196237,0.00225446,
 -0.00149926,0.00115609,-0.00991506,0.00277297,-0.06625577,0.44948159,-
 0.01801287,-0.03675682,-0.10221756,-0.00116812,-0.00584633,0.00037162,
 0.00037044,-0.03800905,-0.00682587,0.00040333,0.01893057,0.01040180,0.
 00743614,-0.00802110,0.00997988,0.00037777,0.00037974,0.00033206,0.001
 11357,-0.00265208,-0.00106814,-0.00054130,-0.00024287,0.00091780,-0.03
 234181,-0.00151382,-0.10493291,-0.03429524,0.01478834,-0.01065590,-0.0
 0086243,-0.00235816,-0.00522622,0.00102160,-0.00168786,0.00711039,0.00
 730037,0.00451536,-0.00804998,0.07475420,0.01292957,0.25002106,0.00006
 064,-0.00189146,-0.00073505,-0.00006381,0.00010344,0.00017717,0.000415
 14,-0.00021271,0.00035811,0.00006609,0.00069035,-0.00031024,0.00095802
 ,0.00143171,-0.00144054,0.00009864,-0.00009735,0.00028760,-0.00033640,
 0.00033402,0.00003927,0.00034614,-0.00049457,-0.00058381,-0.01594801,-
 0.01577611,0.02565040,0.00603510,0.00495328,-0.00331282,-0.00104620,0.
 00023533,-0.00002803,-0.14791569,0.01815150,-0.10973163,0.02707775,0.0
 0001708,0.01196661,-0.00692041,0.00669948,-0.00664713,0.13534938,-0.00
 034093,-0.00083333,0.00056087,0.00010510,0.00008748,-0.00023853,-0.000
 22213,-0.00025331,-0.00048202,-0.00001003,-0.00007700,0.00003437,0.000
 42752,-0.00011516,0.00046054,0.00005933,0.00003428,-0.00066054,0.00018
 465,-0.00007991,-0.00007297,-0.00026159,-0.00011648,-0.00008759,-0.004
 55133,0.00399171,-0.00443371,-0.00124668,-0.00121602,0.00092588,-0.000
 01246,-0.00011408,0.00023381,0.00038313,-0.03183862,0.00912635,0.01307
 213,-0.00414715,0.02657057,0.00354275,-0.00049719,-0.00012573,-0.02223
 581,0.05216020,-0.00055035,0.00067971,0.00040414,-0.00001860,-0.000309
 93,-0.00011787,0.00035365,-0.00035497,-0.00005104,0.00009774,0.0003220
 7,-0.00023304,0.00094341,0.00138403,-0.00110631,0.00013499,-0.00058342
 ,-0.00054915,-0.00042671,0.00027710,0.00004684,-0.00007292,-0.00045772
 ,-0.00058070,-0.00002441,-0.01175444,0.02199474,0.00455890,0.00356651,
 -0.00297239,-0.00052817,0.00035853,-0.00001911,-0.11272779,0.03889340,
 -0.22107867,-0.00991165,0.00769171,-0.02555894,-0.00598284,0.00245853,
 -0.00379429,0.09899208,-0.04122171,0.23764884,-0.00027150,0.00078573,0
 .00145131,0.00010187,0.00062499,-0.00056449,-0.00004632,-0.00092105,-0
 .00115003,0.00045456,-0.00048566,-0.00028532,-0.00619784,-0.00428539,0
 .01849455,0.00054165,0.00086239,0.00120338,0.00040267,-0.00228548,-0.0
 0072556,0.00104277,0.00201755,0.00167941,-0.09001123,-0.00962693,-0.00
 544181,-0.05561589,-0.03553148,0.02012729,0.00084434,-0.00409745,0.001
 84074,-0.03339271,0.00646908,-0.02915784,-0.00764909,-0.00312861,0.004
 17819,0.01957266,-0.00508924,0.00126914,0.01604171,0.00515718,0.020832
 44,0.19874284,-0.00116705,0.00519195,0.00184134,0.00007554,-0.00035443
 ,0.00010522,-0.00003365,0.00085066,-0.00035095,0.00004606,-0.00004527,
 0.00009497,0.01264071,0.00851471,-0.01408203,0.00019522,0.00062134,0.0
 0066012,-0.00061047,0.00123084,-0.00028273,0.00108386,-0.00221260,-0.0
 0285935,-0.01332267,-0.08262658,-0.01744599,-0.03639290,-0.00451857,0.
 00831543,-0.00203395,-0.00440565,0.00263502,-0.00028232,0.00702897,-0.
 00165703,-0.00298641,-0.00223146,-0.00039015,-0.00609899,-0.01956227,0
 .04336916,0.00532311,-0.01280816,0.00287361,0.10817488,0.24193120,0.00
 185135,-0.00681828,-0.00483843,-0.00009404,0.00122734,0.00041686,-0.00
 083642,0.00169285,0.00153011,-0.00023841,0.00090452,0.00071977,0.02681
 632,0.01099437,-0.03120832,-0.00028758,0.00182747,0.00129377,0.0003679
 7,0.00033073,0.00092391,0.00161663,-0.00553244,-0.00337551,0.03766540,
 0.00351906,-0.11899979,0.00266642,-0.00061198,0.01845176,0.00038406,0.
 00128207,-0.00189344,-0.01852329,0.00051737,0.00182645,0.00458757,0.00
 160268,0.00003817,0.00038344,0.04132735,-0.03744999,0.00094912,0.00143
 252,-0.02154852,0.01533234,0.15460862,0.54843614,0.00073815,-0.0002543
 0,-0.00096822,-0.00007425,-0.00012195,0.00041541,0.00008504,0.00026078
 ,0.00036535,-0.00015897,-0.00006238,0.00003590,-0.00436639,-0.00347025
 ,0.00417818,0.00017520,-0.00020567,-0.00034851,0.00007366,0.00011634,-
 0.00012921,-0.00036625,0.00135222,0.00120398,0.00726926,0.01724190,0.0
 2604659,0.00045152,0.00136327,-0.00548248,-0.00118054,-0.00015063,0.00
 124316,-0.00484735,0.00170714,-0.00145320,0.00027203,-0.00037911,-0.00
 007103,-0.00047864,-0.00008774,-0.00018640,0.00623431,-0.00476302,-0.0
 0365975,-0.04864801,-0.06387834,-0.07198827,0.04525501,-0.00095269,0.0
 0106953,0.00192728,-0.00001354,-0.00028440,-0.00015455,0.00071234,-0.0
 0111603,-0.00017856,0.00015740,-0.00021352,-0.00053615,-0.00050603,0.0
 0079127,-0.00053026,-0.00003232,-0.00008965,0.00019830,-0.00009797,0.0
 0006041,0.00009790,0.00006248,0.00012566,0.00000828,0.00570803,0.01119
 622,0.01296560,0.00061520,-0.00183269,0.00067853,0.00028881,0.00039478
 ,-0.00123888,0.00179812,-0.00038134,0.00090650,-0.00006204,0.00034265,
 -0.00005755,0.00005776,-0.00569932,0.00263811,-0.00199299,0.00032881,0
 .00001897,-0.05720306,-0.13681966,-0.20836205,0.05127963,0.13194149,0.
 00031010,0.00056025,-0.00048409,-0.00009701,0.00007734,0.00013663,-0.0
 0023348,0.00044182,0.00059941,-0.00000850,-0.00000254,0.00019450,0.002
 18721,0.00302208,-0.00124654,-0.00028804,0.00018377,0.00021662,0.00008
 502,-0.00014866,0.00012966,0.00016375,-0.00073212,-0.00013809,-0.00064
 828,-0.01667642,-0.02795743,-0.00537248,-0.00075016,0.00245303,0.00005
 986,-0.00040630,0.00066039,0.00263590,-0.00039395,0.00176561,-0.000214
 06,-0.00008692,-0.00043936,-0.00002173,0.00047182,0.00077191,-0.004220
 59,-0.00029948,-0.00260711,-0.04531546,-0.17685341,-0.35156925,0.05170
 844,0.19141780,0.37712823,0.00015712,-0.00308746,-0.00078090,0.0000440
 7,0.00032272,0.00016115,-0.00006267,-0.00000113,0.00026470,-0.00006464
 ,0.00004295,-0.00013742,-0.00007530,-0.00014616,-0.00040956,-0.0000769
 6,0.00038419,0.00039524,0.00012702,0.00007103,0.00009324,0.00015708,0.
 00003150,0.00002970,-0.00437897,-0.00054272,0.00082581,0.00203340,0.00
 076780,0.00057290,-0.00037766,0.00001091,-0.00003445,-0.13213677,0.026
 00235,0.01886967,-0.01681330,0.00428687,0.00823795,0.00397331,0.002489
 71,0.00021263,-0.02199836,0.01040435,0.00009128,0.00575475,-0.00035566
 ,0.00078154,0.00023665,0.00001662,-0.00089091,0.44808476,-0.00063317,0
 .00204581,0.00092231,0.00009586,-0.00039696,-0.00028696,-0.00013017,-0
 .00011012,-0.00050677,-0.00000106,-0.00012922,0.00022603,0.00003778,0.
 00002313,0.00003987,0.00002459,-0.00013195,-0.00007413,-0.00003323,-0.
 00001216,-0.00003579,-0.00000683,-0.00000793,0.00001246,0.00189728,-0.
 00036645,0.00018054,-0.00085009,-0.00025424,-0.00034939,0.00010267,0.0
 0000203,-0.00003230,0.05293245,-0.09626367,-0.00032094,-0.01422328,0.0
 1619546,-0.00001384,-0.00368841,-0.00283285,-0.00057790,0.00575725,-0.
 00378985,-0.00014012,-0.00249180,0.00012595,-0.00075558,-0.00032047,0.
 00032003,0.00025298,0.08621433,0.60066628,0.00013349,0.00109840,0.0003
 9910,0.00005081,-0.00009762,-0.00008488,-0.00012443,0.00003222,-0.0002
 7772,-0.00001282,-0.00009489,0.00022036,-0.00004239,-0.00013738,0.0001
 7414,0.00005271,-0.00004220,-0.00009454,0.00002461,-0.00003578,-0.0000
 3278,-0.00005367,0.00002389,0.00003977,0.00174433,0.00145441,-0.001976
 83,-0.00077299,-0.00057571,0.00016571,0.00013894,-0.00001129,0.0000227
 5,0.02823020,0.00383297,-0.10350177,0.01577543,-0.01409748,-0.00363209
 ,-0.00015641,-0.00084000,0.00057812,-0.01156970,0.00850793,0.02181696,
 -0.00540659,-0.00079280,-0.00285286,-0.00094983,0.00025534,0.00040852,
 0.06347172,-0.04092883,0.63206149,-0.00019767,0.00031174,0.00008157,0.
 00001880,-0.00009306,-0.00003555,0.00000957,-0.00003795,-0.00004074,-0
 .00000178,-0.00002062,0.00001741,0.00003551,0.00004621,-0.00003568,-0.
 00000078,-0.00004022,-0.00000165,-0.00003150,0.00000604,0.00000111,0.0
 0000236,-0.00000561,-0.00001284,0.00019475,-0.00054151,0.00063668,-0.0
 0004822,0.00008194,-0.00013311,-0.00000688,-0.00000143,-0.00001250,-0.
 02438189,-0.01762142,0.02599149,-0.00296942,0.00458138,-0.00036303,-0.
 00098358,-0.00040884,-0.00029230,0.00008361,-0.00155169,0.00082309,0.0
 0010959,0.00018988,-0.00051341,-0.00016300,-0.00000678,0.00004969,-0.0
 9379553,-0.07478418,0.06337923,0.11041581,0.00008506,-0.00042134,-0.00
 008406,-0.00003214,0.00009544,0.00004607,0.00002847,0.00002032,0.00011
 214,0.00001854,0.00005806,-0.00009081,0.00000102,-0.00000158,-0.000016
 69,-0.00000547,0.00003779,0.00000577,0.00001783,0.00000547,0.00000764,
 0.00000357,-0.00000683,-0.00000260,-0.00029079,0.00010940,-0.00002808,
 0.00013158,0.00000736,0.00003547,-0.00000995,0.00000787,0.00001493,0.0
 1455796,0.01300406,-0.01635163,0.00258687,-0.00234555,-0.00069564,0.00
 072812,0.00048553,0.00010769,-0.00105230,0.00080589,0.00004259,0.00022
 663,-0.00005346,-0.00003005,-0.00008142,-0.00000413,-0.00000501,-0.087
 66882,-0.19156512,0.12853512,0.08167535,0.19382171,0.00002394,-0.00018
 693,-0.00007729,-0.00002111,0.00003767,0.00003484,0.00003713,0.0000083
 7,0.00007885,0.00001013,0.00002507,-0.00006021,0.00001273,0.00000767,-
 0.00001712,-0.00000167,0.00001640,0.00000319,0.00000245,0.00000537,0.0
 0000452,0.00000100,-0.00000644,-0.00000554,-0.00014170,-0.00004784,0.0
 0013747,0.00007212,0.00003396,-0.00001183,-0.00000786,0.00000283,0.000
 01185,0.00562612,0.00436054,-0.00542070,0.00013876,-0.00151629,0.00062
 194,0.00020145,0.00022551,-0.00000216,-0.00044693,-0.00005872,0.000254
 76,0.00018745,0.00004785,-0.00015962,-0.00004893,-0.00002962,0.0000407
 0,0.07289732,0.11930483,-0.16368634,-0.08210602,-0.12909123,0.16788202
 ,-0.00004265,0.00043077,0.00040384,0.00004082,-0.00009578,-0.00014184,
 -0.00010481,-0.00009068,-0.00027554,0.00000199,-0.00006455,0.00006948,
 0.00005700,0.00003693,0.00008727,0.00002031,-0.00007197,-0.00008166,-0
 .00001970,-0.00002118,-0.00001968,-0.00003573,-0.00001259,-0.00001653,
 0.00010955,0.00033595,-0.00008114,-0.00007153,-0.00012132,-0.00002613,
 0.00001295,0.00000324,0.00000925,-0.01092023,0.03652837,0.02033010,0.0
 0226948,0.00154125,-0.00071284,-0.00006256,-0.00044400,-0.00013670,0.0
 0252316,0.00055703,0.00184477,-0.00028632,-0.00033942,-0.00018543,-0.0
 0022591,0.00009591,-0.00001197,-0.06550279,-0.06240803,-0.03267693,0.0
 0007135,-0.01009315,-0.00814874,0.07229747,0.00000408,-0.00014396,-0.0
 0016194,-0.00001058,0.00002003,0.00004620,-0.00005862,0.00005338,0.000
 07135,-0.00003246,0.00001146,0.00004293,-0.00003980,-0.00004846,0.0000
 0303,-0.00000389,0.00002714,0.00002929,0.00001556,0.00000109,0.0000027
 9,0.00000883,0.00001465,0.00001565,-0.00001619,0.00012756,-0.00031310,
 0.00001974,-0.00000385,0.00006922,-0.00000365,-0.00000358,-0.00000784,
 0.00616022,-0.00716034,-0.00494980,-0.00048423,-0.00010016,0.00049687,
 0.00031975,0.00005802,0.00008887,-0.00039496,-0.00078565,-0.00115616,0
 .00004378,0.00006062,0.00041469,0.00026590,-0.00004797,-0.00002087,-0.
 05169240,-0.26689900,-0.10857876,-0.00418279,-0.01375337,-0.01028564,0
 .05024683,0.28148192,0.00002334,-0.00033139,0.00016483,-0.00006255,0.0
 0010183,-0.00000654,0.00002565,-0.00000895,0.00011017,0.00007993,0.000
 14187,-0.00020086,-0.00001530,0.00003436,-0.00007595,-0.00000396,0.000
 01168,0.00002467,-0.00000267,0.00002324,0.00001437,0.00001910,-0.00000
 820,-0.00000774,-0.00015876,-0.00053773,0.00054709,0.00004336,0.000128
 92,-0.00008210,-0.00001414,0.00000069,-0.00000408,0.00452154,-0.007529
 20,-0.00299739,0.00001393,-0.00156864,-0.00043893,-0.00012262,0.000412
 91,-0.00019669,-0.00083586,0.00096374,-0.00005068,0.00054394,0.0000606
 2,-0.00022555,-0.00011653,0.00001606,0.00001084,-0.02720378,-0.1075213
 1,-0.11281994,0.00269186,0.01782743,0.01266518,0.02510142,0.12113846,0
 .11168545,-0.00006167,0.00021376,-0.00000892,0.00001896,-0.00004516,0.
 00000251,-0.00001725,-0.00000401,-0.00001624,-0.00001337,-0.00007206,0
 .00003083,-0.00000590,-0.00004505,0.00004980,0.00000406,0.00000281,-0.
 00003482,0.00000780,-0.00000917,0.00000042,-0.00002435,0.00001006,0.00
 000866,0.00044581,0.00043350,-0.00061453,-0.00015691,-0.00015102,0.000
 08585,0.00002219,-0.00000594,0.00000165,-0.02879069,0.01049947,-0.0246
 1077,-0.00010577,-0.00017691,-0.00162761,-0.00008645,-0.00037988,0.000
 22511,-0.00106079,0.00130249,0.00523087,-0.00149050,-0.00022744,-0.000
 73532,-0.00028151,0.00007511,0.00012255,-0.12528521,0.01250851,-0.1212
 3569,0.01163889,-0.00082696,0.01171237,-0.00013185,-0.00016512,-0.0045
 2792,0.14537450,-0.00002242,-0.00008852,-0.00025531,0.00000189,0.00000
 382,0.00006742,0.00003172,0.00001132,0.00009545,-0.00002770,-0.0000276
 1,0.00001318,0.00001782,0.00000178,-0.00000907,-0.00000457,0.00001972,
 0.00001804,0.00000217,0.00000022,0.00000064,0.00000373,-0.00000113,-0.
 00000449,-0.00027929,-0.00003081,0.00017368,0.00014193,0.00004394,-0.0
 0000544,-0.00001704,0.00000705,0.00000544,0.01360952,-0.00393191,0.013
 15773,-0.00092465,0.00037540,0.00006591,0.00014117,0.00008530,0.000044
 31,0.00045171,-0.00073646,-0.00258831,0.00078394,0.00008189,0.00042872
 ,0.00018812,-0.00008216,-0.00005202,0.01244902,-0.05661916,0.02249246,
 0.01240356,-0.00030754,0.01714666,-0.01601364,0.00709047,-0.02335639,-
 0.02293700,0.05410439,0.00000089,-0.00010109,-0.00009193,0.00000229,0.
 00001160,0.00002448,0.00000796,0.00000833,0.00002679,-0.00002041,-0.00
 000172,0.00001428,0.00001048,0.00001104,-0.00001878,-0.00000613,0.0000
 0214,0.00002273,-0.00000240,0.00000110,-0.00000200,0.00001264,-0.00000
 106,-0.00000177,-0.00025987,-0.00013795,0.00026070,0.00011311,0.000065
 51,-0.00003116,-0.00001370,0.00000514,-0.00000041,0.01506831,-0.005092
 90,0.01502032,-0.00062863,0.00027261,0.00093631,0.00012416,0.00014954,
 -0.00006491,0.00144195,-0.00113560,-0.00189847,0.00090690,0.00010247,0
 .00048434,0.00020535,-0.00004107,-0.00007418,-0.13744782,0.03060484,-0
 .26692715,-0.01012529,-0.00033906,-0.01229450,-0.00533101,0.00305477,-
 0.00811616,0.13594121,-0.02743862,0.27273147||-0.00128094,-0.00325148,
 0.00072891,0.00083823,0.00096567,-0.00076747,-0.00045687,-0.00045129,-
 0.00111238,-0.00070099,-0.00028757,0.00021264,-0.00049125,0.00022150,-
 0.00064672,-0.00136857,0.00111921,0.00049524,0.00116074,0.00067747,0.0
 0030998,0.00121355,-0.00037939,0.00001475,-0.01098173,-0.00283138,0.00
 527409,0.00499157,0.00344045,0.00183404,0.00091643,-0.00211901,-0.0005
 0150,0.00092270,-0.00372859,-0.00005373,-0.00361763,-0.00014478,0.0018
 1432,0.00495204,0.00323103,-0.00121491,-0.00778638,0.00641967,-0.00149
 894,0.00948387,-0.00329808,-0.00507026,-0.00259640,0.00139762,0.000062
 90,0.00260868,-0.00141966,0.00031140,0.00052699,0.00023305,0.00053346,
 0.00078934,-0.00031455,-0.00039258,0.00087664,0.00052010,-0.00033324||
 |@


            THE IRISH PIG
 'TWAS AN EVENING IN NOVEMBER,
 AS I VERY WELL REMEMBER
 I WAS STROLLING DOWN THE STREET IN DRUNKEN PRIDE,
 BUT MY KNEES WERE ALL A'FLUTTER
 SO I LANDED IN THE GUTTER,
 AND A PIG CAME UP AND LAY DOWN BY MY SIDE.

 YES, I LAY THERE IN THE GUTTER
 THINKING THOUGHTS I COULD NOT UTTER
 WHEN A COLLEEN PASSING BY DID SOFTLY SAY,
 'YE CAN TELL A MAN THAT BOOZES
 BY THE COMPANY THAT HE CHOOSES.' -
 AT THAT, THE PIG GOT UP AND WALKED AWAY!
     -- THE ECONOMIST, AUGUST 23, 1986
 Job cpu time:  0 days  0 hours 20 minutes 27.0 seconds.
 File lengths (MBytes):  RWF=     81 Int=      0 D2E=      0 Chk=      7 Scr=      1
 Normal termination of Gaussian 09 at Wed Sep 30 13:26:51 2015.
